<event>
 6    1  0.1762360E-005  0.6620044E+03  0.7818608E-02  0.9784511E-01
         -2   -1    0    0    0  501 -0.00000000000E+00  0.00000000000E+00  0.85981644568E+03  0.85981644568E+03  0.00000000000E+00 0.  1.
          2   -1    0    0  501    0  0.00000000000E+00 -0.00000000000E+00 -0.12742539588E+03  0.12742539588E+03  0.00000000000E+00 0. -1.
         23    2    1    2    0    0  0.30843866436E+03 -0.82380869969E+02  0.45950112234E+03  0.56725382992E+03  0.93352068623E+02 0.  0.
         13    1    3    3    0    0  0.23322064292E+03 -0.98806714624E+02  0.37915221163E+03  0.45597262497E+03  0.00000000000E+00 0. -1.
        -13    1    3    3    0    0  0.75218021448E+02  0.16425844655E+02  0.80348910709E+02  0.11128120495E+03  0.00000000000E+00 0.  1.
         22    1    1    2    0    0 -0.30843866436E+03  0.82380869969E+02  0.27288992745E+03  0.41998801163E+03  0.00000000000E+00 0.  1.
<mgrwt>
<rscale>  0 0.66200438E+03</rscale>
<asrwt>0</asrwt>
<pdfrwt beam="1">  1        2 0.19603908E-01 0.66200438E+03</pdfrwt>
<pdfrwt beam="2">  1       -2 0.13227945E+00 0.66200438E+03</pdfrwt>
<totfact> 0.12246630E+02</totfact>
</mgrwt>
</event>
<event>
 6    1  0.1762360E-005  0.3250902E+04  0.7818608E-02  0.8175502E-01
         -1   -1    0    0    0  501 -0.00000000000E+00  0.00000000000E+00  0.96813198492E+03  0.96813198492E+03  0.00000000000E+00 0.  1.
          1   -1    0    0  501    0  0.00000000000E+00 -0.00000000000E+00 -0.27290615006E+04  0.27290615006E+04  0.00000000000E+00 0. -1.
         23    2    1    2    0    0 -0.13527077283E+04  0.45761903566E+03 -0.12724591672E+01  0.14310014512E+04  0.92358832625E+02 0.  0.
         11    1    3    3    0    0 -0.17765435958E+03  0.72402717524E+02 -0.29488162756E+02  0.19409476223E+03  0.00000000000E+00 0.  1.
        -11    1    3    3    0    0 -0.11750533687E+04  0.38521631814E+03  0.28215703589E+02  0.12369066889E+04  0.00000000000E+00 0. -1.
         22    1    1    2    0    0  0.13527077283E+04 -0.45761903566E+03 -0.17596570565E+04  0.22661920344E+04  0.00000000000E+00 0.  1.
<mgrwt>
<rscale>  0 0.32509025E+04</rscale>
<asrwt>0</asrwt>
<pdfrwt beam="1">  1        1 0.41985561E+00 0.32509025E+04</pdfrwt>
<pdfrwt beam="2">  1       -1 0.14894338E+00 0.32509025E+04</pdfrwt>
<totfact> 0.27713488E-01</totfact>
</mgrwt>
</event>
<event>
 6    1  0.1762360E-005  0.1308430E+04  0.7818608E-02  0.9022907E-01
          2   -1    0    0  501    0  0.00000000000E+00  0.00000000000E+00  0.63824256640E+03  0.63824256640E+03  0.00000000000E+00 0. -1.
         -2   -1    0    0    0  501 -0.00000000000E+00 -0.00000000000E+00 -0.67058721020E+03  0.67058721020E+03  0.00000000000E+00 0.  1.
         23    2    1    2    0    0  0.38455038621E+02  0.64905075300E+03  0.13756447563E+02  0.65700849696E+03  0.93409074844E+02 0.  0.
         13    1    3    3    0    0  0.16408886939E+02  0.16024244009E+03 -0.36392016628E+02  0.16514015275E+03  0.00000000000E+00 0.  1.
        -13    1    3    3    0    0  0.22046151682E+02  0.48880831291E+03  0.50148464191E+02  0.49186834421E+03  0.00000000000E+00 0. -1.
         22    1    1    2    0    0 -0.38455038621E+02 -0.64905075300E+03 -0.46101091359E+02  0.65182127964E+03  0.00000000000E+00 0.  1.
<mgrwt>
<rscale>  0 0.13084301E+04</rscale>
<asrwt>0</asrwt>
<pdfrwt beam="1">  1        2 0.98191164E-01 0.13084301E+04</pdfrwt>
<pdfrwt beam="2">  1       -2 0.10316726E+00 0.13084301E+04</pdfrwt>
<totfact> 0.34550880E+01</totfact>
</mgrwt>
</event>
<event>
 6    1  0.1762360E-005  0.3534866E+04  0.7818608E-02  0.8105577E-01
         -2   -1    0    0    0  501 -0.00000000000E+00  0.00000000000E+00  0.82423428944E+03  0.82423428944E+03  0.00000000000E+00 0.  1.
          2   -1    0    0  501    0  0.00000000000E+00 -0.00000000000E+00 -0.37899645097E+04  0.37899645097E+04  0.00000000000E+00 0. -1.
         23    2    1    2    0    0  0.12042185148E+04 -0.91780556797E+03 -0.26711217304E+04  0.30716997053E+04  0.89098200282E+02 0.  0.
         11    1    3    3    0    0  0.75059126970E+03 -0.55786682977E+03 -0.17333045912E+04  0.19695043691E+04  0.00000000000E+00 0.  1.
        -11    1    3    3    0    0  0.45362724512E+03 -0.35993873820E+03 -0.93781713914E+03  0.11021953362E+04  0.00000000000E+00 0. -1.
         22    1    1    2    0    0 -0.12042185148E+04  0.91780556797E+03 -0.29460848988E+03  0.15424990938E+04  0.00000000000E+00 0.  1.
<mgrwt>
<rscale>  0 0.35348656E+04</rscale>
<asrwt>0</asrwt>
<pdfrwt beam="1">  1        2 0.58307146E+00 0.35348656E+04</pdfrwt>
<pdfrwt beam="2">  1       -2 0.12680528E+00 0.35348656E+04</pdfrwt>
<totfact> 0.18898178E-01</totfact>
</mgrwt>
</event>
<event>
 6    1  0.1762360E-005  0.1206016E+04  0.7818608E-02  0.9107607E-01
         -1   -1    0    0    0  501 -0.00000000000E+00  0.00000000000E+00  0.46073079480E+03  0.46073079480E+03  0.00000000000E+00 0.  1.
          1   -1    0    0  501    0  0.00000000000E+00 -0.00000000000E+00 -0.78922105473E+03  0.78922105473E+03  0.00000000000E+00 0. -1.
         23    2    1    2    0    0 -0.58542176447E+03 -0.37982033783E+02 -0.37059808909E+02  0.59489995465E+03  0.91494532025E+02 0.  0.
         13    1    3    3    0    0 -0.12289656123E+03  0.23951318134E+02 -0.27269901407E+02  0.12814397342E+03  0.00000000000E+00 0. -1.
        -13    1    3    3    0    0 -0.46252520325E+03 -0.61933351918E+02 -0.97899075029E+01  0.46675598122E+03  0.00000000000E+00 0.  1.
         22    1    1    2    0    0  0.58542176447E+03  0.37982033783E+02 -0.29143045102E+03  0.65505189488E+03  0.00000000000E+00 0.  1.
<mgrwt>
<rscale>  0 0.12060157E+04</rscale>
<asrwt>0</asrwt>
<pdfrwt beam="1">  1        1 0.12141862E+00 0.12060157E+04</pdfrwt>
<pdfrwt beam="2">  1       -1 0.70881661E-01 0.12060157E+04</pdfrwt>
<totfact> 0.44961816E+01</totfact>
</mgrwt>
</event>
<event>
 6    1  0.1762360E-005  0.2244840E+04  0.7818608E-02  0.8499993E-01
         -2   -1    0    0    0  501 -0.00000000000E+00  0.00000000000E+00  0.35502425090E+03  0.35502425090E+03  0.00000000000E+00 0. -1.
          2   -1    0    0  501    0  0.00000000000E+00 -0.00000000000E+00 -0.35485644299E+04  0.35485644299E+04  0.00000000000E+00 0.  1.
         23    2    1    2    0    0 -0.10529779131E+03  0.81282870384E+03 -0.27068681416E+03  0.86799155354E+03  0.91432264630E+02 0.  0.
         13    1    3    3    0    0 -0.76064068523E+02  0.25739955141E+03 -0.81670857892E+02  0.28055373926E+03  0.00000000000E+00 0.  1.
        -13    1    3    3    0    0 -0.29233722788E+02  0.55542915243E+03 -0.18901595627E+03  0.58743781427E+03  0.00000000000E+00 0. -1.
         22    1    1    2    0    0  0.10529779131E+03 -0.81282870384E+03 -0.29228533648E+04  0.30355971272E+04  0.00000000000E+00 0.  1.
<mgrwt>
<rscale>  0 0.22448398E+04</rscale>
<asrwt>0</asrwt>
<pdfrwt beam="1">  1        2 0.54593300E+00 0.22448398E+04</pdfrwt>
<pdfrwt beam="2">  1       -2 0.54619115E-01 0.22448398E+04</pdfrwt>
<totfact> 0.21656135E+00</totfact>
</mgrwt>
</event>
<event>
 6    1  0.1762360E-005  0.2136621E+04  0.7818608E-02  0.8545281E-01
         -2   -1    0    0    0  501 -0.00000000000E+00  0.00000000000E+00  0.68794316089E+03  0.68794316089E+03  0.00000000000E+00 0.  1.
          2   -1    0    0  501    0  0.00000000000E+00 -0.00000000000E+00 -0.16589846785E+04  0.16589846785E+04  0.00000000000E+00 0. -1.
         23    2    1    2    0    0  0.10552036876E+04  0.18122666738E+02 -0.31786829928E+03  0.11057918652E+04  0.89174771865E+02 0.  0.
         13    1    3    3    0    0  0.59385211025E+03 -0.30142907396E+02 -0.15956025509E+03  0.61565282320E+03  0.00000000000E+00 0. -1.
        -13    1    3    3    0    0  0.46135157738E+03  0.48265574134E+02 -0.15830804420E+03  0.49013904196E+03  0.00000000000E+00 0.  1.
         22    1    1    2    0    0 -0.10552036876E+04 -0.18122666738E+02 -0.65317321835E+03  0.12411359743E+04  0.00000000000E+00 0. -1.
<mgrwt>
<rscale>  0 0.21366208E+04</rscale>
<asrwt>0</asrwt>
<pdfrwt beam="1">  1        2 0.25522841E+00 0.21366208E+04</pdfrwt>
<pdfrwt beam="2">  1       -2 0.10583741E+00 0.21366208E+04</pdfrwt>
<totfact> 0.68498931E+00</totfact>
</mgrwt>
</event>
<event>
 6    1  0.1762360E-005  0.3885405E+04  0.7818608E-02  0.8028072E-01
          2   -1    0    0  501    0  0.00000000000E+00  0.00000000000E+00  0.14910715830E+04  0.14910715830E+04  0.00000000000E+00 0. -1.
         -2   -1    0    0    0  501 -0.00000000000E+00 -0.00000000000E+00 -0.25311274600E+04  0.25311274600E+04  0.00000000000E+00 0.  1.
         23    2    1    2    0    0  0.43489650608E+03 -0.18899303246E+04 -0.61747935722E+03  0.20373709602E+04  0.92887404873E+02 0.  0.
         13    1    3    3    0    0  0.10180325640E+03 -0.29816936869E+03 -0.88532079604E+02  0.32727175949E+03  0.00000000000E+00 0.  1.
        -13    1    3    3    0    0  0.33309324968E+03 -0.15917609560E+04 -0.52894727762E+03  0.17100992008E+04  0.00000000000E+00 0. -1.
         22    1    1    2    0    0 -0.43489650608E+03  0.18899303246E+04 -0.42257651976E+03  0.19848280828E+04  0.00000000000E+00 0. -1.
<mgrwt>
<rscale>  0 0.38854046E+04</rscale>
<asrwt>0</asrwt>
<pdfrwt beam="1">  1        2 0.22939563E+00 0.38854046E+04</pdfrwt>
<pdfrwt beam="2">  1       -2 0.38940422E+00 0.38854046E+04</pdfrwt>
<totfact> 0.88932928E-02</totfact>
</mgrwt>
</event>
<event>
 6    1  0.1762360E-005  0.2794057E+04  0.7818608E-02  0.8305116E-01
          2   -1    0    0  501    0  0.00000000000E+00  0.00000000000E+00  0.95149935002E+03  0.95149935002E+03  0.00000000000E+00 0. -1.
         -2   -1    0    0    0  501 -0.00000000000E+00 -0.00000000000E+00 -0.20511719774E+04  0.20511719774E+04  0.00000000000E+00 0.  1.
         23    2    1    2    0    0  0.43245697879E+03  0.22583301108E+03 -0.19555305869E+04  0.20175254326E+04  0.91046184319E+02 0.  0.
         13    1    3    3    0    0  0.38075706315E+03  0.17614060439E+03 -0.15535199676E+04  0.16091692712E+04  0.00000000000E+00 0. -1.
        -13    1    3    3    0    0  0.51699915638E+02  0.49692406681E+02 -0.40201061924E+03  0.40835616139E+03  0.00000000000E+00 0.  1.
         22    1    1    2    0    0 -0.43245697879E+03 -0.22583301108E+03  0.85585795944E+03  0.98514589485E+03  0.00000000000E+00 0. -1.
<mgrwt>
<rscale>  0 0.27940571E+04</rscale>
<asrwt>0</asrwt>
<pdfrwt beam="1">  1        2 0.14638452E+00 0.27940571E+04</pdfrwt>
<pdfrwt beam="2">  1       -2 0.31556492E+00 0.27940571E+04</pdfrwt>
<totfact> 0.60139367E-01</totfact>
</mgrwt>
</event>
<event>
 6    1  0.1762360E-005  0.1455720E+04  0.7818608E-02  0.8914445E-01
          1   -1    0    0  501    0  0.00000000000E+00  0.00000000000E+00  0.19480386911E+04  0.19480386911E+04  0.00000000000E+00 0. -1.
         -1   -1    0    0    0  501 -0.00000000000E+00 -0.00000000000E+00 -0.27195568380E+03  0.27195568380E+03  0.00000000000E+00 0.  1.
         23    2    1    2    0    0 -0.11703505310E+03 -0.38085151016E+03 -0.82640071470E+02  0.41670517341E+03  0.89826185967E+02 0.  0.
         13    1    3    3    0    0 -0.36909595219E+02 -0.93622234183E+02 -0.61102532312E+02  0.11773258006E+03  0.00000000000E+00 0.  1.
        -13    1    3    3    0    0 -0.80125457879E+02 -0.28722927598E+03 -0.21537539158E+02  0.29897259335E+03  0.00000000000E+00 0. -1.
         22    1    1    2    0    0  0.11703505310E+03  0.38085151016E+03  0.17587230787E+04  0.18032892015E+04  0.00000000000E+00 0. -1.
<mgrwt>
<rscale>  0 0.14557200E+04</rscale>
<asrwt>0</asrwt>
<pdfrwt beam="1">  1        1 0.29969825E+00 0.14557200E+04</pdfrwt>
<pdfrwt beam="2">  1       -1 0.41839337E-01 0.14557200E+04</pdfrwt>
<totfact> 0.17604514E+01</totfact>
</mgrwt>
</event>
<event>
 6    1  0.1762360E-005  0.8738256E+03  0.7818608E-02  0.9458905E-01
          2   -1    0    0  501    0  0.00000000000E+00  0.00000000000E+00  0.42672015944E+03  0.42672015944E+03  0.00000000000E+00 0.  1.
         -2   -1    0    0    0  501 -0.00000000000E+00 -0.00000000000E+00 -0.44734889876E+03  0.44734889876E+03  0.00000000000E+00 0. -1.
         23    2    1    2    0    0 -0.24983191100E+03 -0.27671029407E+03  0.20986407256E+03  0.43576379138E+03  0.82840704530E+02 0.  0.
         11    1    3    3    0    0 -0.23400108176E+03 -0.28082561574E+03  0.20118430205E+03  0.41724651720E+03  0.00000000000E+00 0. -1.
        -11    1    3    3    0    0 -0.15830829244E+02  0.41153216745E+01  0.86797705093E+01  0.18517274182E+02  0.00000000000E+00 0.  1.
         22    1    1    2    0    0  0.24983191100E+03  0.27671029407E+03 -0.23049281188E+03  0.43830526682E+03  0.00000000000E+00 0. -1.
<mgrwt>
<rscale>  0 0.87382560E+03</rscale>
<asrwt>0</asrwt>
<pdfrwt beam="1">  1        2 0.65649255E-01 0.87382560E+03</pdfrwt>
<pdfrwt beam="2">  1       -2 0.68822908E-01 0.87382560E+03</pdfrwt>
<totfact> 0.14328212E+02</totfact>
</mgrwt>
</event>
<event>
 6    1  0.1762360E-005  0.4078124E+04  0.7818608E-02  0.7988969E-01
         -1   -1    0    0    0  501 -0.00000000000E+00  0.00000000000E+00  0.17941507971E+04  0.17941507971E+04  0.00000000000E+00 0.  1.
          1   -1    0    0  501    0  0.00000000000E+00 -0.00000000000E+00 -0.23174051477E+04  0.23174051477E+04  0.00000000000E+00 0. -1.
         23    2    1    2    0    0 -0.18725232368E+04 -0.79968585162E+03 -0.17212761073E+03  0.20453684604E+04  0.89796940317E+02 0.  0.
         11    1    3    3    0    0 -0.11873629032E+04 -0.53815644113E+03 -0.14251167422E+03  0.13113933797E+04  0.00000000000E+00 0. -1.
        -11    1    3    3    0    0 -0.68516033363E+03 -0.26152941048E+03 -0.29615936517E+02  0.73397508066E+03  0.00000000000E+00 0.  1.
         22    1    1    2    0    0  0.18725232368E+04  0.79968585162E+03 -0.35112673987E+03  0.20661874845E+04  0.00000000000E+00 0.  1.
<mgrwt>
<rscale>  0 0.40781242E+04</rscale>
<asrwt>0</asrwt>
<pdfrwt beam="1">  1        1 0.35652387E+00 0.40781242E+04</pdfrwt>
<pdfrwt beam="2">  1       -1 0.27602320E+00 0.40781242E+04</pdfrwt>
<totfact> 0.66504595E-02</totfact>
</mgrwt>
</event>
<event>
 6    1  0.1762360E-005  0.1288388E+04  0.7818608E-02  0.9038825E-01
         -1   -1    0    0    0  501 -0.00000000000E+00  0.00000000000E+00  0.14005332585E+03  0.14005332585E+03  0.00000000000E+00 0.  1.
          1   -1    0    0  501    0  0.00000000000E+00 -0.00000000000E+00 -0.29630561588E+04  0.29630561588E+04  0.00000000000E+00 0. -1.
         23    2    1    2    0    0 -0.38450714680E+03 -0.44335778023E+03 -0.20392958066E+04  0.21240239060E+04  0.91314287538E+02 0.  0.
         11    1    3    3    0    0 -0.25559143529E+03 -0.28858838004E+03 -0.14865120734E+04  0.15356849870E+04  0.00000000000E+00 0. -1.
        -11    1    3    3    0    0 -0.12891571151E+03 -0.15476940019E+03 -0.55278373322E+03  0.58833891901E+03  0.00000000000E+00 0.  1.
         22    1    1    2    0    0  0.38450714680E+03  0.44335778023E+03 -0.78370702638E+03  0.97908557870E+03  0.00000000000E+00 0. -1.
<mgrwt>
<rscale>  0 0.12883879E+04</rscale>
<asrwt>0</asrwt>
<pdfrwt beam="1">  1        1 0.45585478E+00 0.12883879E+04</pdfrwt>
<pdfrwt beam="2">  1       -1 0.21546666E-01 0.12883879E+04</pdfrwt>
<totfact> 0.11397234E+01</totfact>
</mgrwt>
</event>
<event>
 6    1  0.1762360E-005  0.2474644E+03  0.7818608E-02  0.1114918E+00
         -2   -1    0    0    0  501 -0.00000000000E+00  0.00000000000E+00  0.26428639891E+02  0.26428639891E+02  0.00000000000E+00 0.  1.
          2   -1    0    0  501    0  0.00000000000E+00 -0.00000000000E+00 -0.57928299346E+03  0.57928299346E+03  0.00000000000E+00 0. -1.
         23    2    1    2    0    0  0.68125400844E+01 -0.37694339887E+02 -0.55833004496E+03  0.56701722603E+03  0.91152737487E+02 0.  0.
         13    1    3    3    0    0  0.25837653176E+02  0.18404577038E+02 -0.10094435516E+03  0.10581150985E+03  0.00000000000E+00 0. -1.
        -13    1    3    3    0    0 -0.19025113091E+02 -0.56098916925E+02 -0.45738568980E+03  0.46120571618E+03  0.00000000000E+00 0.  1.
         22    1    1    2    0    0 -0.68125400844E+01  0.37694339887E+02  0.54756913859E+01  0.38694407323E+02  0.00000000000E+00 0.  1.
<mgrwt>
<rscale>  0 0.24746443E+03</rscale>
<asrwt>0</asrwt>
<pdfrwt beam="1">  1        2 0.89120455E-01 0.24746443E+03</pdfrwt>
<pdfrwt beam="2">  1       -2 0.40659449E-02 0.24746443E+03</pdfrwt>
<totfact> 0.13936300E+04</totfact>
</mgrwt>
</event>
<event>
 6    1  0.1762360E-005  0.8675148E+03  0.7818608E-02  0.9467126E-01
          2   -1    0    0  501    0  0.00000000000E+00  0.00000000000E+00  0.18087969923E+03  0.18087969923E+03  0.00000000000E+00 0. -1.
         -2   -1    0    0    0  501 -0.00000000000E+00 -0.00000000000E+00 -0.10401692052E+04  0.10401692052E+04  0.00000000000E+00 0.  1.
         23    2    1    2    0    0 -0.58895049487E+02 -0.42185773779E+03 -0.50259298094E+03  0.66547263716E+03  0.93923099070E+02 0.  0.
         11    1    3    3    0    0  0.88870694645E+00 -0.12642349125E+03 -0.93113964633E+02  0.15701560224E+03  0.00000000000E+00 0.  1.
        -11    1    3    3    0    0 -0.59783756433E+02 -0.29543424654E+03 -0.40947901630E+03  0.50845703492E+03  0.00000000000E+00 0. -1.
         22    1    1    2    0    0  0.58895049487E+02  0.42185773779E+03 -0.35669652503E+03  0.55557626727E+03  0.00000000000E+00 0. -1.
<mgrwt>
<rscale>  0 0.86751483E+03</rscale>
<asrwt>0</asrwt>
<pdfrwt beam="1">  1        2 0.27827647E-01 0.86751483E+03</pdfrwt>
<pdfrwt beam="2">  1       -2 0.16002603E+00 0.86751483E+03</pdfrwt>
<totfact> 0.49069015E+01</totfact>
</mgrwt>
</event>
<event>
 6    1  0.1762360E-005  0.1443533E+04  0.7818608E-02  0.8922896E-01
         -1   -1    0    0    0  501 -0.00000000000E+00  0.00000000000E+00  0.51670634943E+03  0.51670634943E+03  0.00000000000E+00 0.  1.
          1   -1    0    0  501    0  0.00000000000E+00 -0.00000000000E+00 -0.10082068763E+04  0.10082068763E+04  0.00000000000E+00 0. -1.
         23    2    1    2    0    0 -0.40770048857E+03 -0.46730983653E+02 -0.87124346163E+03  0.96579948986E+03  0.72801181140E+02 0.  0.
         11    1    3    3    0    0 -0.22161559480E+03  0.10732340029E+02 -0.45116496319E+03  0.50277080165E+03  0.00000000000E+00 0. -1.
        -11    1    3    3    0    0 -0.18608489376E+03 -0.57463323682E+02 -0.42007849844E+03  0.46302868821E+03  0.00000000000E+00 0.  1.
         22    1    1    2    0    0  0.40770048857E+03  0.46730983653E+02  0.37974293472E+03  0.55911373591E+03  0.00000000000E+00 0.  1.
<mgrwt>
<rscale>  0 0.14435330E+04</rscale>
<asrwt>0</asrwt>
<pdfrwt beam="1">  1        1 0.15510875E+00 0.14435330E+04</pdfrwt>
<pdfrwt beam="2">  1       -1 0.79493285E-01 0.14435330E+04</pdfrwt>
<totfact> 0.22912617E+01</totfact>
</mgrwt>
</event>
<event>
 6    1  0.1762360E-005  0.1278187E+04  0.7818608E-02  0.9047044E-01
          4   -1    0    0  501    0  0.00000000000E+00  0.00000000000E+00  0.18946894433E+03  0.18946894433E+03  0.00000000000E+00 0. -1.
         -4   -1    0    0    0  501 -0.00000000000E+00 -0.00000000000E+00 -0.21557110725E+04  0.21557110725E+04  0.00000000000E+00 0.  1.
         23    2    1    2    0    0  0.34807869342E+03  0.42208392104E+03 -0.39350250415E+03  0.68000028534E+03  0.90788512888E+02 0.  0.
         13    1    3    3    0    0  0.18021606814E+03  0.28152985192E+03 -0.21420612539E+03  0.39701530561E+03  0.00000000000E+00 0. -1.
        -13    1    3    3    0    0  0.16786262529E+03  0.14055406913E+03 -0.17929637876E+03  0.28298497973E+03  0.00000000000E+00 0.  1.
         22    1    1    2    0    0 -0.34807869342E+03 -0.42208392104E+03 -0.15727396241E+04  0.16651797315E+04  0.00000000000E+00 0.  1.
<mgrwt>
<rscale>  0 0.12781867E+04</rscale>
<asrwt>0</asrwt>
<pdfrwt beam="1">  1        4 0.29149070E-01 0.12781867E+04</pdfrwt>
<pdfrwt beam="2">  1       -4 0.33164784E+00 0.12781867E+04</pdfrwt>
<totfact> 0.44132414E-01</totfact>
</mgrwt>
</event>
<event>
 6    1  0.1762360E-005  0.1815148E+04  0.7818608E-02  0.8698285E-01
         -2   -1    0    0    0  501 -0.00000000000E+00  0.00000000000E+00  0.40153823054E+03  0.40153823054E+03  0.00000000000E+00 0.  1.
          2   -1    0    0  501    0  0.00000000000E+00 -0.00000000000E+00 -0.20513383287E+04  0.20513383287E+04  0.00000000000E+00 0. -1.
         23    2    1    2    0    0 -0.75253812596E+03 -0.27421378912E+03 -0.13971466014E+04  0.16130309648E+04  0.91342401555E+02 0.  0.
         11    1    3    3    0    0 -0.35745275043E+03 -0.17885520549E+03 -0.69184402394E+03  0.79900551111E+03  0.00000000000E+00 0.  1.
        -11    1    3    3    0    0 -0.39508537552E+03 -0.95358583629E+02 -0.70530257747E+03  0.81402545366E+03  0.00000000000E+00 0. -1.
         22    1    1    2    0    0  0.75253812596E+03  0.27421378912E+03 -0.25265349678E+03  0.83984559450E+03  0.00000000000E+00 0.  1.
<mgrwt>
<rscale>  0 0.18151482E+04</rscale>
<asrwt>0</asrwt>
<pdfrwt beam="1">  1        2 0.31559051E+00 0.18151482E+04</pdfrwt>
<pdfrwt beam="2">  1       -2 0.61775113E-01 0.18151482E+04</pdfrwt>
<totfact> 0.14359712E+01</totfact>
</mgrwt>
</event>
<event>
 6    1  0.1762360E-005  0.1148692E+04  0.7818608E-02  0.9158991E-01
          1   -1    0    0  501    0  0.00000000000E+00  0.00000000000E+00  0.75025069784E+03  0.75025069784E+03  0.00000000000E+00 0. -1.
         -1   -1    0    0    0  501 -0.00000000000E+00 -0.00000000000E+00 -0.43968393849E+03  0.43968393849E+03  0.00000000000E+00 0.  1.
         23    2    1    2    0    0 -0.50460829039E+02  0.17414767516E+03  0.71742419163E+03  0.74450599083E+03  0.81963355394E+02 0.  0.
         11    1    3    3    0    0 -0.23963277544E+02  0.54187635672E+02  0.11162047388E+03  0.12637115462E+03  0.00000000000E+00 0. -1.
        -11    1    3    3    0    0 -0.26497551494E+02  0.11996003948E+03  0.60580371774E+03  0.61813483621E+03  0.00000000000E+00 0.  1.
         22    1    1    2    0    0  0.50460829039E+02 -0.17414767516E+03 -0.40685743227E+03  0.44542864549E+03  0.00000000000E+00 0.  1.
<mgrwt>
<rscale>  0 0.11486917E+04</rscale>
<asrwt>0</asrwt>
<pdfrwt beam="1">  1        1 0.11542318E+00 0.11486917E+04</pdfrwt>
<pdfrwt beam="2">  1       -1 0.67643683E-01 0.11486917E+04</pdfrwt>
<totfact> 0.53828039E+01</totfact>
</mgrwt>
</event>
<event>
 6    1  0.1762360E-005  0.3010125E+04  0.7818608E-02  0.8240846E-01
         -2   -1    0    0    0  501 -0.00000000000E+00  0.00000000000E+00  0.81233255637E+03  0.81233255637E+03  0.00000000000E+00 0.  1.
          2   -1    0    0  501    0  0.00000000000E+00 -0.00000000000E+00 -0.27885287576E+04  0.27885287576E+04  0.00000000000E+00 0. -1.
         23    2    1    2    0    0  0.58090311781E+03  0.12205037439E+04 -0.17769812065E+04  0.22345654326E+04  0.92426421633E+02 0.  0.
         13    1    3    3    0    0  0.19255022410E+03  0.49245641712E+03 -0.65365406921E+03  0.84074523713E+03  0.00000000000E+00 0. -1.
        -13    1    3    3    0    0  0.38835289371E+03  0.72804732679E+03 -0.11233271373E+04  0.13938201955E+04  0.00000000000E+00 0.  1.
         22    1    1    2    0    0 -0.58090311781E+03 -0.12205037439E+04 -0.19921499474E+03  0.13662958813E+04  0.00000000000E+00 0.  1.
<mgrwt>
<rscale>  0 0.30101247E+04</rscale>
<asrwt>0</asrwt>
<pdfrwt beam="1">  1        2 0.42900443E+00 0.30101247E+04</pdfrwt>
<pdfrwt beam="2">  1       -2 0.12497424E+00 0.30101247E+04</pdfrwt>
<totfact> 0.96367694E-01</totfact>
</mgrwt>
</event>
<event>
 6    1  0.2222684E-005  0.2209491E+04  0.7818608E-02  0.8514488E-01
          1   -1    0    0  501    0  0.00000000000E+00  0.00000000000E+00  0.12066525648E+04  0.12066525648E+04  0.00000000000E+00 0. -1.
         -1   -1    0    0    0  501 -0.00000000000E+00 -0.00000000000E+00 -0.10114452932E+04  0.10114452932E+04  0.00000000000E+00 0.  1.
         23    2    1    2    0    0 -0.83449060636E+03 -0.71031260281E+03  0.20789619500E+03  0.11221600976E+04  0.12289788809E+03 0.  0.
         11    1    3    3    0    0 -0.40495980593E+03 -0.32585721935E+03  0.37919378867E+02  0.52116528196E+03  0.00000000000E+00 0.  1.
        -11    1    3    3    0    0 -0.42953080043E+03 -0.38445538346E+03  0.16997681613E+03  0.60099481563E+03  0.00000000000E+00 0. -1.
         22    1    1    2    0    0  0.83449060636E+03  0.71031260281E+03 -0.12688923440E+02  0.10959377604E+04  0.00000000000E+00 0. -1.
<mgrwt>
<rscale>  0 0.22094914E+04</rscale>
<asrwt>0</asrwt>
<pdfrwt beam="1">  1        1 0.18563886E+00 0.22094914E+04</pdfrwt>
<pdfrwt beam="2">  1       -1 0.15560697E+00 0.22094914E+04</pdfrwt>
<totfact> 0.30392334E+00</totfact>
</mgrwt>
</event>
<event>
 6    1  0.1762360E-005  0.1107577E+04  0.7818608E-02  0.9197838E-01
         -2   -1    0    0    0  501 -0.00000000000E+00  0.00000000000E+00  0.39459654868E+03  0.39459654868E+03  0.00000000000E+00 0.  1.
          2   -1    0    0  501    0  0.00000000000E+00 -0.00000000000E+00 -0.77720269326E+03  0.77720269326E+03  0.00000000000E+00 0. -1.
         23    2    1    2    0    0 -0.31982908481E+03 -0.37439723354E+03  0.64284348146E+02  0.50683680355E+03  0.10142551967E+03 0.  0.
         11    1    3    3    0    0 -0.24368077122E+03 -0.21326485826E+03  0.28646248462E+02  0.32508895026E+03  0.00000000000E+00 0. -1.
        -11    1    3    3    0    0 -0.76148313597E+02 -0.16113237528E+03  0.35638099684E+02  0.18174785329E+03  0.00000000000E+00 0.  1.
         22    1    1    2    0    0  0.31982908481E+03  0.37439723354E+03 -0.44689049273E+03  0.66496243839E+03  0.00000000000E+00 0. -1.
<mgrwt>
<rscale>  0 0.11075766E+04</rscale>
<asrwt>0</asrwt>
<pdfrwt beam="1">  1        2 0.11956964E+00 0.11075766E+04</pdfrwt>
<pdfrwt beam="2">  1       -2 0.60707162E-01 0.11075766E+04</pdfrwt>
<totfact> 0.89773648E+01</totfact>
</mgrwt>
</event>
<event>
 6    1  0.1762360E-005  0.2810559E+04  0.7818608E-02  0.8299998E-01
          1   -1    0    0  501    0  0.00000000000E+00  0.00000000000E+00  0.18630495427E+04  0.18630495427E+04  0.00000000000E+00 0. -1.
         -1   -1    0    0    0  501 -0.00000000000E+00 -0.00000000000E+00 -0.10599878295E+04  0.10599878295E+04  0.00000000000E+00 0.  1.
         23    2    1    2    0    0 -0.28181535173E+03 -0.74165616471E+03 -0.80353824045E+03  0.11312122775E+04  0.67035466034E+02 0.  0.
         11    1    3    3    0    0 -0.54817006184E+02 -0.17776062055E+03 -0.15286090665E+03  0.24077001301E+03  0.00000000000E+00 0.  1.
        -11    1    3    3    0    0 -0.22699834554E+03 -0.56389554416E+03 -0.65067733380E+03  0.89044226445E+03  0.00000000000E+00 0. -1.
         22    1    1    2    0    0  0.28181535173E+03  0.74165616471E+03  0.16065999536E+04  0.17918250947E+04  0.00000000000E+00 0. -1.
<mgrwt>
<rscale>  0 0.28105586E+04</rscale>
<asrwt>0</asrwt>
<pdfrwt beam="1">  1        1 0.28662301E+00 0.28105586E+04</pdfrwt>
<pdfrwt beam="2">  1       -1 0.16307505E+00 0.28105586E+04</pdfrwt>
<totfact> 0.88448175E-01</totfact>
</mgrwt>
</event>
<event>
 6    1  0.1762360E-005  0.1824419E+04  0.7818608E-02  0.8693421E-01
          1   -1    0    0  501    0  0.00000000000E+00  0.00000000000E+00  0.17182857818E+04  0.17182857818E+04  0.00000000000E+00 0. -1.
         -1   -1    0    0    0  501 -0.00000000000E+00 -0.00000000000E+00 -0.48427678505E+03  0.48427678505E+03  0.00000000000E+00 0.  1.
         23    2    1    2    0    0  0.39630188156E+03  0.22687889206E+03 -0.33013106805E+03  0.57312605218E+03  0.10467920811E+03 0.  0.
         13    1    3    3    0    0  0.18887794720E+03  0.16385933625E+03 -0.15271094543E+03  0.29299384612E+03  0.00000000000E+00 0. -1.
        -13    1    3    3    0    0  0.20742393436E+03  0.63019555815E+02 -0.17742012262E+03  0.28013220606E+03  0.00000000000E+00 0.  1.
         22    1    1    2    0    0 -0.39630188156E+03 -0.22687889206E+03  0.15641400648E+04  0.16294365146E+04  0.00000000000E+00 0. -1.
<mgrwt>
<rscale>  0 0.18244187E+04</rscale>
<asrwt>0</asrwt>
<pdfrwt beam="1">  1        1 0.26435166E+00 0.18244187E+04</pdfrwt>
<pdfrwt beam="2">  1       -1 0.74504121E-01 0.18244187E+04</pdfrwt>
<totfact> 0.79050124E+00</totfact>
</mgrwt>
</event>
<event>
 6    1  0.1762360E-005  0.3937573E+04  0.7818608E-02  0.8017260E-01
          2   -1    0    0  501    0  0.00000000000E+00  0.00000000000E+00  0.17516521517E+04  0.17516521517E+04  0.00000000000E+00 0. -1.
         -2   -1    0    0    0  501 -0.00000000000E+00 -0.00000000000E+00 -0.22128371626E+04  0.22128371626E+04  0.00000000000E+00 0.  1.
         23    2    1    2    0    0  0.13909725453E+04 -0.13651768613E+04  0.42138582786E+02  0.19515692651E+04  0.91293220525E+02 0.  0.
         13    1    3    3    0    0  0.46149090289E+03 -0.40189551693E+03 -0.83992792618E+01  0.61201667287E+03  0.00000000000E+00 0. -1.
        -13    1    3    3    0    0  0.92948164242E+03 -0.96328134432E+03  0.50537862048E+02  0.13395525923E+04  0.00000000000E+00 0.  1.
         22    1    1    2    0    0 -0.13909725453E+04  0.13651768613E+04 -0.50332359371E+03  0.20129200492E+04  0.00000000000E+00 0.  1.
<mgrwt>
<rscale>  0 0.39375734E+04</rscale>
<asrwt>0</asrwt>
<pdfrwt beam="1">  1        2 0.26948495E+00 0.39375734E+04</pdfrwt>
<pdfrwt beam="2">  1       -2 0.34043649E+00 0.39375734E+04</pdfrwt>
<totfact> 0.13001242E-01</totfact>
</mgrwt>
</event>
<event>
 6    1  0.1762360E-005  0.7331082E+03  0.7818608E-02  0.9662230E-01
          1   -1    0    0  501    0  0.00000000000E+00  0.00000000000E+00  0.35463931352E+03  0.35463931352E+03  0.00000000000E+00 0. -1.
         -1   -1    0    0    0  501 -0.00000000000E+00 -0.00000000000E+00 -0.37886920819E+03  0.37886920819E+03  0.00000000000E+00 0.  1.
         23    2    1    2    0    0 -0.15528769087E+03  0.12350093315E+03  0.28977200883E+03  0.36207354378E+03  0.88106109803E+02 0.  0.
         13    1    3    3    0    0 -0.50515601940E+02  0.55318073687E+02  0.18277164034E+03  0.19752819502E+03  0.00000000000E+00 0. -1.
        -13    1    3    3    0    0 -0.10477208893E+03  0.68182859458E+02  0.10700036849E+03  0.16454534876E+03  0.00000000000E+00 0.  1.
         22    1    1    2    0    0  0.15528769087E+03 -0.12350093315E+03 -0.31400190350E+03  0.37143497793E+03  0.00000000000E+00 0.  1.
<mgrwt>
<rscale>  0 0.73310822E+03</rscale>
<asrwt>0</asrwt>
<pdfrwt beam="1">  1        1 0.54559895E-01 0.73310822E+03</pdfrwt>
<pdfrwt beam="2">  1       -1 0.58287570E-01 0.73310822E+03</pdfrwt>
<totfact> 0.21279685E+02</totfact>
</mgrwt>
</event>
<event>
 6    1  0.1762360E-005  0.3492062E+04  0.7818608E-02  0.8115674E-01
         -2   -1    0    0    0  501 -0.00000000000E+00  0.00000000000E+00  0.12577557587E+04  0.12577557587E+04  0.00000000000E+00 0.  1.
          2   -1    0    0  501    0  0.00000000000E+00 -0.00000000000E+00 -0.24238606846E+04  0.24238606846E+04  0.00000000000E+00 0. -1.
         23    2    1    2    0    0 -0.59492919350E+02  0.12851104049E+04  0.65925019438E+03  0.14484640805E+04  0.91592649891E+02 0.  0.
         13    1    3    3    0    0 -0.70188824955E+02  0.57519388140E+03  0.31143144782E+03  0.65784802123E+03  0.00000000000E+00 0.  1.
        -13    1    3    3    0    0  0.10695905605E+02  0.70991652349E+03  0.34781874656E+03  0.79061605927E+03  0.00000000000E+00 0. -1.
         22    1    1    2    0    0  0.59492919350E+02 -0.12851104049E+04 -0.18253551203E+04  0.22331523628E+04  0.00000000000E+00 0. -1.
<mgrwt>
<rscale>  0 0.34920623E+04</rscale>
<asrwt>0</asrwt>
<pdfrwt beam="1">  1        2 0.37290164E+00 0.34920623E+04</pdfrwt>
<pdfrwt beam="2">  1       -2 0.19350089E+00 0.34920623E+04</pdfrwt>
<totfact> 0.46511187E-01</totfact>
</mgrwt>
</event>
<event>
 6    1  0.1762360E-005  0.2683020E+04  0.7818608E-02  0.8340535E-01
         -2   -1    0    0    0  501 -0.00000000000E+00  0.00000000000E+00  0.12475104176E+04  0.12475104176E+04  0.00000000000E+00 0.  1.
          2   -1    0    0  501    0  0.00000000000E+00 -0.00000000000E+00 -0.14425929473E+04  0.14425929473E+04  0.00000000000E+00 0. -1.
         23    2    1    2    0    0  0.21642516233E+03  0.43852734857E+03  0.11523715032E+04  0.12566535203E+04  0.10987220916E+03 0.  0.
         13    1    3    3    0    0  0.72720892406E+02  0.26129355214E+03  0.67879003488E+03  0.73097097072E+03  0.00000000000E+00 0. -1.
        -13    1    3    3    0    0  0.14370426992E+03  0.17723379643E+03  0.47358146831E+03  0.52568254956E+03  0.00000000000E+00 0.  1.
         22    1    1    2    0    0 -0.21642516233E+03 -0.43852734857E+03 -0.13474540328E+04  0.14334498446E+04  0.00000000000E+00 0. -1.
<mgrwt>
<rscale>  0 0.26830205E+04</rscale>
<asrwt>0</asrwt>
<pdfrwt beam="1">  1        2 0.22193738E+00 0.26830205E+04</pdfrwt>
<pdfrwt beam="2">  1       -2 0.19192468E+00 0.26830205E+04</pdfrwt>
<totfact> 0.18088137E+00</totfact>
</mgrwt>
</event>
<event>
 6    1  0.1762360E-005  0.2347154E+04  0.7818608E-02  0.8459557E-01
          1   -1    0    0  501    0  0.00000000000E+00  0.00000000000E+00  0.35072764479E+04  0.35072764479E+04  0.00000000000E+00 0. -1.
         -1   -1    0    0    0  501 -0.00000000000E+00 -0.00000000000E+00 -0.39269313012E+03  0.39269313012E+03  0.00000000000E+00 0.  1.
         23    2    1    2    0    0 -0.11223404887E+04  0.29541004456E+03  0.18288255584E+04  0.21678932856E+04  0.90791561719E+02 0.  0.
         13    1    3    3    0    0 -0.28189350214E+03  0.10612855286E+03  0.52150729979E+03  0.60224337274E+03  0.00000000000E+00 0.  1.
        -13    1    3    3    0    0 -0.84044698657E+03  0.18928149170E+03  0.13073182586E+04  0.15656499128E+04  0.00000000000E+00 0. -1.
         22    1    1    2    0    0  0.11223404887E+04 -0.29541004456E+03  0.12857577595E+04  0.17320762925E+04  0.00000000000E+00 0. -1.
<mgrwt>
<rscale>  0 0.23471543E+04</rscale>
<asrwt>0</asrwt>
<pdfrwt beam="1">  1        1 0.53958097E+00 0.23471543E+04</pdfrwt>
<pdfrwt beam="2">  1       -1 0.60414330E-01 0.23471543E+04</pdfrwt>
<totfact> 0.61791055E-01</totfact>
</mgrwt>
</event>
<event>
 6    1  0.1762360E-005  0.1498057E+04  0.7818608E-02  0.8885746E-01
          2   -1    0    0  501    0  0.00000000000E+00  0.00000000000E+00  0.11276511560E+04  0.11276511560E+04  0.00000000000E+00 0. -1.
         -2   -1    0    0    0  501 -0.00000000000E+00 -0.00000000000E+00 -0.49753293459E+03  0.49753293459E+03  0.00000000000E+00 0.  1.
         23    2    1    2    0    0 -0.60209013666E+03  0.18634783913E+03 -0.11728138433E+03  0.64751123096E+03  0.90982532885E+02 0.  0.
         13    1    3    3    0    0 -0.48797319721E+03  0.18579837250E+03 -0.85999325310E+02  0.52918310666E+03  0.00000000000E+00 0.  1.
        -13    1    3    3    0    0 -0.11411693945E+03  0.54946663121E+00 -0.31282059020E+02  0.11832812429E+03  0.00000000000E+00 0. -1.
         22    1    1    2    0    0  0.60209013666E+03 -0.18634783913E+03  0.74739960573E+03  0.97767285963E+03  0.00000000000E+00 0. -1.
<mgrwt>
<rscale>  0 0.14980569E+04</rscale>
<asrwt>0</asrwt>
<pdfrwt beam="1">  1        2 0.17348479E+00 0.14980569E+04</pdfrwt>
<pdfrwt beam="2">  1       -2 0.76543529E-01 0.14980569E+04</pdfrwt>
<totfact> 0.30899180E+01</totfact>
</mgrwt>
</event>
<event>
 6    1  0.1762360E-005  0.3211369E+04  0.7818608E-02  0.8185821E-01
         -2   -1    0    0    0  501 -0.00000000000E+00  0.00000000000E+00  0.78644104104E+03  0.78644104104E+03  0.00000000000E+00 0.  1.
          2   -1    0    0  501    0  0.00000000000E+00 -0.00000000000E+00 -0.32783429960E+04  0.32783429960E+04  0.00000000000E+00 0. -1.
         23    2    1    2    0    0  0.98194148879E+03 -0.88832954976E+03 -0.23935990750E+04  0.27370032070E+04  0.92366373776E+02 0.  0.
         13    1    3    3    0    0  0.53712962615E+03 -0.51702662342E+03 -0.12646735080E+04  0.14680680660E+04  0.00000000000E+00 0.  1.
        -13    1    3    3    0    0  0.44481186263E+03 -0.37130292634E+03 -0.11289255669E+04  0.12689351409E+04  0.00000000000E+00 0. -1.
         22    1    1    2    0    0 -0.98194148879E+03  0.88832954976E+03 -0.98302879966E+02  0.13277808300E+04  0.00000000000E+00 0.  1.
<mgrwt>
<rscale>  0 0.32113695E+04</rscale>
<asrwt>0</asrwt>
<pdfrwt beam="1">  1        2 0.50436046E+00 0.32113695E+04</pdfrwt>
<pdfrwt beam="2">  1       -2 0.12099093E+00 0.32113695E+04</pdfrwt>
<totfact> 0.50342911E-01</totfact>
</mgrwt>
</event>
<event>
 6    1  0.1762360E-005  0.2109505E+04  0.7818608E-02  0.8557068E-01
          1   -1    0    0  501    0  0.00000000000E+00  0.00000000000E+00  0.20174354933E+04  0.20174354933E+04  0.00000000000E+00 0.  1.
         -1   -1    0    0    0  501 -0.00000000000E+00 -0.00000000000E+00 -0.55144384422E+03  0.55144384422E+03  0.00000000000E+00 0. -1.
         23    2    1    2    0    0 -0.93636729156E+03 -0.48037363452E+03  0.76689250686E+03  0.13054387397E+04  0.92215251893E+02 0.  0.
         11    1    3    3    0    0 -0.41291888385E+03 -0.16184948272E+03  0.31011353400E+03  0.54117248975E+03  0.00000000000E+00 0. -1.
        -11    1    3    3    0    0 -0.52344840771E+03 -0.31852415181E+03  0.45677897287E+03  0.76426624999E+03  0.00000000000E+00 0.  1.
         22    1    1    2    0    0  0.93636729156E+03  0.48037363452E+03  0.69909914217E+03  0.12634405977E+04  0.00000000000E+00 0. -1.
<mgrwt>
<rscale>  0 0.21095046E+04</rscale>
<asrwt>0</asrwt>
<pdfrwt beam="1">  1        1 0.31037469E+00 0.21095046E+04</pdfrwt>
<pdfrwt beam="2">  1       -1 0.84837516E-01 0.21095046E+04</pdfrwt>
<totfact> 0.36629958E+00</totfact>
</mgrwt>
</event>
<event>
 6    1  0.1762360E-005  0.2535910E+04  0.7818608E-02  0.8390303E-01
          1   -1    0    0  501    0  0.00000000000E+00  0.00000000000E+00  0.20862136901E+04  0.20862136901E+04  0.00000000000E+00 0. -1.
         -1   -1    0    0    0  501 -0.00000000000E+00 -0.00000000000E+00 -0.77063522560E+03  0.77063522560E+03  0.00000000000E+00 0.  1.
         23    2    1    2    0    0 -0.12246960268E+04  0.11137388253E+03  0.99897769811E+03  0.15869983162E+04  0.91228912450E+02 0.  0.
         13    1    3    3    0    0 -0.48863979030E+03  0.80245860214E+02  0.43649682167E+03  0.66010432363E+03  0.00000000000E+00 0.  1.
        -13    1    3    3    0    0 -0.73605623654E+03  0.31128022318E+02  0.56248087644E+03  0.92689399258E+03  0.00000000000E+00 0. -1.
         22    1    1    2    0    0  0.12246960268E+04 -0.11137388253E+03  0.31660076643E+03  0.12698505995E+04  0.00000000000E+00 0. -1.
<mgrwt>
<rscale>  0 0.25359099E+04</rscale>
<asrwt>0</asrwt>
<pdfrwt beam="1">  1        1 0.32095595E+00 0.25359099E+04</pdfrwt>
<pdfrwt beam="2">  1       -1 0.11855927E+00 0.25359099E+04</pdfrwt>
<totfact> 0.14703232E+00</totfact>
</mgrwt>
</event>
<event>
 6    1  0.1762360E-005  0.1344802E+04  0.7818608E-02  0.8994772E-01
         -2   -1    0    0    0  501 -0.00000000000E+00  0.00000000000E+00  0.38811893838E+03  0.38811893838E+03  0.00000000000E+00 0.  1.
          2   -1    0    0  501    0  0.00000000000E+00 -0.00000000000E+00 -0.11649083300E+04  0.11649083300E+04  0.00000000000E+00 0. -1.
         23    2    1    2    0    0 -0.13241610083E+03 -0.51912890163E+03 -0.85331728310E+03  0.10118384303E+04  0.92939674829E+02 0.  0.
         13    1    3    3    0    0  0.36777243667E+00 -0.52163451558E+02 -0.44787564299E+02  0.68753813355E+02  0.00000000000E+00 0. -1.
        -13    1    3    3    0    0 -0.13278387327E+03 -0.46696545007E+03 -0.80852971880E+03  0.94308461696E+03  0.00000000000E+00 0.  1.
         22    1    1    2    0    0  0.13241610083E+03  0.51912890163E+03  0.76527891495E+02  0.54118883806E+03  0.00000000000E+00 0.  1.
<mgrwt>
<rscale>  0 0.13448018E+04</rscale>
<asrwt>0</asrwt>
<pdfrwt beam="1">  1        2 0.17921666E+00 0.13448018E+04</pdfrwt>
<pdfrwt beam="2">  1       -2 0.59710607E-01 0.13448018E+04</pdfrwt>
<totfact> 0.50839144E+01</totfact>
</mgrwt>
</event>
<event>
 6    1  0.1762360E-005  0.4262197E+04  0.7818608E-02  0.7953645E-01
         -2   -1    0    0    0  501 -0.00000000000E+00  0.00000000000E+00  0.11257151755E+04  0.11257151755E+04  0.00000000000E+00 0. -1.
          2   -1    0    0  501    0  0.00000000000E+00 -0.00000000000E+00 -0.40343967745E+04  0.40343967745E+04  0.00000000000E+00 0.  1.
         23    2    1    2    0    0 -0.89838300266E+03 -0.25822053611E+03 -0.37723147754E+04  0.38874642659E+04  0.90828352309E+02 0.  0.
         13    1    3    3    0    0 -0.20776839558E+03 -0.20840515462E+02 -0.81845555881E+03  0.84467244245E+03  0.00000000000E+00 0. -1.
        -13    1    3    3    0    0 -0.69061460708E+03 -0.23738002065E+03 -0.29538592165E+04  0.30427918235E+04  0.00000000000E+00 0.  1.
         22    1    1    2    0    0  0.89838300266E+03  0.25822053611E+03  0.86363317634E+03  0.12726476842E+04  0.00000000000E+00 0. -1.
<mgrwt>
<rscale>  0 0.42621974E+04</rscale>
<asrwt>0</asrwt>
<pdfrwt beam="1">  1        2 0.62067643E+00 0.42621974E+04</pdfrwt>
<pdfrwt beam="2">  1       -2 0.17318695E+00 0.42621974E+04</pdfrwt>
<totfact> 0.49917778E-02</totfact>
</mgrwt>
</event>
<event>
 6    1  0.1762360E-005  0.2028665E+04  0.7818608E-02  0.8593335E-01
         -1   -1    0    0    0  501 -0.00000000000E+00  0.00000000000E+00  0.93843483756E+03  0.93843483756E+03  0.00000000000E+00 0.  1.
          1   -1    0    0  501    0  0.00000000000E+00 -0.00000000000E+00 -0.10963686649E+04  0.10963686649E+04  0.00000000000E+00 0. -1.
         23    2    1    2    0    0  0.43031120182E+03 -0.14650304757E+03  0.82805579508E+03  0.94907498719E+03  0.91848016766E+02 0.  0.
         13    1    3    3    0    0  0.36957574548E+03 -0.13566887132E+03  0.76773662869E+03  0.86279302577E+03  0.00000000000E+00 0. -1.
        -13    1    3    3    0    0  0.60735456338E+02 -0.10834176252E+02  0.60319166393E+02  0.86281961417E+02  0.00000000000E+00 0.  1.
         22    1    1    2    0    0 -0.43031120182E+03  0.14650304757E+03 -0.98598962247E+03  0.10857285153E+04  0.00000000000E+00 0. -1.
<mgrwt>
<rscale>  0 0.20286651E+04</rscale>
<asrwt>0</asrwt>
<pdfrwt beam="1">  1        1 0.16867210E+00 0.20286651E+04</pdfrwt>
<pdfrwt beam="2">  1       -1 0.14437459E+00 0.20286651E+04</pdfrwt>
<totfact> 0.45636441E+00</totfact>
</mgrwt>
</event>
<event>
 6    1  0.1762360E-005  0.7991916E+03  0.7818608E-02  0.9561188E-01
         -2   -1    0    0    0  501 -0.00000000000E+00  0.00000000000E+00  0.67504997063E+03  0.67504997063E+03  0.00000000000E+00 0.  1.
          2   -1    0    0  501    0  0.00000000000E+00 -0.00000000000E+00 -0.23654073615E+03  0.23654073615E+03  0.00000000000E+00 0. -1.
         23    2    1    2    0    0 -0.35617880515E+03 -0.52108706852E+02  0.40611937728E+03  0.55016607919E+03  0.90394178575E+02 0.  0.
         13    1    3    3    0    0 -0.10654601188E+03 -0.22217181558E+02  0.66263349550E+02  0.12742247564E+03  0.00000000000E+00 0.  1.
        -13    1    3    3    0    0 -0.24963279328E+03 -0.29891525294E+02  0.33985602773E+03  0.42274360356E+03  0.00000000000E+00 0. -1.
         22    1    1    2    0    0  0.35617880515E+03  0.52108706852E+02  0.32389857196E+02  0.36142462758E+03  0.00000000000E+00 0. -1.
<mgrwt>
<rscale>  0 0.79919163E+03</rscale>
<asrwt>0</asrwt>
<pdfrwt beam="1">  1        2 0.36390883E-01 0.79919163E+03</pdfrwt>
<pdfrwt beam="2">  1       -2 0.10385384E+00 0.79919163E+03</pdfrwt>
<totfact> 0.10884083E+02</totfact>
</mgrwt>
</event>
<event>
 6    1  0.1762360E-005  0.1761257E+04  0.7818608E-02  0.8727178E-01
         -1   -1    0    0    0  501 -0.00000000000E+00  0.00000000000E+00  0.88447323849E+03  0.88447323849E+03  0.00000000000E+00 0.  1.
          1   -1    0    0  501    0  0.00000000000E+00 -0.00000000000E+00 -0.87680054535E+03  0.87680054535E+03  0.00000000000E+00 0. -1.
         23    2    1    2    0    0 -0.29300174223E+03 -0.49712434704E+03 -0.65822597534E+03  0.88013606812E+03  0.91626559678E+02 0.  0.
         13    1    3    3    0    0 -0.16822227006E+03 -0.36750931697E+03 -0.46544697851E+03  0.61644360651E+03  0.00000000000E+00 0. -1.
        -13    1    3    3    0    0 -0.12477947217E+03 -0.12961503006E+03 -0.19277899683E+03  0.26369246161E+03  0.00000000000E+00 0.  1.
         22    1    1    2    0    0  0.29300174223E+03  0.49712434704E+03  0.66589866848E+03  0.88113771572E+03  0.00000000000E+00 0.  1.
<mgrwt>
<rscale>  0 0.17612571E+04</rscale>
<asrwt>0</asrwt>
<pdfrwt beam="1">  1        1 0.13489239E+00 0.17612571E+04</pdfrwt>
<pdfrwt beam="2">  1       -1 0.13607281E+00 0.17612571E+04</pdfrwt>
<totfact> 0.81278055E+00</totfact>
</mgrwt>
</event>
<event>
 6    1  0.1762360E-005  0.1308761E+04  0.7818608E-02  0.9022646E-01
         -2   -1    0    0    0  501 -0.00000000000E+00  0.00000000000E+00  0.32423286897E+03  0.32423286897E+03  0.00000000000E+00 0. -1.
          2   -1    0    0  501    0  0.00000000000E+00 -0.00000000000E+00 -0.13206980020E+04  0.13206980020E+04  0.00000000000E+00 0.  1.
         23    2    1    2    0    0  0.32736545400E+03  0.23095753647E+02 -0.12075970153E+04  0.12547024430E+04  0.91028099271E+02 0.  0.
         13    1    3    3    0    0  0.27745314464E+03 -0.13497981286E+02 -0.10207672924E+04  0.10578886086E+04  0.00000000000E+00 0. -1.
        -13    1    3    3    0    0  0.49912309362E+02  0.36593734933E+02 -0.18682972292E+03  0.19681383445E+03  0.00000000000E+00 0.  1.
         22    1    1    2    0    0 -0.32736545400E+03 -0.23095753647E+02  0.21113188224E+03  0.39022842798E+03  0.00000000000E+00 0. -1.
<mgrwt>
<rscale>  0 0.13087608E+04</rscale>
<asrwt>0</asrwt>
<pdfrwt beam="1">  1        2 0.20318431E+00 0.13087608E+04</pdfrwt>
<pdfrwt beam="2">  1       -2 0.49881980E-01 0.13087608E+04</pdfrwt>
<totfact> 0.59875736E+01</totfact>
</mgrwt>
</event>
<event>
 6    1  0.1762360E-005  0.2805149E+04  0.7818608E-02  0.8301672E-01
          2   -1    0    0  501    0  0.00000000000E+00  0.00000000000E+00  0.13100158276E+04  0.13100158276E+04  0.00000000000E+00 0. -1.
         -2   -1    0    0    0  501 -0.00000000000E+00 -0.00000000000E+00 -0.15016728673E+04  0.15016728673E+04  0.00000000000E+00 0.  1.
         23    2    1    2    0    0 -0.67177351657E+03  0.11574008978E+03  0.11310088408E+04  0.13236966057E+04  0.91193639966E+02 0.  0.
         11    1    3    3    0    0 -0.30483334457E+03  0.35246048012E+02  0.59029956641E+03  0.66529634748E+03  0.00000000000E+00 0. -1.
        -11    1    3    3    0    0 -0.36694017201E+03  0.80494041766E+02  0.54070927437E+03  0.65840025819E+03  0.00000000000E+00 0.  1.
         22    1    1    2    0    0  0.67177351657E+03 -0.11574008978E+03 -0.13226658806E+04  0.14879920892E+04  0.00000000000E+00 0.  1.
<mgrwt>
<rscale>  0 0.28051490E+04</rscale>
<asrwt>0</asrwt>
<pdfrwt beam="1">  1        2 0.20154090E+00 0.28051490E+04</pdfrwt>
<pdfrwt beam="2">  1       -2 0.23102660E+00 0.28051490E+04</pdfrwt>
<totfact> 0.11951542E+00</totfact>
</mgrwt>
</event>
<event>
 6    1  0.1762360E-005  0.2841416E+04  0.7818608E-02  0.8290525E-01
          2   -1    0    0  501    0  0.00000000000E+00  0.00000000000E+00  0.23738640483E+04  0.23738640483E+04  0.00000000000E+00 0. -1.
         -2   -1    0    0    0  501 -0.00000000000E+00 -0.00000000000E+00 -0.85026393045E+03  0.85026393045E+03  0.00000000000E+00 0.  1.
         23    2    1    2    0    0  0.49765398847E+03  0.44294999410E+03  0.21843491440E+04  0.22858031603E+04  0.98238053457E+02 0.  0.
         13    1    3    3    0    0  0.31849263918E+03  0.25849054196E+03  0.14875988411E+04  0.15431154310E+04  0.00000000000E+00 0. -1.
        -13    1    3    3    0    0  0.17916134929E+03  0.18445945215E+03  0.69675030290E+03  0.74268772923E+03  0.00000000000E+00 0.  1.
         22    1    1    2    0    0 -0.49765398847E+03 -0.44294999410E+03 -0.66074902611E+03  0.93832481851E+03  0.00000000000E+00 0.  1.
<mgrwt>
<rscale>  0 0.28414158E+04</rscale>
<asrwt>0</asrwt>
<pdfrwt beam="1">  1        2 0.36520985E+00 0.28414158E+04</pdfrwt>
<pdfrwt beam="2">  1       -2 0.13080984E+00 0.28414158E+04</pdfrwt>
<totfact> 0.15253499E+00</totfact>
</mgrwt>
</event>
<event>
 6    1  0.1762360E-005  0.9844229E+03  0.7818608E-02  0.9325796E-01
          2   -1    0    0  501    0  0.00000000000E+00  0.00000000000E+00  0.81346111396E+03  0.81346111396E+03  0.00000000000E+00 0. -1.
         -2   -1    0    0    0  501 -0.00000000000E+00 -0.00000000000E+00 -0.29782874169E+03  0.29782874169E+03  0.00000000000E+00 0.  1.
         23    2    1    2    0    0  0.38743739919E+03  0.26545079922E+03  0.11076980412E+03  0.49122085611E+03  0.91957136073E+02 0.  0.
         13    1    3    3    0    0  0.45658264901E+02  0.43622963900E+02 -0.14791373576E+02  0.64856956955E+02  0.00000000000E+00 0. -1.
        -13    1    3    3    0    0  0.34177913429E+03  0.22182783532E+03  0.12556117770E+03  0.42636389916E+03  0.00000000000E+00 0.  1.
         22    1    1    2    0    0 -0.38743739919E+03 -0.26545079922E+03  0.40486256816E+03  0.62006899954E+03  0.00000000000E+00 0. -1.
<mgrwt>
<rscale>  0 0.98442288E+03</rscale>
<asrwt>0</asrwt>
<pdfrwt beam="1">  1        2 0.12514786E+00 0.98442288E+03</pdfrwt>
<pdfrwt beam="2">  1       -2 0.45819807E-01 0.98442288E+03</pdfrwt>
<totfact> 0.15197499E+02</totfact>
</mgrwt>
</event>
<event>
 6    1  0.1762360E-005  0.3700790E+04  0.7818608E-02  0.8067787E-01
         -1   -1    0    0    0  501 -0.00000000000E+00  0.00000000000E+00  0.12076298258E+04  0.12076298258E+04  0.00000000000E+00 0.  1.
          1   -1    0    0  501    0  0.00000000000E+00 -0.00000000000E+00 -0.28352742307E+04  0.28352742307E+04  0.00000000000E+00 0. -1.
         23    2    1    2    0    0 -0.99424449319E+02  0.25958812014E+03 -0.28114879176E+04  0.28268626610E+04  0.97041123849E+02 0.  0.
         11    1    3    3    0    0 -0.11240467683E+03  0.16980728476E+03 -0.19740545014E+04  0.19845302971E+04  0.00000000000E+00 0. -1.
        -11    1    3    3    0    0  0.12980227515E+02  0.89780835378E+02 -0.83743341620E+03  0.84233236390E+03  0.00000000000E+00 0.  1.
         22    1    1    2    0    0  0.99424449319E+02 -0.25958812014E+03  0.11838435126E+04  0.12160413955E+04  0.00000000000E+00 0.  1.
<mgrwt>
<rscale>  0 0.37007900E+04</rscale>
<asrwt>0</asrwt>
<pdfrwt beam="1">  1        1 0.43619603E+00 0.37007900E+04</pdfrwt>
<pdfrwt beam="2">  1       -1 0.18578921E+00 0.37007900E+04</pdfrwt>
<totfact> 0.11932317E-01</totfact>
</mgrwt>
</event>
<event>
 6    1  0.1762360E-005  0.2621214E+04  0.7818608E-02  0.8361031E-01
         -2   -1    0    0    0  501 -0.00000000000E+00  0.00000000000E+00  0.35394127736E+04  0.35394127736E+04  0.00000000000E+00 0.  1.
          2   -1    0    0  501    0  0.00000000000E+00 -0.00000000000E+00 -0.48530391950E+03  0.48530391950E+03  0.00000000000E+00 0. -1.
         23    2    1    2    0    0 -0.62440106672E+03  0.59856232684E+03  0.30375160185E+04  0.31595988552E+04  0.91694121015E+02 0.  0.
         13    1    3    3    0    0 -0.13239331109E+03  0.15660578162E+03  0.84351166040E+03  0.86808137918E+03  0.00000000000E+00 0.  1.
        -13    1    3    3    0    0 -0.49200775563E+03  0.44195654522E+03  0.21940043581E+04  0.22915174760E+04  0.00000000000E+00 0. -1.
         22    1    1    2    0    0  0.62440106672E+03 -0.59856232684E+03  0.16592835560E+02  0.86511783788E+03  0.00000000000E+00 0. -1.
<mgrwt>
<rscale>  0 0.26212141E+04</rscale>
<asrwt>0</asrwt>
<pdfrwt beam="1">  1        2 0.74662144E-01 0.26212141E+04</pdfrwt>
<pdfrwt beam="2">  1       -2 0.54452503E+00 0.26212141E+04</pdfrwt>
<totfact> 0.50838783E-02</totfact>
</mgrwt>
</event>
<event>
 6    1  0.1762360E-005  0.3249806E+04  0.7818608E-02  0.8175786E-01
          2   -1    0    0  501    0  0.00000000000E+00  0.00000000000E+00  0.19329334119E+04  0.19329334119E+04  0.00000000000E+00 0. -1.
         -2   -1    0    0    0  501 -0.00000000000E+00 -0.00000000000E+00 -0.13659597627E+04  0.13659597627E+04  0.00000000000E+00 0.  1.
         23    2    1    2    0    0  0.52654956540E+03  0.12063995854E+04 -0.68111250793E+03  0.14849545153E+04  0.92310669073E+02 0.  0.
         13    1    3    3    0    0  0.12778847049E+03  0.39943283846E+03 -0.22223346318E+03  0.47462005624E+03  0.00000000000E+00 0. -1.
        -13    1    3    3    0    0  0.39876109491E+03  0.80696674690E+03 -0.45887904474E+03  0.10103344590E+04  0.00000000000E+00 0.  1.
         22    1    1    2    0    0 -0.52654956540E+03 -0.12063995854E+04  0.12480861571E+04  0.18139386593E+04  0.00000000000E+00 0. -1.
<mgrwt>
<rscale>  0 0.32498057E+04</rscale>
<asrwt>0</asrwt>
<pdfrwt beam="1">  1        2 0.29737437E+00 0.32498057E+04</pdfrwt>
<pdfrwt beam="2">  1       -2 0.21014765E+00 0.32498057E+04</pdfrwt>
<totfact> 0.69766007E-01</totfact>
</mgrwt>
</event>
<event>
 6    1  0.1762360E-005  0.2435048E+04  0.7818608E-02  0.8426498E-01
         -2   -1    0    0    0  501 -0.00000000000E+00  0.00000000000E+00  0.71633370259E+03  0.71633370259E+03  0.00000000000E+00 0.  1.
          2   -1    0    0  501    0  0.00000000000E+00 -0.00000000000E+00 -0.20693769139E+04  0.20693769139E+04  0.00000000000E+00 0. -1.
         23    2    1    2    0    0  0.20150199864E+02  0.81566369901E+03  0.35350782769E+03  0.89414255027E+03  0.93860617496E+02 0.  0.
         13    1    3    3    0    0 -0.30974078359E+02  0.50213683981E+03  0.23234539775E+03  0.55415267146E+03  0.00000000000E+00 0. -1.
        -13    1    3    3    0    0  0.51124278224E+02  0.31352685920E+03  0.12116242994E+03  0.33998987881E+03  0.00000000000E+00 0.  1.
         22    1    1    2    0    0 -0.20150199864E+02 -0.81566369901E+03 -0.17065510390E+04  0.18915680662E+04  0.00000000000E+00 0. -1.
<mgrwt>
<rscale>  0 0.24350478E+04</rscale>
<asrwt>0</asrwt>
<pdfrwt beam="1">  1        2 0.31836567E+00 0.24350478E+04</pdfrwt>
<pdfrwt beam="2">  1       -2 0.11020519E+00 0.24350478E+04</pdfrwt>
<totfact> 0.35842163E+00</totfact>
</mgrwt>
</event>
<event>
 6    1  0.1762360E-005  0.1755575E+04  0.7818608E-02  0.8730287E-01
         -2   -1    0    0    0  501 -0.00000000000E+00  0.00000000000E+00  0.76265953022E+03  0.76265953022E+03  0.00000000000E+00 0.  1.
          2   -1    0    0  501    0  0.00000000000E+00 -0.00000000000E+00 -0.10102952049E+04  0.10102952049E+04  0.00000000000E+00 0. -1.
         23    2    1    2    0    0 -0.87227189666E+03  0.73116506693E+01 -0.19940743218E+03  0.89931997999E+03  0.90007668896E+02 0.  0.
         13    1    3    3    0    0 -0.61731503612E+03  0.13034929752E+02 -0.18194558790E+03  0.64370176338E+03  0.00000000000E+00 0.  1.
        -13    1    3    3    0    0 -0.25495686054E+03 -0.57232790829E+01 -0.17461844277E+02  0.25561821662E+03  0.00000000000E+00 0. -1.
         22    1    1    2    0    0  0.87227189666E+03 -0.73116506693E+01 -0.48228242471E+02  0.87363475510E+03  0.00000000000E+00 0.  1.
<mgrwt>
<rscale>  0 0.17555754E+04</rscale>
<asrwt>0</asrwt>
<pdfrwt beam="1">  1        2 0.15543003E+00 0.17555754E+04</pdfrwt>
<pdfrwt beam="2">  1       -2 0.11733224E+00 0.17555754E+04</pdfrwt>
<totfact> 0.13194851E+01</totfact>
</mgrwt>
</event>
<event>
 6    1  0.1762360E-005  0.1378673E+04  0.7818608E-02  0.8969402E-01
          2   -1    0    0  501    0  0.00000000000E+00  0.00000000000E+00  0.14182629767E+04  0.14182629767E+04  0.00000000000E+00 0. -1.
         -2   -1    0    0    0  501 -0.00000000000E+00 -0.00000000000E+00 -0.33504720975E+03  0.33504720975E+03  0.00000000000E+00 0.  1.
         23    2    1    2    0    0  0.18445151762E+03 -0.90837976390E+02  0.13767465607E+04  0.13949329729E+04  0.90183182483E+02 0.  0.
         11    1    3    3    0    0  0.14061373103E+03 -0.98141452565E+02  0.90533568205E+03  0.92143185492E+03  0.00000000000E+00 0.  1.
        -11    1    3    3    0    0  0.43837786598E+02  0.73034761752E+01  0.47141087860E+03  0.47350111801E+03  0.00000000000E+00 0. -1.
         22    1    1    2    0    0 -0.18445151762E+03  0.90837976390E+02 -0.29353079371E+03  0.35837721351E+03  0.00000000000E+00 0.  1.
<mgrwt>
<rscale>  0 0.13786734E+04</rscale>
<asrwt>0</asrwt>
<pdfrwt beam="1">  1        2 0.21819430E+00 0.13786734E+04</pdfrwt>
<pdfrwt beam="2">  1       -2 0.51545725E-01 0.13786734E+04</pdfrwt>
<totfact> 0.48948230E+01</totfact>
</mgrwt>
</event>
<event>
 6    1  0.1762360E-005  0.2117021E+04  0.7818608E-02  0.8553782E-01
          1   -1    0    0  501    0  0.00000000000E+00  0.00000000000E+00  0.16440445867E+04  0.16440445867E+04  0.00000000000E+00 0. -1.
         -1   -1    0    0    0  501 -0.00000000000E+00 -0.00000000000E+00 -0.68151726809E+03  0.68151726809E+03  0.00000000000E+00 0.  1.
         23    2    1    2    0    0 -0.91718771073E+03  0.63655070275E+02 -0.90070872248E+02  0.92797528643E+03  0.87977869373E+02 0.  0.
         11    1    3    3    0    0 -0.75150722399E+02  0.18453643739E+02  0.12938808838E+02  0.78457509637E+02  0.00000000000E+00 0.  1.
        -11    1    3    3    0    0 -0.84203698834E+03  0.45201426536E+02 -0.10300968109E+03  0.84951777679E+03  0.00000000000E+00 0. -1.
         22    1    1    2    0    0  0.91718771073E+03 -0.63655070275E+02  0.10525981909E+04  0.13975865684E+04  0.00000000000E+00 0. -1.
<mgrwt>
<rscale>  0 0.21170213E+04</rscale>
<asrwt>0</asrwt>
<pdfrwt beam="1">  1        1 0.25292993E+00 0.21170213E+04</pdfrwt>
<pdfrwt beam="2">  1       -1 0.10484881E+00 0.21170213E+04</pdfrwt>
<totfact> 0.40827688E+00</totfact>
</mgrwt>
</event>
<event>
 6    1  0.1762360E-005  0.3781790E+04  0.7818608E-02  0.8050074E-01
         -2   -1    0    0    0  501 -0.00000000000E+00  0.00000000000E+00  0.15453678822E+04  0.15453678822E+04  0.00000000000E+00 0.  1.
          2   -1    0    0  501    0  0.00000000000E+00 -0.00000000000E+00 -0.23136777465E+04  0.23136777465E+04  0.00000000000E+00 0. -1.
         23    2    1    2    0    0  0.17884845661E+04 -0.28315789450E+03 -0.93624461684E+03  0.20405139359E+04  0.91036826683E+02 0.  0.
         13    1    3    3    0    0  0.13462016017E+04 -0.22855505329E+03 -0.66468375068E+03  0.15186509320E+04  0.00000000000E+00 0.  1.
        -13    1    3    3    0    0  0.44228296437E+03 -0.54602841215E+02 -0.27156086616E+03  0.52186300393E+03  0.00000000000E+00 0. -1.
         22    1    1    2    0    0 -0.17884845661E+04  0.28315789450E+03  0.16793475259E+03  0.18185316928E+04  0.00000000000E+00 0.  1.
<mgrwt>
<rscale>  0 0.37817897E+04</rscale>
<asrwt>0</asrwt>
<pdfrwt beam="1">  1        2 0.35595042E+00 0.37817897E+04</pdfrwt>
<pdfrwt beam="2">  1       -2 0.23774891E+00 0.37817897E+04</pdfrwt>
<totfact> 0.27355846E-01</totfact>
</mgrwt>
</event>
<event>
 6    1  0.1762360E-005  0.1003660E+04  0.7818608E-02  0.9304539E-01
          1   -1    0    0  501    0  0.00000000000E+00  0.00000000000E+00  0.29952253248E+04  0.29952253248E+04  0.00000000000E+00 0. -1.
         -1   -1    0    0    0  501 -0.00000000000E+00 -0.00000000000E+00 -0.84078341517E+02  0.84078341517E+02  0.00000000000E+00 0.  1.
         23    2    1    2    0    0  0.13532125247E+03  0.48078681040E+03  0.14788792471E+04  0.15624455099E+04  0.68442279533E+02 0.  0.
         13    1    3    3    0    0  0.34857900203E+02  0.20152766630E+03  0.68620887745E+03  0.71603847452E+03  0.00000000000E+00 0. -1.
        -13    1    3    3    0    0  0.10046335227E+03  0.27925914410E+03  0.79267036961E+03  0.84640703539E+03  0.00000000000E+00 0.  1.
         22    1    1    2    0    0 -0.13532125247E+03 -0.48078681040E+03  0.14322677362E+04  0.15168581564E+04  0.00000000000E+00 0. -1.
<mgrwt>
<rscale>  0 0.10036605E+04</rscale>
<asrwt>0</asrwt>
<pdfrwt beam="1">  1        1 0.46080381E+00 0.10036605E+04</pdfrwt>
<pdfrwt beam="2">  1       -1 0.12935132E-01 0.10036605E+04</pdfrwt>
<totfact> 0.25842416E+01</totfact>
</mgrwt>
</event>
<event>
 6    1  0.1762360E-005  0.1665835E+04  0.7818608E-02  0.8781093E-01
          1   -1    0    0  501    0  0.00000000000E+00  0.00000000000E+00  0.37392810979E+04  0.37392810979E+04  0.00000000000E+00 0. -1.
         -1   -1    0    0    0  501 -0.00000000000E+00 -0.00000000000E+00 -0.18553072008E+03  0.18553072008E+03  0.00000000000E+00 0.  1.
         23    2    1    2    0    0 -0.57446867608E+03 -0.35947380059E+03  0.64799725546E+03  0.94108313038E+03  0.80630900436E+02 0.  0.
         11    1    3    3    0    0 -0.31699758079E+03 -0.23333629494E+03  0.33795284432E+03  0.51879226840E+03  0.00000000000E+00 0.  1.
        -11    1    3    3    0    0 -0.25747109529E+03 -0.12613750565E+03  0.31004441114E+03  0.42229086199E+03  0.00000000000E+00 0. -1.
         22    1    1    2    0    0  0.57446867608E+03  0.35947380059E+03  0.29057531223E+04  0.29837286876E+04  0.00000000000E+00 0. -1.
<mgrwt>
<rscale>  0 0.16658349E+04</rscale>
<asrwt>0</asrwt>
<pdfrwt beam="1">  1        1 0.57527396E+00 0.16658349E+04</pdfrwt>
<pdfrwt beam="2">  1       -1 0.28543190E-01 0.16658349E+04</pdfrwt>
<totfact> 0.17207163E+00</totfact>
</mgrwt>
</event>
<event>
 6    1  0.1762360E-005  0.1838300E+04  0.7818608E-02  0.8686193E-01
          2   -1    0    0  501    0  0.00000000000E+00  0.00000000000E+00  0.17723378794E+04  0.17723378794E+04  0.00000000000E+00 0. -1.
         -2   -1    0    0    0  501 -0.00000000000E+00 -0.00000000000E+00 -0.47667935094E+03  0.47667935094E+03  0.00000000000E+00 0.  1.
         23    2    1    2    0    0 -0.80332083149E+03 -0.29896101565E+03  0.25128007951E+03  0.89793307612E+03  0.91869927814E+02 0.  0.
         13    1    3    3    0    0 -0.34518202546E+03 -0.14178535099E+03  0.63891916985E+02  0.37859727087E+03  0.00000000000E+00 0. -1.
        -13    1    3    3    0    0 -0.45813880603E+03 -0.15717566467E+03  0.18738816252E+03  0.51933580525E+03  0.00000000000E+00 0.  1.
         22    1    1    2    0    0  0.80332083149E+03  0.29896101565E+03  0.10443784490E+04  0.13510841543E+04  0.00000000000E+00 0. -1.
<mgrwt>
<rscale>  0 0.18383002E+04</rscale>
<asrwt>0</asrwt>
<pdfrwt beam="1">  1        2 0.27266736E+00 0.18383002E+04</pdfrwt>
<pdfrwt beam="2">  1       -2 0.73335285E-01 0.18383002E+04</pdfrwt>
<totfact> 0.14118105E+01</totfact>
</mgrwt>
</event>
<event>
 6    1  0.1762360E-005  0.1748815E+04  0.7818608E-02  0.8734003E-01
          1   -1    0    0  501    0  0.00000000000E+00  0.00000000000E+00  0.10238788381E+04  0.10238788381E+04  0.00000000000E+00 0. -1.
         -1   -1    0    0    0  501 -0.00000000000E+00 -0.00000000000E+00 -0.74675649261E+03  0.74675649261E+03  0.00000000000E+00 0.  1.
         23    2    1    2    0    0 -0.64121053566E+02  0.85735597154E+03 -0.89203680496E+01  0.86454968052E+03  0.90530689104E+02 0.  0.
         13    1    3    3    0    0 -0.73500131365E+02  0.41087930718E+03 -0.19391445087E+02  0.41785177099E+03  0.00000000000E+00 0. -1.
        -13    1    3    3    0    0  0.93790777989E+01  0.44647666437E+03  0.10471077038E+02  0.44669790953E+03  0.00000000000E+00 0.  1.
         22    1    1    2    0    0  0.64121053566E+02 -0.85735597154E+03  0.28604271350E+03  0.90608565015E+03  0.00000000000E+00 0. -1.
<mgrwt>
<rscale>  0 0.17488146E+04</rscale>
<asrwt>0</asrwt>
<pdfrwt beam="1">  1        1 0.15751982E+00 0.17488146E+04</pdfrwt>
<pdfrwt beam="2">  1       -1 0.11488561E+00 0.17488146E+04</pdfrwt>
<totfact> 0.94544834E+00</totfact>
</mgrwt>
</event>
<event>
 6    1  0.1762360E-005  0.1545308E+04  0.7818608E-02  0.8854871E-01
         -2   -1    0    0    0  501 -0.00000000000E+00  0.00000000000E+00  0.52299474161E+03  0.52299474161E+03  0.00000000000E+00 0.  1.
          2   -1    0    0  501    0  0.00000000000E+00 -0.00000000000E+00 -0.11414910849E+04  0.11414910849E+04  0.00000000000E+00 0. -1.
         23    2    1    2    0    0 -0.63912749176E+03  0.37913890071E+03 -0.93930793450E+02  0.75487092292E+03  0.93684895051E+02 0.  0.
         11    1    3    3    0    0 -0.13680784096E+03  0.56560564129E+02 -0.50100915978E+02  0.15628686619E+03  0.00000000000E+00 0. -1.
        -11    1    3    3    0    0 -0.50231965080E+03  0.32257833658E+03 -0.43829877472E+02  0.59858405673E+03  0.00000000000E+00 0.  1.
         22    1    1    2    0    0  0.63912749176E+03 -0.37913890071E+03 -0.52456554984E+03  0.90961490359E+03  0.00000000000E+00 0. -1.
<mgrwt>
<rscale>  0 0.15453075E+04</rscale>
<asrwt>0</asrwt>
<pdfrwt beam="1">  1        2 0.17561401E+00 0.15453075E+04</pdfrwt>
<pdfrwt beam="2">  1       -2 0.80460729E-01 0.15453075E+04</pdfrwt>
<totfact> 0.27000273E+01</totfact>
</mgrwt>
</event>
<event>
 6    1  0.1762360E-005  0.3870482E+03  0.7818608E-02  0.1048359E+00
         -1   -1    0    0    0  501 -0.00000000000E+00  0.00000000000E+00  0.14426229262E+03  0.14426229262E+03  0.00000000000E+00 0.  1.
          1   -1    0    0  501    0  0.00000000000E+00 -0.00000000000E+00 -0.25960748554E+03  0.25960748554E+03  0.00000000000E+00 0. -1.
         23    2    1    2    0    0  0.12564043799E+03  0.13210254528E+03 -0.51732579408E+02  0.21078128362E+03  0.92281567085E+02 0.  0.
         11    1    3    3    0    0  0.99030062356E+02  0.77169319720E+02  0.74416659477E+01  0.12576738666E+03  0.00000000000E+00 0. -1.
        -11    1    3    3    0    0  0.26610375635E+02  0.54933225559E+02 -0.59174245356E+02  0.85013896953E+02  0.00000000000E+00 0.  1.
         22    1    1    2    0    0 -0.12564043799E+03 -0.13210254528E+03 -0.63612613516E+02  0.19308849455E+03  0.00000000000E+00 0.  1.
<mgrwt>
<rscale>  0 0.38704817E+03</rscale>
<asrwt>0</asrwt>
<pdfrwt beam="1">  1        1 0.39939613E-01 0.38704817E+03</pdfrwt>
<pdfrwt beam="2">  1       -1 0.22194199E-01 0.38704817E+03</pdfrwt>
<totfact> 0.17963969E+03</totfact>
</mgrwt>
</event>
<event>
 6    1  0.1762360E-005  0.1480719E+04  0.7818608E-02  0.8897377E-01
          2   -1    0    0  501    0  0.00000000000E+00  0.00000000000E+00  0.12602938192E+04  0.12602938192E+04  0.00000000000E+00 0. -1.
         -2   -1    0    0    0  501 -0.00000000000E+00 -0.00000000000E+00 -0.43492409888E+03  0.43492409888E+03  0.00000000000E+00 0.  1.
         23    2    1    2    0    0  0.13832695651E+03  0.70302547607E+03  0.61457842953E+03  0.94834970003E+03  0.91001871410E+02 0.  0.
         11    1    3    3    0    0  0.80234859887E+02  0.55945944410E+03  0.51178224775E+03  0.76246545590E+03  0.00000000000E+00 0. -1.
        -11    1    3    3    0    0  0.58092096624E+02  0.14356603197E+03  0.10279618179E+03  0.18588424413E+03  0.00000000000E+00 0.  1.
         22    1    1    2    0    0 -0.13832695651E+03 -0.70302547607E+03  0.21079129082E+03  0.74686821809E+03  0.00000000000E+00 0.  1.
<mgrwt>
<rscale>  0 0.14807190E+04</rscale>
<asrwt>0</asrwt>
<pdfrwt beam="1">  1        2 0.19389135E+00 0.14807190E+04</pdfrwt>
<pdfrwt beam="2">  1       -2 0.66911400E-01 0.14807190E+04</pdfrwt>
<totfact> 0.34610253E+01</totfact>
</mgrwt>
</event>
<event>
 6    1  0.1762360E-005  0.2176928E+04  0.7818608E-02  0.8528093E-01
          1   -1    0    0  501    0  0.00000000000E+00  0.00000000000E+00  0.13602956781E+04  0.13602956781E+04  0.00000000000E+00 0. -1.
         -1   -1    0    0    0  501 -0.00000000000E+00 -0.00000000000E+00 -0.87095331559E+03  0.87095331559E+03  0.00000000000E+00 0.  1.
         23    2    1    2    0    0  0.91498042979E+03  0.54571127848E+03  0.46415767006E+03  0.11655922689E+04  0.90404692139E+02 0.  0.
         13    1    3    3    0    0  0.39089724138E+03  0.18287207433E+03  0.17632384748E+03  0.46618981979E+03  0.00000000000E+00 0. -1.
        -13    1    3    3    0    0  0.52408318842E+03  0.36283920415E+03  0.28783382258E+03  0.69940244915E+03  0.00000000000E+00 0.  1.
         22    1    1    2    0    0 -0.91498042979E+03 -0.54571127848E+03  0.25184692492E+02  0.10656567248E+04  0.00000000000E+00 0. -1.
<mgrwt>
<rscale>  0 0.21769281E+04</rscale>
<asrwt>0</asrwt>
<pdfrwt beam="1">  1        1 0.20927626E+00 0.21769281E+04</pdfrwt>
<pdfrwt beam="2">  1       -1 0.13399282E+00 0.21769281E+04</pdfrwt>
<totfact> 0.35155371E+00</totfact>
</mgrwt>
</event>
<event>
 6    1  0.1762360E-005  0.2692362E+04  0.7818608E-02  0.8337487E-01
          1   -1    0    0  501    0  0.00000000000E+00  0.00000000000E+00  0.72299423572E+03  0.72299423572E+03  0.00000000000E+00 0.  1.
         -1   -1    0    0    0  501 -0.00000000000E+00 -0.00000000000E+00 -0.25065256533E+04  0.25065256533E+04  0.00000000000E+00 0. -1.
         23    2    1    2    0    0  0.55142348252E+03  0.64073907821E+03 -0.21469682506E+04  0.23093564497E+04  0.95079543506E+02 0.  0.
         11    1    3    3    0    0  0.38437832624E+03  0.50955342913E+03 -0.16148554454E+04  0.17364185855E+04  0.00000000000E+00 0.  1.
        -11    1    3    3    0    0  0.16704515629E+03  0.13118564908E+03 -0.53211280522E+03  0.57293786421E+03  0.00000000000E+00 0. -1.
         22    1    1    2    0    0 -0.55142348252E+03 -0.64073907821E+03  0.36343683298E+03  0.92016343928E+03  0.00000000000E+00 0.  1.
<mgrwt>
<rscale>  0 0.26923622E+04</rscale>
<asrwt>0</asrwt>
<pdfrwt beam="1">  1        1 0.11122988E+00 0.26923622E+04</pdfrwt>
<pdfrwt beam="2">  1       -1 0.38561933E+00 0.26923622E+04</pdfrwt>
<totfact> 0.20300798E-01</totfact>
</mgrwt>
</event>
<event>
 6    1  0.1762360E-005  0.7347568E+03  0.7818608E-02  0.9659573E-01
         -3   -1    0    0    0  501 -0.00000000000E+00  0.00000000000E+00  0.14507982995E+03  0.14507982995E+03  0.00000000000E+00 0.  1.
          3   -1    0    0  501    0  0.00000000000E+00 -0.00000000000E+00 -0.93029406800E+03  0.93029406800E+03  0.00000000000E+00 0. -1.
         23    2    1    2    0    0 -0.14318032856E+03  0.13560672435E+03  0.46116580644E+02  0.22097310189E+03  0.88388814758E+02 0.  0.
         11    1    3    3    0    0 -0.83134045355E+02  0.22999715187E+02  0.31376637251E+01  0.86313969492E+02  0.00000000000E+00 0. -1.
        -11    1    3    3    0    0 -0.60046283205E+02  0.11260700916E+03  0.42978916919E+02  0.13465913240E+03  0.00000000000E+00 0.  1.
         22    1    1    2    0    0  0.14318032856E+03 -0.13560672435E+03 -0.83133081870E+03  0.85440079605E+03  0.00000000000E+00 0. -1.
<mgrwt>
<rscale>  0 0.73475684E+03</rscale>
<asrwt>0</asrwt>
<pdfrwt beam="1">  1        3 0.14312216E+00 0.73475684E+03</pdfrwt>
<pdfrwt beam="2">  1       -3 0.22319974E-01 0.73475684E+03</pdfrwt>
<totfact> 0.18143349E+01</totfact>
</mgrwt>
</event>
<event>
 6    1  0.1762360E-005  0.4259210E+04  0.7818608E-02  0.7954204E-01
         -2   -1    0    0    0  501 -0.00000000000E+00  0.00000000000E+00  0.13724796818E+04  0.13724796818E+04  0.00000000000E+00 0. -1.
          2   -1    0    0  501    0  0.00000000000E+00 -0.00000000000E+00 -0.33043966221E+04  0.33043966221E+04  0.00000000000E+00 0.  1.
         23    2    1    2    0    0 -0.69097821099E+03 -0.19911413394E+04 -0.63974144464E+03  0.22046683368E+04  0.95909529715E+02 0.  0.
         11    1    3    3    0    0 -0.33072773024E+03 -0.81939703631E+03 -0.24931099864E+03  0.91812216437E+03  0.00000000000E+00 0.  1.
        -11    1    3    3    0    0 -0.36025048075E+03 -0.11717443030E+04 -0.39043044599E+03  0.12865461724E+04  0.00000000000E+00 0. -1.
         22    1    1    2    0    0  0.69097821099E+03  0.19911413394E+04 -0.12921754957E+04  0.24722079672E+04  0.00000000000E+00 0. -1.
<mgrwt>
<rscale>  0 0.42592099E+04</rscale>
<asrwt>0</asrwt>
<pdfrwt beam="1">  1        2 0.50836871E+00 0.42592099E+04</pdfrwt>
<pdfrwt beam="2">  1       -2 0.21115072E+00 0.42592099E+04</pdfrwt>
<totfact> 0.96097255E-02</totfact>
</mgrwt>
</event>
<event>
 6    1  0.1762360E-005  0.1936430E+04  0.7818608E-02  0.8636933E-01
          1   -1    0    0  501    0  0.00000000000E+00  0.00000000000E+00  0.20371114685E+04  0.20371114685E+04  0.00000000000E+00 0. -1.
         -1   -1    0    0    0  501 -0.00000000000E+00 -0.00000000000E+00 -0.46018095929E+03  0.46018095929E+03  0.00000000000E+00 0.  1.
         23    2    1    2    0    0  0.86562968227E+03  0.30037452554E+03  0.11845160620E+04  0.15005333291E+04  0.94775356540E+02 0.  0.
         13    1    3    3    0    0  0.74563671553E+03  0.29159032720E+03  0.10186531872E+04  0.12956285526E+04  0.00000000000E+00 0. -1.
        -13    1    3    3    0    0  0.11999296674E+03  0.87841983402E+01  0.16586287484E+03  0.20490477656E+03  0.00000000000E+00 0.  1.
         22    1    1    2    0    0 -0.86562968227E+03 -0.30037452554E+03  0.39241444720E+03  0.99675909867E+03  0.00000000000E+00 0.  1.
<mgrwt>
<rscale>  0 0.19364296E+04</rscale>
<asrwt>0</asrwt>
<pdfrwt beam="1">  1        1 0.31340176E+00 0.19364296E+04</pdfrwt>
<pdfrwt beam="2">  1       -1 0.70797072E-01 0.19364296E+04</pdfrwt>
<totfact> 0.52866701E+00</totfact>
</mgrwt>
</event>
<event>
 6    1  0.1762360E-005  0.1376228E+04  0.7818608E-02  0.8971208E-01
          2   -1    0    0  501    0  0.00000000000E+00  0.00000000000E+00  0.79046518376E+03  0.79046518376E+03  0.00000000000E+00 0.  1.
         -2   -1    0    0    0  501 -0.00000000000E+00 -0.00000000000E+00 -0.59901570537E+03  0.59901570537E+03  0.00000000000E+00 0. -1.
         23    2    1    2    0    0 -0.59748892389E+03 -0.30496575440E+03 -0.44337610071E+02  0.67843048543E+03  0.91131632114E+02 0.  0.
         13    1    3    3    0    0 -0.22572991226E+03 -0.10028629366E+03  0.25593918999E+02  0.24832716862E+03  0.00000000000E+00 0.  1.
        -13    1    3    3    0    0 -0.37175901163E+03 -0.20467946074E+03 -0.69931529069E+02  0.43010331681E+03  0.00000000000E+00 0. -1.
         22    1    1    2    0    0  0.59748892389E+03  0.30496575440E+03  0.23578708846E+03  0.71105040370E+03  0.00000000000E+00 0.  1.
<mgrwt>
<rscale>  0 0.13762283E+04</rscale>
<asrwt>0</asrwt>
<pdfrwt beam="1">  1        2 0.12161003E+00 0.13762283E+04</pdfrwt>
<pdfrwt beam="2">  1       -2 0.92156262E-01 0.13762283E+04</pdfrwt>
<totfact> 0.34148909E+01</totfact>
</mgrwt>
</event>
<event>
 6    1  0.1762360E-005  0.8364410E+03  0.7818608E-02  0.9508718E-01
          1   -1    0    0  501    0  0.00000000000E+00  0.00000000000E+00  0.83629358792E+03  0.83629358792E+03  0.00000000000E+00 0. -1.
         -1   -1    0    0    0  501 -0.00000000000E+00 -0.00000000000E+00 -0.20914709867E+03  0.20914709867E+03  0.00000000000E+00 0.  1.
         23    2    1    2    0    0 -0.15658897452E+03 -0.13977905476E+03  0.76214644592E+03  0.79587450420E+03  0.92145159020E+02 0.  0.
         13    1    3    3    0    0 -0.24406061451E+02 -0.79211102115E+02  0.31242596263E+03  0.32323371832E+03  0.00000000000E+00 0.  1.
        -13    1    3    3    0    0 -0.13218291307E+03 -0.60567952641E+02  0.44972048328E+03  0.47264078588E+03  0.00000000000E+00 0. -1.
         22    1    1    2    0    0  0.15658897452E+03  0.13977905476E+03 -0.13499995667E+03  0.24956618239E+03  0.00000000000E+00 0.  1.
<mgrwt>
<rscale>  0 0.83644098E+03</rscale>
<asrwt>0</asrwt>
<pdfrwt beam="1">  1        1 0.12866055E+00 0.83644098E+03</pdfrwt>
<pdfrwt beam="2">  1       -1 0.32176477E-01 0.83644098E+03</pdfrwt>
<totfact> 0.18709763E+02</totfact>
</mgrwt>
</event>
<event>
 6    1  0.1762360E-005  0.2021853E+04  0.7818608E-02  0.8596471E-01
         -1   -1    0    0    0  501 -0.00000000000E+00  0.00000000000E+00  0.14323594972E+04  0.14323594972E+04  0.00000000000E+00 0.  1.
          1   -1    0    0  501    0  0.00000000000E+00 -0.00000000000E+00 -0.71348881274E+03  0.71348881274E+03  0.00000000000E+00 0. -1.
         23    2    1    2    0    0  0.84104914591E+03 -0.55739233411E+03  0.36009718754E+03  0.10749756275E+04  0.88615659919E+02 0.  0.
         13    1    3    3    0    0  0.42982188695E+03 -0.33201658573E+03  0.17180509985E+03  0.56964801416E+03  0.00000000000E+00 0.  1.
        -13    1    3    3    0    0  0.41122725896E+03 -0.22537574838E+03  0.18829208770E+03  0.50532761330E+03  0.00000000000E+00 0. -1.
         22    1    1    2    0    0 -0.84104914591E+03  0.55739233411E+03  0.35877349688E+03  0.10708726825E+04  0.00000000000E+00 0.  1.
<mgrwt>
<rscale>  0 0.20218531E+04</rscale>
<asrwt>0</asrwt>
<pdfrwt beam="1">  1        1 0.10976751E+00 0.20218531E+04</pdfrwt>
<pdfrwt beam="2">  1       -1 0.22036300E+00 0.20218531E+04</pdfrwt>
<totfact> 0.26808208E+00</totfact>
</mgrwt>
</event>
<event>
 6    1  0.1762360E-005  0.1445065E+04  0.7818608E-02  0.8921829E-01
          1   -1    0    0  501    0  0.00000000000E+00  0.00000000000E+00  0.27249044013E+04  0.27249044013E+04  0.00000000000E+00 0. -1.
         -1   -1    0    0    0  501 -0.00000000000E+00 -0.00000000000E+00 -0.19158585121E+03  0.19158585121E+03  0.00000000000E+00 0.  1.
         23    2    1    2    0    0 -0.26959438692E+03 -0.56609752805E+03  0.55880249338E+03  0.84480948490E+03  0.91078507013E+02 0.  0.
         13    1    3    3    0    0 -0.15471730746E+03 -0.25085826473E+03  0.30476311846E+03  0.42396682958E+03  0.00000000000E+00 0. -1.
        -13    1    3    3    0    0 -0.11487707946E+03 -0.31523926332E+03  0.25403937492E+03  0.42084265532E+03  0.00000000000E+00 0.  1.
         22    1    1    2    0    0  0.26959438692E+03  0.56609752805E+03  0.19745160567E+04  0.20716807676E+04  0.00000000000E+00 0. -1.
<mgrwt>
<rscale>  0 0.14450649E+04</rscale>
<asrwt>0</asrwt>
<pdfrwt beam="1">  1        1 0.41921604E+00 0.14450649E+04</pdfrwt>
<pdfrwt beam="2">  1       -1 0.29474748E-01 0.14450649E+04</pdfrwt>
<totfact> 0.96824765E+00</totfact>
</mgrwt>
</event>
<event>
 6    1  0.1762360E-005  0.3827950E+04  0.7818608E-02  0.8040183E-01
         -1   -1    0    0    0  501 -0.00000000000E+00  0.00000000000E+00  0.11702602969E+04  0.11702602969E+04  0.00000000000E+00 0.  1.
          1   -1    0    0  501    0  0.00000000000E+00 -0.00000000000E+00 -0.31303301938E+04  0.31303301938E+04  0.00000000000E+00 0. -1.
         23    2    1    2    0    0 -0.10419935031E+04 -0.51763208986E+03  0.72531824914E+03  0.13739878638E+04  0.89792239184E+02 0.  0.
         13    1    3    3    0    0 -0.94586427564E+03 -0.46629556558E+03  0.62492155100E+03  0.12258130883E+04  0.00000000000E+00 0. -1.
        -13    1    3    3    0    0 -0.96129227498E+02 -0.51336524283E+02  0.10039669813E+03  0.14817477552E+03  0.00000000000E+00 0.  1.
         22    1    1    2    0    0  0.10419935031E+04  0.51763208986E+03 -0.26853881460E+04  0.29266026269E+04  0.00000000000E+00 0. -1.
<mgrwt>
<rscale>  0 0.38279504E+04</rscale>
<asrwt>0</asrwt>
<pdfrwt beam="1">  1        1 0.48158925E+00 0.38279504E+04</pdfrwt>
<pdfrwt beam="2">  1       -1 0.18004005E+00 0.38279504E+04</pdfrwt>
<totfact> 0.79044690E-02</totfact>
</mgrwt>
</event>
<event>
 6    1  0.1762360E-005  0.4855345E+04  0.7818608E-02  0.7851217E-01
         -2   -1    0    0    0  501 -0.00000000000E+00  0.00000000000E+00  0.15507225676E+04  0.15507225676E+04  0.00000000000E+00 0.  1.
          2   -1    0    0  501    0  0.00000000000E+00 -0.00000000000E+00 -0.38005466443E+04  0.38005466443E+04  0.00000000000E+00 0. -1.
         23    2    1    2    0    0 -0.12020942818E+04  0.15830838896E+04 -0.26598256745E+04  0.33216666464E+04  0.87243493119E+02 0.  0.
         11    1    3    3    0    0 -0.95940023139E+03  0.12065216769E+04 -0.20805542455E+04  0.25893723813E+04  0.00000000000E+00 0.  1.
        -11    1    3    3    0    0 -0.24269405039E+03  0.37656221275E+03 -0.57927142902E+03  0.73229426506E+03  0.00000000000E+00 0. -1.
         22    1    1    2    0    0  0.12020942818E+04 -0.15830838896E+04  0.41000159785E+03  0.20296025656E+04  0.00000000000E+00 0.  1.
<mgrwt>
<rscale>  0 0.48553449E+04</rscale>
<asrwt>0</asrwt>
<pdfrwt beam="1">  1        2 0.58469948E+00 0.48553449E+04</pdfrwt>
<pdfrwt beam="2">  1       -2 0.23857270E+00 0.48553449E+04</pdfrwt>
<totfact> 0.27225105E-02</totfact>
</mgrwt>
</event>
<event>
 6    1  0.1762360E-005  0.7366559E+03  0.7818608E-02  0.9656521E-01
          2   -1    0    0  501    0  0.00000000000E+00  0.00000000000E+00  0.88114268115E+03  0.88114268115E+03  0.00000000000E+00 0. -1.
         -2   -1    0    0    0  501 -0.00000000000E+00 -0.00000000000E+00 -0.15396538412E+03  0.15396538412E+03  0.00000000000E+00 0.  1.
         23    2    1    2    0    0  0.89725108187E+02 -0.96194245579E+01  0.86219412845E+03  0.87271141157E+03  0.10051549323E+03 0.  0.
         11    1    3    3    0    0  0.39350403013E+02 -0.51940533943E+02  0.32215992896E+03  0.32868418446E+03  0.00000000000E+00 0. -1.
        -11    1    3    3    0    0  0.50374705174E+02  0.42321109385E+02  0.54003419949E+03  0.54402722711E+03  0.00000000000E+00 0.  1.
         22    1    1    2    0    0 -0.89725108187E+02  0.96194245579E+01 -0.13501683142E+03  0.16239665370E+03  0.00000000000E+00 0.  1.
<mgrwt>
<rscale>  0 0.73665588E+03</rscale>
<asrwt>0</asrwt>
<pdfrwt beam="1">  1        2 0.13556041E+00 0.73665588E+03</pdfrwt>
<pdfrwt beam="2">  1       -2 0.23686983E-01 0.73665588E+03</pdfrwt>
<totfact> 0.47991327E+02</totfact>
</mgrwt>
</event>
<event>
 6    1  0.1762360E-005  0.2297186E+04  0.7818608E-02  0.8479031E-01
          2   -1    0    0  501    0  0.00000000000E+00  0.00000000000E+00  0.34506527173E+04  0.34506527173E+04  0.00000000000E+00 0. -1.
         -2   -1    0    0    0  501 -0.00000000000E+00 -0.00000000000E+00 -0.38232370830E+03  0.38232370830E+03  0.00000000000E+00 0.  1.
         23    2    1    2    0    0 -0.43341756178E+03  0.51563730189E+03  0.30852086586E+04  0.31591681943E+04  0.89992237060E+02 0.  0.
         13    1    3    3    0    0 -0.24942491173E+02  0.26124912854E+02  0.28602698188E+03  0.28829858359E+03  0.00000000000E+00 0. -1.
        -13    1    3    3    0    0 -0.40847507060E+03  0.48951238904E+03  0.27991816767E+04  0.28708696107E+04  0.00000000000E+00 0.  1.
         22    1    1    2    0    0  0.43341756178E+03 -0.51563730189E+03 -0.16879649641E+02  0.67380823127E+03  0.00000000000E+00 0.  1.
<mgrwt>
<rscale>  0 0.22971864E+04</rscale>
<asrwt>0</asrwt>
<pdfrwt beam="1">  1        2 0.53086963E+00 0.22971864E+04</pdfrwt>
<pdfrwt beam="2">  1       -2 0.58819034E-01 0.22971864E+04</pdfrwt>
<totfact> 0.21605646E+00</totfact>
</mgrwt>
</event>
<event>
 6    1  0.1762360E-005  0.2513308E+04  0.7818608E-02  0.8398260E-01
          1   -1    0    0  501    0  0.00000000000E+00  0.00000000000E+00  0.33887097974E+04  0.33887097974E+04  0.00000000000E+00 0. -1.
         -1   -1    0    0    0  501 -0.00000000000E+00 -0.00000000000E+00 -0.46601194921E+03  0.46601194921E+03  0.00000000000E+00 0.  1.
         23    2    1    2    0    0 -0.13922589608E+03 -0.88589427556E+03  0.28098310510E+04  0.29508791544E+04  0.91349497155E+02 0.  0.
         11    1    3    3    0    0 -0.78572524766E+02 -0.61070263015E+03  0.17962033183E+04  0.18988095494E+04  0.00000000000E+00 0.  1.
        -11    1    3    3    0    0 -0.60653371311E+02 -0.27519164541E+03  0.10136277327E+04  0.10520696050E+04  0.00000000000E+00 0. -1.
         22    1    1    2    0    0  0.13922589608E+03  0.88589427556E+03  0.11286679711E+03  0.90384259222E+03  0.00000000000E+00 0.  1.
<mgrwt>
<rscale>  0 0.25133080E+04</rscale>
<asrwt>0</asrwt>
<pdfrwt beam="1">  1        1 0.52133995E+00 0.25133080E+04</pdfrwt>
<pdfrwt beam="2">  1       -1 0.71694148E-01 0.25133080E+04</pdfrwt>
<totfact> 0.53233107E-01</totfact>
</mgrwt>
</event>
<event>
 6    1  0.1762360E-005  0.1810265E+04  0.7818608E-02  0.8700860E-01
         -2   -1    0    0    0  501 -0.00000000000E+00  0.00000000000E+00  0.14601008321E+04  0.14601008321E+04  0.00000000000E+00 0.  1.
          2   -1    0    0  501    0  0.00000000000E+00 -0.00000000000E+00 -0.56110160386E+03  0.56110160386E+03  0.00000000000E+00 0. -1.
         23    2    1    2    0    0 -0.22871560176E+03  0.89939346260E+02 -0.51924448379E+03  0.58182231271E+03  0.92208769217E+02 0.  0.
         13    1    3    3    0    0 -0.16185222065E+03  0.90489138255E+02 -0.30069842743E+03  0.35327605315E+03  0.00000000000E+00 0.  1.
        -13    1    3    3    0    0 -0.66863381103E+02 -0.54979199503E+00 -0.21854605636E+03  0.22854625955E+03  0.00000000000E+00 0. -1.
         22    1    1    2    0    0  0.22871560176E+03 -0.89939346260E+02  0.14182437121E+04  0.14393801233E+04  0.00000000000E+00 0.  1.
<mgrwt>
<rscale>  0 0.18102651E+04</rscale>
<asrwt>0</asrwt>
<pdfrwt beam="1">  1        2 0.86323324E-01 0.18102651E+04</pdfrwt>
<pdfrwt beam="2">  1       -2 0.22463090E+00 0.18102651E+04</pdfrwt>
<totfact> 0.46825540E+00</totfact>
</mgrwt>
</event>
<event>
 6    1  0.1762360E-005  0.1726387E+04  0.7818608E-02  0.8746456E-01
         -2   -1    0    0    0  501 -0.00000000000E+00  0.00000000000E+00  0.68987752091E+03  0.68987752091E+03  0.00000000000E+00 0.  1.
          2   -1    0    0  501    0  0.00000000000E+00 -0.00000000000E+00 -0.10800511084E+04  0.10800511084E+04  0.00000000000E+00 0. -1.
         23    2    1    2    0    0 -0.12317453366E+03 -0.43340440213E+03 -0.94752002885E+03  0.10532373448E+04  0.92213654014E+02 0.  0.
         11    1    3    3    0    0 -0.11657170156E+03 -0.24749447194E+03 -0.54500882548E+03  0.60981726369E+03  0.00000000000E+00 0.  1.
        -11    1    3    3    0    0 -0.66028320928E+01 -0.18590993019E+03 -0.40251120337E+03  0.44342008116E+03  0.00000000000E+00 0. -1.
         22    1    1    2    0    0  0.12317453366E+03  0.43340440213E+03  0.55734644135E+03  0.71669128446E+03  0.00000000000E+00 0.  1.
<mgrwt>
<rscale>  0 0.17263870E+04</rscale>
<asrwt>0</asrwt>
<pdfrwt beam="1">  1        2 0.16616171E+00 0.17263870E+04</pdfrwt>
<pdfrwt beam="2">  1       -2 0.10613500E+00 0.17263870E+04</pdfrwt>
<totfact> 0.15249870E+01</totfact>
</mgrwt>
</event>
<event>
 6    1  0.1762360E-005  0.2167499E+04  0.7818608E-02  0.8532079E-01
         -2   -1    0    0    0  501 -0.00000000000E+00  0.00000000000E+00  0.60397587072E+03  0.60397587072E+03  0.00000000000E+00 0.  1.
          2   -1    0    0  501    0  0.00000000000E+00 -0.00000000000E+00 -0.19446348979E+04  0.19446348979E+04  0.00000000000E+00 0. -1.
         23    2    1    2    0    0  0.80924525920E+03 -0.36159447600E+02 -0.15145401267E+04  0.17201060722E+04  0.93529188638E+02 0.  0.
         11    1    3    3    0    0  0.29145457086E+03  0.31629892938E+02 -0.55451841616E+03  0.62724547896E+03  0.00000000000E+00 0.  1.
        -11    1    3    3    0    0  0.51779068834E+03 -0.67789340539E+02 -0.96002171055E+03  0.10928605933E+04  0.00000000000E+00 0. -1.
         22    1    1    2    0    0 -0.80924525920E+03  0.36159447600E+02  0.17388109951E+03  0.82850469640E+03  0.00000000000E+00 0.  1.
<mgrwt>
<rscale>  0 0.21674986E+04</rscale>
<asrwt>0</asrwt>
<pdfrwt beam="1">  1        2 0.29917461E+00 0.21674986E+04</pdfrwt>
<pdfrwt beam="2">  1       -2 0.92919363E-01 0.21674986E+04</pdfrwt>
<totfact> 0.64505517E+00</totfact>
</mgrwt>
</event>
<event>
 6    1  0.1762360E-005  0.9964856E+03  0.7818608E-02  0.9312408E-01
         -1   -1    0    0    0  501 -0.00000000000E+00  0.00000000000E+00  0.39001357933E+03  0.39001357933E+03  0.00000000000E+00 0.  1.
          1   -1    0    0  501    0  0.00000000000E+00 -0.00000000000E+00 -0.63650580675E+03  0.63650580675E+03  0.00000000000E+00 0. -1.
         23    2    1    2    0    0 -0.13989611927E+03  0.40121381255E+03  0.13535554593E+03  0.45524784855E+03  0.91575281760E+02 0.  0.
         11    1    3    3    0    0 -0.53688657169E+02  0.97644946181E+02  0.74004715531E+02  0.13376735530E+03  0.00000000000E+00 0. -1.
        -11    1    3    3    0    0 -0.86207462098E+02  0.30356886637E+03  0.61350830403E+02  0.32148049325E+03  0.00000000000E+00 0.  1.
         22    1    1    2    0    0  0.13989611927E+03 -0.40121381255E+03 -0.38184777335E+03  0.57127153752E+03  0.00000000000E+00 0. -1.
<mgrwt>
<rscale>  0 0.99648564E+03</rscale>
<asrwt>0</asrwt>
<pdfrwt beam="1">  1        1 0.97923970E-01 0.99648564E+03</pdfrwt>
<pdfrwt beam="2">  1       -1 0.60002089E-01 0.99648564E+03</pdfrwt>
<totfact> 0.88742852E+01</totfact>
</mgrwt>
</event>
<event>
 6    1  0.1762360E-005  0.2415096E+03  0.7818608E-02  0.1118791E+00
         -2   -1    0    0    0  501 -0.00000000000E+00  0.00000000000E+00  0.12853907197E+03  0.12853907197E+03  0.00000000000E+00 0.  1.
          2   -1    0    0  501    0  0.00000000000E+00 -0.00000000000E+00 -0.11344189536E+03  0.11344189536E+03  0.00000000000E+00 0. -1.
         23    2    1    2    0    0 -0.32156586339E+02  0.90065882866E+02 -0.30220351444E+02  0.13615286307E+03  0.92078353486E+02 0.  0.
         13    1    3    3    0    0  0.11910688757E+02  0.13758588103E+02 -0.43394526701E+02  0.47055798802E+02  0.00000000000E+00 0. -1.
        -13    1    3    3    0    0 -0.44067275096E+02  0.76307294763E+02  0.13174175257E+02  0.89097064273E+02  0.00000000000E+00 0.  1.
         22    1    1    2    0    0  0.32156586339E+02 -0.90065882866E+02  0.45317528051E+02  0.10582810425E+03  0.00000000000E+00 0.  1.
<mgrwt>
<rscale>  0 0.24150955E+03</rscale>
<asrwt>0</asrwt>
<pdfrwt beam="1">  1        2 0.17452599E-01 0.24150955E+03</pdfrwt>
<pdfrwt beam="2">  1       -2 0.19775242E-01 0.24150955E+03</pdfrwt>
<totfact> 0.68678200E+03</totfact>
</mgrwt>
</event>
<event>
 6    1  0.1762360E-005  0.2693314E+04  0.7818608E-02  0.8337178E-01
         -1   -1    0    0    0  501 -0.00000000000E+00  0.00000000000E+00  0.10217031984E+04  0.10217031984E+04  0.00000000000E+00 0.  1.
          1   -1    0    0  501    0  0.00000000000E+00 -0.00000000000E+00 -0.17749622369E+04  0.17749622369E+04  0.00000000000E+00 0. -1.
         23    2    1    2    0    0 -0.66904689039E+03  0.54723137994E+03  0.69305553942E+03  0.11117583806E+04  0.92708097929E+02 0.  0.
         11    1    3    3    0    0 -0.62594411156E+03  0.52613005595E+03  0.62853199193E+03  0.10313444291E+04  0.00000000000E+00 0. -1.
        -11    1    3    3    0    0 -0.43102778830E+02  0.21101323993E+02  0.64523547490E+02  0.80413951512E+02  0.00000000000E+00 0.  1.
         22    1    1    2    0    0  0.66904689039E+03 -0.54723137994E+03 -0.14463145779E+04  0.16849070547E+04  0.00000000000E+00 0. -1.
<mgrwt>
<rscale>  0 0.26933136E+04</rscale>
<asrwt>0</asrwt>
<pdfrwt beam="1">  1        1 0.27307111E+00 0.26933136E+04</pdfrwt>
<pdfrwt beam="2">  1       -1 0.15718511E+00 0.26933136E+04</pdfrwt>
<totfact> 0.11365189E+00</totfact>
</mgrwt>
</event>
<event>
 6    1  0.1762360E-005  0.1106324E+04  0.7818608E-02  0.9199050E-01
         -1   -1    0    0    0  501 -0.00000000000E+00  0.00000000000E+00  0.97786806062E+03  0.97786806062E+03  0.00000000000E+00 0.  1.
          1   -1    0    0  501    0  0.00000000000E+00 -0.00000000000E+00 -0.31291331600E+03  0.31291331600E+03  0.00000000000E+00 0. -1.
         23    2    1    2    0    0 -0.27794522213E+03 -0.44647105994E+03  0.51895657192E+03  0.74497424924E+03  0.95292993563E+02 0.  0.
         13    1    3    3    0    0 -0.18439229932E+03 -0.20787470712E+03  0.25690243282E+03  0.37843265438E+03  0.00000000000E+00 0. -1.
        -13    1    3    3    0    0 -0.93552922804E+02 -0.23859635282E+03  0.26205413910E+03  0.36654159486E+03  0.00000000000E+00 0.  1.
         22    1    1    2    0    0  0.27794522213E+03  0.44647105994E+03  0.14599817270E+03  0.54580712738E+03  0.00000000000E+00 0. -1.
<mgrwt>
<rscale>  0 0.11063235E+04</rscale>
<asrwt>0</asrwt>
<pdfrwt beam="1">  1        1 0.48140511E-01 0.11063235E+04</pdfrwt>
<pdfrwt beam="2">  1       -1 0.15044124E+00 0.11063235E+04</pdfrwt>
<totfact> 0.28610400E+01</totfact>
</mgrwt>
</event>
<event>
 6    1  0.1762360E-005  0.7974610E+03  0.7818608E-02  0.9563699E-01
          2   -1    0    0  501    0  0.00000000000E+00  0.00000000000E+00  0.46292606310E+03  0.46292606310E+03  0.00000000000E+00 0. -1.
         -2   -1    0    0    0  501 -0.00000000000E+00 -0.00000000000E+00 -0.34343716566E+03  0.34343716566E+03  0.00000000000E+00 0.  1.
         23    2    1    2    0    0  0.32403129721E+03 -0.84780663641E+02  0.26894423509E+03  0.43959226419E+03  0.93414745346E+02 0.  0.
         13    1    3    3    0    0  0.17050404319E+03 -0.24986767401E+02  0.19124239512E+03  0.25742886586E+03  0.00000000000E+00 0.  1.
        -13    1    3    3    0    0  0.15352725403E+03 -0.59793896241E+02  0.77701839975E+02  0.18216339833E+03  0.00000000000E+00 0. -1.
         22    1    1    2    0    0 -0.32403129721E+03  0.84780663641E+02 -0.14945533765E+03  0.36677096457E+03  0.00000000000E+00 0.  1.
<mgrwt>
<rscale>  0 0.79746101E+03</rscale>
<asrwt>0</asrwt>
<pdfrwt beam="1">  1        2 0.71219394E-01 0.79746101E+03</pdfrwt>
<pdfrwt beam="2">  1       -2 0.52836487E-01 0.79746101E+03</pdfrwt>
<totfact> 0.22914414E+02</totfact>
</mgrwt>
</event>
<event>
 6    1  0.1762360E-005  0.8088290E+03  0.7818608E-02  0.9547325E-01
          2   -1    0    0  501    0  0.00000000000E+00  0.00000000000E+00  0.94067289184E+03  0.94067289184E+03  0.00000000000E+00 0.  1.
         -2   -1    0    0    0  501 -0.00000000000E+00 -0.00000000000E+00 -0.17386607587E+03  0.17386607587E+03  0.00000000000E+00 0. -1.
         23    2    1    2    0    0  0.33542215764E+03  0.21824142057E+03  0.40733845282E+03  0.57662183134E+03  0.80192142660E+02 0.  0.
         11    1    3    3    0    0  0.89719616432E+02  0.85012378367E+02  0.16853002982E+03  0.20899541861E+03  0.00000000000E+00 0.  1.
        -11    1    3    3    0    0  0.24570254121E+03  0.13322904220E+03  0.23880842300E+03  0.36762641273E+03  0.00000000000E+00 0. -1.
         22    1    1    2    0    0 -0.33542215764E+03 -0.21824142057E+03  0.35946836315E+03  0.53791713636E+03  0.00000000000E+00 0.  1.
<mgrwt>
<rscale>  0 0.80882904E+03</rscale>
<asrwt>0</asrwt>
<pdfrwt beam="1">  1        2 0.14471890E+00 0.80882904E+03</pdfrwt>
<pdfrwt beam="2">  1       -2 0.26748628E-01 0.80882904E+03</pdfrwt>
<totfact> 0.35049071E+02</totfact>
</mgrwt>
</event>
<event>
 6    1  0.1762360E-005  0.5233504E+04  0.7818608E-02  0.7793463E-01
         -2   -1    0    0    0  501 -0.00000000000E+00  0.00000000000E+00  0.25846698380E+04  0.25846698380E+04  0.00000000000E+00 0.  1.
          2   -1    0    0  501    0  0.00000000000E+00 -0.00000000000E+00 -0.26492320937E+04  0.26492320937E+04  0.00000000000E+00 0. -1.
         23    2    1    2    0    0  0.12868166294E+04 -0.46750953540E+03 -0.22615553311E+04  0.26452264447E+04  0.90156668213E+02 0.  0.
         13    1    3    3    0    0  0.10741194472E+04 -0.35394552185E+03 -0.18578879234E+04  0.21750304723E+04  0.00000000000E+00 0. -1.
        -13    1    3    3    0    0  0.21269718221E+03 -0.11356401355E+03 -0.40366740761E+03  0.47019597240E+03  0.00000000000E+00 0.  1.
         22    1    1    2    0    0 -0.12868166294E+04  0.46750953540E+03  0.21969930753E+04  0.25886754869E+04  0.00000000000E+00 0.  1.
<mgrwt>
<rscale>  0 0.52335037E+04</rscale>
<asrwt>0</asrwt>
<pdfrwt beam="1">  1        2 0.40757417E+00 0.52335037E+04</pdfrwt>
<pdfrwt beam="2">  1       -2 0.39764152E+00 0.52335037E+04</pdfrwt>
<totfact> 0.15657425E-02</totfact>
</mgrwt>
</event>
<event>
 6    1  0.1762360E-005  0.1712380E+04  0.7818608E-02  0.8754335E-01
         -2   -1    0    0    0  501 -0.00000000000E+00  0.00000000000E+00  0.63343675168E+03  0.63343675168E+03  0.00000000000E+00 0.  1.
          2   -1    0    0  501    0  0.00000000000E+00 -0.00000000000E+00 -0.11572757042E+04  0.11572757042E+04  0.00000000000E+00 0. -1.
         23    2    1    2    0    0  0.70301016839E+03  0.46919793420E+03 -0.13636383756E+03  0.86092379010E+03  0.90690009688E+02 0.  0.
         11    1    3    3    0    0  0.65159902382E+03  0.40666862004E+03 -0.13561689564E+03  0.77996961271E+03  0.00000000000E+00 0.  1.
        -11    1    3    3    0    0  0.51411144565E+02  0.62529314157E+02 -0.74694191869E+00  0.80954177388E+02  0.00000000000E+00 0. -1.
         22    1    1    2    0    0 -0.70301016839E+03 -0.46919793420E+03 -0.38747511497E+03  0.92978866579E+03  0.00000000000E+00 0. -1.
<mgrwt>
<rscale>  0 0.17123796E+04</rscale>
<asrwt>0</asrwt>
<pdfrwt beam="1">  1        2 0.17804241E+00 0.17123796E+04</pdfrwt>
<pdfrwt beam="2">  1       -2 0.97451810E-01 0.17123796E+04</pdfrwt>
<totfact> 0.16775485E+01</totfact>
</mgrwt>
</event>
<event>
 6    1  0.1805249E-005  0.2310296E+04  0.7818608E-02  0.8473872E-01
         -1   -1    0    0    0  501 -0.00000000000E+00  0.00000000000E+00  0.91820232373E+03  0.91820232373E+03  0.00000000000E+00 0.  1.
          1   -1    0    0  501    0  0.00000000000E+00 -0.00000000000E+00 -0.14532389707E+04  0.14532389707E+04  0.00000000000E+00 0. -1.
         23    2    1    2    0    0  0.11283633462E+04 -0.17433258705E+03 -0.98579957733E+02  0.11491114971E+04  0.84519421961E+02 0.  0.
         11    1    3    3    0    0  0.92446838389E+03 -0.11380093183E+03 -0.64156004778E+02  0.93365327496E+03  0.00000000000E+00 0.  1.
        -11    1    3    3    0    0  0.20389496231E+03 -0.60531655223E+02 -0.34423952955E+02  0.21545822211E+03  0.00000000000E+00 0. -1.
         22    1    1    2    0    0 -0.11283633462E+04  0.17433258705E+03 -0.43645668924E+03  0.12223297974E+04  0.00000000000E+00 0.  1.
<mgrwt>
<rscale>  0 0.23102964E+04</rscale>
<asrwt>0</asrwt>
<pdfrwt beam="1">  1        1 0.22357522E+00 0.23102964E+04</pdfrwt>
<pdfrwt beam="2">  1       -1 0.14126190E+00 0.23102964E+04</pdfrwt>
<totfact> 0.26069195E+00</totfact>
</mgrwt>
</event>
<event>
 6    1  0.1762360E-005  0.4918907E+04  0.7818608E-02  0.7841140E-01
          2   -1    0    0  501    0  0.00000000000E+00  0.00000000000E+00  0.42068768243E+04  0.42068768243E+04  0.00000000000E+00 0. -1.
         -2   -1    0    0    0  501 -0.00000000000E+00 -0.00000000000E+00 -0.14378624671E+04  0.14378624671E+04  0.00000000000E+00 0.  1.
         23    2    1    2    0    0 -0.32470295076E+03  0.17107258537E+04  0.33766970327E+04  0.38004797688E+04  0.97717294494E+02 0.  0.
         13    1    3    3    0    0 -0.92901447623E+02  0.35966834953E+03  0.79136359162E+03  0.87421298021E+03  0.00000000000E+00 0.  1.
        -13    1    3    3    0    0 -0.23180150314E+03  0.13510575041E+04  0.25853334411E+04  0.29262667886E+04  0.00000000000E+00 0. -1.
         22    1    1    2    0    0  0.32470295076E+03 -0.17107258537E+04 -0.60768267552E+03  0.18442595226E+04  0.00000000000E+00 0.  1.
<mgrwt>
<rscale>  0 0.49189065E+04</rscale>
<asrwt>0</asrwt>
<pdfrwt beam="1">  1        2 0.64721181E+00 0.49189065E+04</pdfrwt>
<pdfrwt beam="2">  1       -2 0.22120961E+00 0.49189065E+04</pdfrwt>
<totfact> 0.16216306E-02</totfact>
</mgrwt>
</event>
<event>
 6    1  0.1762360E-005  0.2559687E+04  0.7818608E-02  0.8382025E-01
          2   -1    0    0  501    0  0.00000000000E+00  0.00000000000E+00  0.27345837164E+04  0.27345837164E+04  0.00000000000E+00 0. -1.
         -2   -1    0    0    0  501 -0.00000000000E+00 -0.00000000000E+00 -0.59899415786E+03  0.59899415786E+03  0.00000000000E+00 0.  1.
         23    2    1    2    0    0  0.79720531588E+03  0.25962191887E+03  0.23256644418E+04  0.24738870474E+04  0.91990060162E+02 0.  0.
         13    1    3    3    0    0  0.48143601329E+03  0.11859644032E+03  0.14484093596E+04  0.15309263286E+04  0.00000000000E+00 0. -1.
        -13    1    3    3    0    0  0.31576930259E+03  0.14102547854E+03  0.87725508219E+03  0.94296071885E+03  0.00000000000E+00 0.  1.
         22    1    1    2    0    0 -0.79720531588E+03 -0.25962191887E+03 -0.19007488329E+03  0.85969082680E+03  0.00000000000E+00 0.  1.
<mgrwt>
<rscale>  0 0.25596872E+04</rscale>
<asrwt>0</asrwt>
<pdfrwt beam="1">  1        2 0.42070518E+00 0.25596872E+04</pdfrwt>
<pdfrwt beam="2">  1       -2 0.92152949E-01 0.25596872E+04</pdfrwt>
<totfact> 0.22479769E+00</totfact>
</mgrwt>
</event>
<event>
 6    1  0.1762360E-005  0.2500978E+04  0.7818608E-02  0.8402637E-01
          2   -1    0    0  501    0  0.00000000000E+00  0.00000000000E+00  0.25901324167E+04  0.25901324167E+04  0.00000000000E+00 0. -1.
         -2   -1    0    0    0  501 -0.00000000000E+00 -0.00000000000E+00 -0.60372322056E+03  0.60372322056E+03  0.00000000000E+00 0.  1.
         23    2    1    2    0    0 -0.85265229540E+03 -0.67814767787E+03  0.21795225845E+03  0.11167566626E+04  0.11288067479E+03 0.  0.
         11    1    3    3    0    0 -0.25977846690E+03 -0.26203912187E+03  0.41994345569E+02  0.37136623206E+03  0.00000000000E+00 0. -1.
        -11    1    3    3    0    0 -0.59287382850E+03 -0.41610855600E+03  0.17595791288E+03  0.74539043058E+03  0.00000000000E+00 0.  1.
         22    1    1    2    0    0  0.85265229540E+03  0.67814767787E+03  0.17684569377E+04  0.20770989746E+04  0.00000000000E+00 0. -1.
<mgrwt>
<rscale>  0 0.25009783E+04</rscale>
<asrwt>0</asrwt>
<pdfrwt beam="1">  1        2 0.39848190E+00 0.25009783E+04</pdfrwt>
<pdfrwt beam="2">  1       -2 0.92880497E-01 0.25009783E+04</pdfrwt>
<totfact> 0.27015488E+00</totfact>
</mgrwt>
</event>
<event>
 6    1  0.1762360E-005  0.2910591E+03  0.7818608E-02  0.1089797E+00
         -2   -1    0    0    0  501 -0.00000000000E+00  0.00000000000E+00  0.34094823344E+02  0.34094823344E+02  0.00000000000E+00 0.  1.
          2   -1    0    0  501    0  0.00000000000E+00 -0.00000000000E+00 -0.62117509570E+03  0.62117509570E+03  0.00000000000E+00 0. -1.
         23    2    1    2    0    0  0.41657378757E+01 -0.94158941344E+02 -0.52776886370E+03  0.54390968016E+03  0.91730622342E+02 0.  0.
         13    1    3    3    0    0  0.44248135031E+02 -0.74859961117E+02 -0.35775682754E+03  0.36817368032E+03  0.00000000000E+00 0.  1.
        -13    1    3    3    0    0 -0.40082397155E+02 -0.19298980227E+02 -0.17001203616E+03  0.17573599984E+03  0.00000000000E+00 0. -1.
         22    1    1    2    0    0 -0.41657378757E+01  0.94158941344E+02 -0.59311408656E+02  0.11136023888E+03  0.00000000000E+00 0.  1.
<mgrwt>
<rscale>  0 0.29105914E+03</rscale>
<asrwt>0</asrwt>
<pdfrwt beam="1">  1        2 0.95565401E-01 0.29105914E+03</pdfrwt>
<pdfrwt beam="2">  1       -2 0.52453573E-02 0.29105914E+03</pdfrwt>
<totfact> 0.87969616E+03</totfact>
</mgrwt>
</event>
<event>
 6    1  0.1762360E-005  0.1539441E+04  0.7818608E-02  0.8858641E-01
         -2   -1    0    0    0  501 -0.00000000000E+00  0.00000000000E+00  0.21418687608E+03  0.21418687608E+03  0.00000000000E+00 0.  1.
          2   -1    0    0  501    0  0.00000000000E+00 -0.00000000000E+00 -0.27661342224E+04  0.27661342224E+04  0.00000000000E+00 0. -1.
         23    2    1    2    0    0 -0.34561657048E+03 -0.68289627235E+03 -0.11818751070E+04  0.14109594213E+04  0.90441072763E+02 0.  0.
         13    1    3    3    0    0 -0.21405129241E+02 -0.10023719608E+03 -0.12995125629E+03  0.16550832017E+03  0.00000000000E+00 0.  1.
        -13    1    3    3    0    0 -0.32421144124E+03 -0.58265907627E+03 -0.10519238507E+04  0.12454511012E+04  0.00000000000E+00 0. -1.
         22    1    1    2    0    0  0.34561657048E+03  0.68289627235E+03 -0.13700722393E+04  0.15693616771E+04  0.00000000000E+00 0.  1.
<mgrwt>
<rscale>  0 0.15394410E+04</rscale>
<asrwt>0</asrwt>
<pdfrwt beam="1">  1        2 0.42555912E+00 0.15394410E+04</pdfrwt>
<pdfrwt beam="2">  1       -2 0.32951826E-01 0.15394410E+04</pdfrwt>
<totfact> 0.20157993E+01</totfact>
</mgrwt>
</event>
<event>
 6    1  0.1762360E-005  0.1046919E+04  0.7818608E-02  0.9258531E-01
         -2   -1    0    0    0  501 -0.00000000000E+00  0.00000000000E+00  0.17501094563E+03  0.17501094563E+03  0.00000000000E+00 0. -1.
          2   -1    0    0  501    0  0.00000000000E+00 -0.00000000000E+00 -0.15656719151E+04  0.15656719151E+04  0.00000000000E+00 0.  1.
         23    2    1    2    0    0 -0.38826534351E+03  0.14417409517E+03 -0.17918749460E+03  0.46036878716E+03  0.91077523460E+02 0.  0.
         13    1    3    3    0    0 -0.38392486596E+03  0.13118093313E+03 -0.18447089469E+03  0.44568626960E+03  0.00000000000E+00 0.  1.
        -13    1    3    3    0    0 -0.43404775425E+01  0.12993162043E+02  0.52834000947E+01  0.14682517554E+02  0.00000000000E+00 0. -1.
         22    1    1    2    0    0  0.38826534351E+03 -0.14417409517E+03 -0.12114734749E+04  0.12803140736E+04  0.00000000000E+00 0.  1.
<mgrwt>
<rscale>  0 0.10469188E+04</rscale>
<asrwt>0</asrwt>
<pdfrwt beam="1">  1        2 0.24087260E+00 0.10469188E+04</pdfrwt>
<pdfrwt beam="2">  1       -2 0.26924761E-01 0.10469188E+04</pdfrwt>
<totfact> 0.14536712E+02</totfact>
</mgrwt>
</event>
<event>
 6    1  0.1762360E-005  0.4595273E+04  0.7818608E-02  0.7894166E-01
         -1   -1    0    0    0  501 -0.00000000000E+00  0.00000000000E+00  0.12073382591E+04  0.12073382591E+04  0.00000000000E+00 0.  1.
          1   -1    0    0  501    0  0.00000000000E+00 -0.00000000000E+00 -0.43725387694E+04  0.43725387694E+04  0.00000000000E+00 0. -1.
         23    2    1    2    0    0 -0.50162085542E+01  0.20707021316E+04 -0.27896596564E+04  0.34753905322E+04  0.91136559301E+02 0.  0.
         13    1    3    3    0    0 -0.46509286857E+02  0.81703917068E+03 -0.11034884710E+04  0.13738278370E+04  0.00000000000E+00 0. -1.
        -13    1    3    3    0    0  0.41493078303E+02  0.12536629610E+04 -0.16861711854E+04  0.21015626951E+04  0.00000000000E+00 0.  1.
         22    1    1    2    0    0  0.50162085542E+01 -0.20707021316E+04 -0.37554085389E+03  0.21044864963E+04  0.00000000000E+00 0.  1.
<mgrwt>
<rscale>  0 0.45952729E+04</rscale>
<asrwt>0</asrwt>
<pdfrwt beam="1">  1        1 0.67269826E+00 0.45952729E+04</pdfrwt>
<pdfrwt beam="2">  1       -1 0.18574435E+00 0.45952729E+04</pdfrwt>
<totfact> 0.60713782E-03</totfact>
</mgrwt>
</event>
<event>
 6    1  0.1762360E-005  0.1866928E+04  0.7818608E-02  0.8671496E-01
          2   -1    0    0  501    0  0.00000000000E+00  0.00000000000E+00  0.14087497072E+04  0.14087497072E+04  0.00000000000E+00 0. -1.
         -2   -1    0    0    0  501 -0.00000000000E+00 -0.00000000000E+00 -0.61853099908E+03  0.61853099908E+03  0.00000000000E+00 0.  1.
         23    2    1    2    0    0 -0.57030779633E+03  0.12297390303E+03 -0.39229239874E+03  0.70868066032E+03  0.89226614987E+02 0.  0.
         13    1    3    3    0    0 -0.34843205161E+03  0.36974510808E+02 -0.20586435772E+03  0.40638915194E+03  0.00000000000E+00 0.  1.
        -13    1    3    3    0    0 -0.22187574472E+03  0.85999392222E+02 -0.18642804102E+03  0.30229150837E+03  0.00000000000E+00 0. -1.
         22    1    1    2    0    0  0.57030779633E+03 -0.12297390303E+03  0.11825111069E+04  0.13186000460E+04  0.00000000000E+00 0. -1.
<mgrwt>
<rscale>  0 0.18669283E+04</rscale>
<asrwt>0</asrwt>
<pdfrwt beam="1">  1        2 0.21673072E+00 0.18669283E+04</pdfrwt>
<pdfrwt beam="2">  1       -2 0.95158616E-01 0.18669283E+04</pdfrwt>
<totfact> 0.12471926E+01</totfact>
</mgrwt>
</event>
<event>
 6    1  0.1762360E-005  0.2739772E+04  0.7818608E-02  0.8322214E-01
          2   -1    0    0  501    0  0.00000000000E+00  0.00000000000E+00  0.21671136839E+04  0.21671136839E+04  0.00000000000E+00 0. -1.
         -2   -1    0    0    0  501 -0.00000000000E+00 -0.00000000000E+00 -0.86593888060E+03  0.86593888060E+03  0.00000000000E+00 0.  1.
         23    2    1    2    0    0  0.67642725272E+03  0.48279705937E+03 -0.55139853438E+03  0.10026154686E+04  0.10271614020E+03 0.  0.
         11    1    3    3    0    0  0.19134373242E+03  0.90137600522E+02 -0.16853215006E+03  0.27044462755E+03  0.00000000000E+00 0.  1.
        -11    1    3    3    0    0  0.48508352030E+03  0.39265945885E+03 -0.38286638432E+03  0.73217084108E+03  0.00000000000E+00 0. -1.
         22    1    1    2    0    0 -0.67642725272E+03 -0.48279705937E+03  0.18525733377E+04  0.20304370958E+04  0.00000000000E+00 0. -1.
<mgrwt>
<rscale>  0 0.27397723E+04</rscale>
<asrwt>0</asrwt>
<pdfrwt beam="1">  1        2 0.33340210E+00 0.27397723E+04</pdfrwt>
<pdfrwt beam="2">  1       -2 0.13322137E+00 0.27397723E+04</pdfrwt>
<totfact> 0.19228719E+00</totfact>
</mgrwt>
</event>
<event>
 6    1  0.1762360E-005  0.1789315E+04  0.7818608E-02  0.8712002E-01
         -1   -1    0    0    0  501 -0.00000000000E+00  0.00000000000E+00  0.22535988867E+03  0.22535988867E+03  0.00000000000E+00 0.  1.
          1   -1    0    0  501    0  0.00000000000E+00 -0.00000000000E+00 -0.35517075243E+04  0.35517075243E+04  0.00000000000E+00 0. -1.
         23    2    1    2    0    0  0.60034577630E+03  0.86098634726E+02 -0.30492255420E+04  0.31102655827E+04  0.90263854019E+02 0.  0.
         13    1    3    3    0    0  0.14352245948E+03  0.37582688782E+01 -0.55872453207E+03  0.57687600374E+03  0.00000000000E+00 0. -1.
        -13    1    3    3    0    0  0.45682331682E+03  0.82340365848E+02 -0.24905010099E+04  0.25333895790E+04  0.00000000000E+00 0.  1.
         22    1    1    2    0    0 -0.60034577630E+03 -0.86098634726E+02 -0.27712209367E+03  0.66680183025E+03  0.00000000000E+00 0.  1.
<mgrwt>
<rscale>  0 0.17893154E+04</rscale>
<asrwt>0</asrwt>
<pdfrwt beam="1">  1        1 0.54641649E+00 0.17893154E+04</pdfrwt>
<pdfrwt beam="2">  1       -1 0.34670756E-01 0.17893154E+04</pdfrwt>
<totfact> 0.17071623E+00</totfact>
</mgrwt>
</event>
<event>
 6    1  0.1762360E-005  0.2255035E+04  0.7818608E-02  0.8495864E-01
          3   -1    0    0  501    0  0.00000000000E+00  0.00000000000E+00  0.18636880464E+04  0.18636880464E+04  0.00000000000E+00 0. -1.
         -3   -1    0    0    0  501 -0.00000000000E+00 -0.00000000000E+00 -0.68213995040E+03  0.68213995040E+03  0.00000000000E+00 0.  1.
         23    2    1    2    0    0 -0.29186011806E+03 -0.80426520000E+03  0.14176220086E+04  0.16582719519E+04  0.90492357533E+02 0.  0.
         11    1    3    3    0    0 -0.73038640899E+02 -0.22827170029E+03  0.47664542921E+03  0.53351052230E+03  0.00000000000E+00 0.  1.
        -11    1    3    3    0    0 -0.21882147716E+03 -0.57599349971E+03  0.94097657943E+03  0.11247614296E+04  0.00000000000E+00 0. -1.
         22    1    1    2    0    0  0.29186011806E+03  0.80426520000E+03 -0.23607391268E+03  0.88755604481E+03  0.00000000000E+00 0.  1.
<mgrwt>
<rscale>  0 0.22550353E+04</rscale>
<asrwt>0</asrwt>
<pdfrwt beam="1">  1        3 0.28672124E+00 0.22550353E+04</pdfrwt>
<pdfrwt beam="2">  1       -3 0.10494461E+00 0.22550353E+04</pdfrwt>
<totfact> 0.84870401E-02</totfact>
</mgrwt>
</event>
<event>
 6    1  0.1762360E-005  0.1476799E+04  0.7818608E-02  0.8900030E-01
          1   -1    0    0  501    0  0.00000000000E+00  0.00000000000E+00  0.16356492499E+04  0.16356492499E+04  0.00000000000E+00 0. -1.
         -1   -1    0    0    0  501 -0.00000000000E+00 -0.00000000000E+00 -0.33334382856E+03  0.33334382856E+03  0.00000000000E+00 0.  1.
         23    2    1    2    0    0 -0.35390603752E+03 -0.43720659131E+03  0.21749844341E+02  0.57034313203E+03  0.91755902515E+02 0.  0.
         13    1    3    3    0    0 -0.83460303333E+02 -0.99458131320E+02 -0.33653225930E+02  0.13412711036E+03  0.00000000000E+00 0. -1.
        -13    1    3    3    0    0 -0.27044573419E+03 -0.33774845999E+03  0.55403070270E+02  0.43621602167E+03  0.00000000000E+00 0.  1.
         22    1    1    2    0    0  0.35390603752E+03  0.43720659131E+03  0.12805555770E+04  0.13986499465E+04  0.00000000000E+00 0. -1.
<mgrwt>
<rscale>  0 0.14767987E+04</rscale>
<asrwt>0</asrwt>
<pdfrwt beam="1">  1        1 0.25163834E+00 0.14767987E+04</pdfrwt>
<pdfrwt beam="2">  1       -1 0.51283667E-01 0.14767987E+04</pdfrwt>
<totfact> 0.19547714E+01</totfact>
</mgrwt>
</event>
<event>
 6    1  0.1762360E-005  0.1189850E+04  0.7818608E-02  0.9121787E-01
          2   -1    0    0  501    0  0.00000000000E+00  0.00000000000E+00  0.11205879439E+04  0.11205879439E+04  0.00000000000E+00 0. -1.
         -2   -1    0    0    0  501 -0.00000000000E+00 -0.00000000000E+00 -0.31584836321E+03  0.31584836321E+03  0.00000000000E+00 0.  1.
         23    2    1    2    0    0  0.54282173760E+03  0.23436641398E+03  0.41259192297E+03  0.72695562360E+03  0.93001768641E+02 0.  0.
         11    1    3    3    0    0  0.13188317886E+03  0.17458545592E+02  0.76312177601E+02  0.15336727856E+03  0.00000000000E+00 0. -1.
        -11    1    3    3    0    0  0.41093855874E+03  0.21690786839E+03  0.33627974537E+03  0.57358834505E+03  0.00000000000E+00 0.  1.
         22    1    1    2    0    0 -0.54282173760E+03 -0.23436641398E+03  0.39214765772E+03  0.70948068350E+03  0.00000000000E+00 0. -1.
<mgrwt>
<rscale>  0 0.11898502E+04</rscale>
<asrwt>0</asrwt>
<pdfrwt beam="1">  1        2 0.17239814E+00 0.11898502E+04</pdfrwt>
<pdfrwt beam="2">  1       -2 0.48592057E-01 0.11898502E+04</pdfrwt>
<totfact> 0.83775143E+01</totfact>
</mgrwt>
</event>
<event>
 6    1  0.1762360E-005  0.3249431E+04  0.7818608E-02  0.8175883E-01
          2   -1    0    0  501    0  0.00000000000E+00  0.00000000000E+00  0.17548778161E+04  0.17548778161E+04  0.00000000000E+00 0. -1.
         -2   -1    0    0    0  501 -0.00000000000E+00 -0.00000000000E+00 -0.15042073873E+04  0.15042073873E+04  0.00000000000E+00 0.  1.
         23    2    1    2    0    0  0.98741139910E+03 -0.12781509992E+04  0.29312901809E+03  0.16433952642E+04  0.78562876461E+02 0.  0.
         13    1    3    3    0    0  0.19866732883E+03 -0.28091705311E+03  0.33407474488E+02  0.34568650194E+03  0.00000000000E+00 0. -1.
        -13    1    3    3    0    0  0.78874407027E+03 -0.99723394605E+03  0.25972154360E+03  0.12977087623E+04  0.00000000000E+00 0.  1.
         22    1    1    2    0    0 -0.98741139910E+03  0.12781509992E+04 -0.42458589201E+02  0.16156899392E+04  0.00000000000E+00 0. -1.
<mgrwt>
<rscale>  0 0.32494308E+04</rscale>
<asrwt>0</asrwt>
<pdfrwt beam="1">  1        2 0.26998120E+00 0.32494308E+04</pdfrwt>
<pdfrwt beam="2">  1       -2 0.23141652E+00 0.32494308E+04</pdfrwt>
<totfact> 0.64227179E-01</totfact>
</mgrwt>
</event>
<event>
 6    1  0.1762360E-005  0.3671276E+04  0.7818608E-02  0.8074357E-01
          2   -1    0    0  501    0  0.00000000000E+00  0.00000000000E+00  0.12801992813E+04  0.12801992813E+04  0.00000000000E+00 0. -1.
         -2   -1    0    0    0  501 -0.00000000000E+00 -0.00000000000E+00 -0.26320649177E+04  0.26320649177E+04  0.00000000000E+00 0.  1.
         23    2    1    2    0    0 -0.35932912192E+02  0.15283563011E+04  0.40401369972E+03  0.15841154924E+04  0.95029817645E+02 0.  0.
         11    1    3    3    0    0  0.20356117524E+02  0.10245017531E+04  0.26514465306E+03  0.10584516525E+04  0.00000000000E+00 0. -1.
        -11    1    3    3    0    0 -0.56289029716E+02  0.50385454804E+03  0.13886904666E+03  0.52566383989E+03  0.00000000000E+00 0.  1.
         22    1    1    2    0    0  0.35932912192E+02 -0.15283563011E+04 -0.17558793361E+04  0.23281487066E+04  0.00000000000E+00 0.  1.
<mgrwt>
<rscale>  0 0.36712764E+04</rscale>
<asrwt>0</asrwt>
<pdfrwt beam="1">  1        2 0.19695374E+00 0.36712764E+04</pdfrwt>
<pdfrwt beam="2">  1       -2 0.40493306E+00 0.36712764E+04</pdfrwt>
<totfact> 0.94716024E-02</totfact>
</mgrwt>
</event>
<event>
 6    1  0.1762360E-005  0.1021495E+04  0.7818608E-02  0.9285279E-01
         -1   -1    0    0    0  501 -0.00000000000E+00  0.00000000000E+00  0.21645583735E+03  0.21645583735E+03  0.00000000000E+00 0.  1.
          1   -1    0    0  501    0  0.00000000000E+00 -0.00000000000E+00 -0.12051560449E+04  0.12051560449E+04  0.00000000000E+00 0. -1.
         23    2    1    2    0    0 -0.25284232384E+00  0.37360137879E+03 -0.21928687533E+02  0.38516351110E+03  0.91060467715E+02 0.  0.
         13    1    3    3    0    0 -0.94885333148E+01  0.50843479378E+02 -0.34258479115E+02  0.62038174143E+02  0.00000000000E+00 0.  1.
        -13    1    3    3    0    0  0.92356909909E+01  0.32275789941E+03  0.12329791583E+02  0.32312533695E+03  0.00000000000E+00 0. -1.
         22    1    1    2    0    0  0.25284232384E+00 -0.37360137879E+03 -0.96677152005E+03  0.10364483712E+04  0.00000000000E+00 0. -1.
<mgrwt>
<rscale>  0 0.10214951E+04</rscale>
<asrwt>0</asrwt>
<pdfrwt beam="1">  1        1 0.18540862E+00 0.10214951E+04</pdfrwt>
<pdfrwt beam="2">  1       -1 0.33300898E-01 0.10214951E+04</pdfrwt>
<totfact> 0.89887075E+01</totfact>
</mgrwt>
</event>
<event>
 6    1  0.1762360E-005  0.1400887E+04  0.7818608E-02  0.8953177E-01
          2   -1    0    0  501    0  0.00000000000E+00  0.00000000000E+00  0.37400018849E+03  0.37400018849E+03  0.00000000000E+00 0. -1.
         -2   -1    0    0    0  501 -0.00000000000E+00 -0.00000000000E+00 -0.13118210194E+04  0.13118210194E+04  0.00000000000E+00 0.  1.
         23    2    1    2    0    0 -0.28713982076E+03  0.27259386677E+03  0.22007785123E+03  0.46210308228E+03  0.91369060304E+02 0.  0.
         13    1    3    3    0    0 -0.60420009456E+02  0.17234908886E+02  0.51694310611E+02  0.81362899263E+02  0.00000000000E+00 0.  1.
        -13    1    3    3    0    0 -0.22671981130E+03  0.25535895789E+03  0.16838354062E+03  0.38074018302E+03  0.00000000000E+00 0. -1.
         22    1    1    2    0    0  0.28713982076E+03 -0.27259386677E+03 -0.11578986822E+04  0.12237181257E+04  0.00000000000E+00 0.  1.
<mgrwt>
<rscale>  0 0.14008873E+04</rscale>
<asrwt>0</asrwt>
<pdfrwt beam="1">  1        2 0.57538490E-01 0.14008873E+04</pdfrwt>
<pdfrwt beam="2">  1       -2 0.20181862E+00 0.14008873E+04</pdfrwt>
<totfact> 0.10792206E+01</totfact>
</mgrwt>
</event>
<event>
 6    1  0.1762360E-005  0.2201888E+04  0.7818608E-02  0.8517643E-01
         -2   -1    0    0    0  501 -0.00000000000E+00  0.00000000000E+00  0.90889183341E+03  0.90889183341E+03  0.00000000000E+00 0.  1.
          2   -1    0    0  501    0  0.00000000000E+00 -0.00000000000E+00 -0.13335775239E+04  0.13335775239E+04  0.00000000000E+00 0. -1.
         23    2    1    2    0    0 -0.94015159946E+03 -0.19430953642E+03 -0.75760397145E+03  0.12263611900E+04  0.91415342685E+02 0.  0.
         11    1    3    3    0    0 -0.84375190582E+03 -0.14612331365E+03 -0.68206707413E+03  0.10947533032E+04  0.00000000000E+00 0.  1.
        -11    1    3    3    0    0 -0.96399693642E+02 -0.48186222770E+02 -0.75536897324E+02  0.13160788676E+03  0.00000000000E+00 0. -1.
         22    1    1    2    0    0  0.94015159946E+03  0.19430953642E+03  0.33291828094E+03  0.10161081673E+04  0.00000000000E+00 0.  1.
<mgrwt>
<rscale>  0 0.22018880E+04</rscale>
<asrwt>0</asrwt>
<pdfrwt beam="1">  1        2 0.20516577E+00 0.22018880E+04</pdfrwt>
<pdfrwt beam="2">  1       -2 0.13982951E+00 0.22018880E+04</pdfrwt>
<totfact> 0.52048338E+00</totfact>
</mgrwt>
</event>
<event>
 6    1  0.1762360E-005  0.1609278E+04  0.7818608E-02  0.8814868E-01
         -2   -1    0    0    0  501 -0.00000000000E+00  0.00000000000E+00  0.53938074954E+03  0.53938074954E+03  0.00000000000E+00 0.  1.
          2   -1    0    0  501    0  0.00000000000E+00 -0.00000000000E+00 -0.12003468305E+04  0.12003468305E+04  0.00000000000E+00 0. -1.
         23    2    1    2    0    0  0.52109711689E+03  0.29961264690E+03 -0.90569476418E+03  0.10907267543E+04  0.89955007389E+02 0.  0.
         13    1    3    3    0    0  0.38096056125E+03  0.26280480182E+03 -0.69723446422E+03  0.83685913461E+03  0.00000000000E+00 0. -1.
        -13    1    3    3    0    0  0.14013655565E+03  0.36807845078E+02 -0.20846029996E+03  0.25386761973E+03  0.00000000000E+00 0.  1.
         22    1    1    2    0    0 -0.52109711689E+03 -0.29961264690E+03  0.24472868319E+03  0.64900082573E+03  0.00000000000E+00 0.  1.
<mgrwt>
<rscale>  0 0.16092781E+04</rscale>
<asrwt>0</asrwt>
<pdfrwt beam="1">  1        2 0.18466874E+00 0.16092781E+04</pdfrwt>
<pdfrwt beam="2">  1       -2 0.82981654E-01 0.16092781E+04</pdfrwt>
<totfact> 0.23089475E+01</totfact>
</mgrwt>
</event>
<event>
 6    1  0.1762360E-005  0.2081800E+04  0.7818608E-02  0.8569303E-01
         -1   -1    0    0    0  501 -0.00000000000E+00  0.00000000000E+00  0.22652484920E+04  0.22652484920E+04  0.00000000000E+00 0.  1.
          1   -1    0    0  501    0  0.00000000000E+00 -0.00000000000E+00 -0.47830177133E+03  0.47830177133E+03  0.00000000000E+00 0. -1.
         23    2    1    2    0    0  0.10214886608E+04  0.18551666813E+03  0.94378979626E+03  0.14061015288E+04  0.92340736663E+02 0.  0.
         13    1    3    3    0    0  0.76155149922E+03  0.12558479813E+03  0.64796126706E+03  0.10077628844E+04  0.00000000000E+00 0.  1.
        -13    1    3    3    0    0  0.25993716154E+03  0.59931870000E+02  0.29582852920E+03  0.39833864447E+03  0.00000000000E+00 0. -1.
         22    1    1    2    0    0 -0.10214886608E+04 -0.18551666813E+03  0.84315692438E+03  0.13374487345E+04  0.00000000000E+00 0.  1.
<mgrwt>
<rscale>  0 0.20817996E+04</rscale>
<asrwt>0</asrwt>
<pdfrwt beam="1">  1        1 0.73584889E-01 0.20817996E+04</pdfrwt>
<pdfrwt beam="2">  1       -1 0.34849976E+00 0.20817996E+04</pdfrwt>
<totfact> 0.69081917E-01</totfact>
</mgrwt>
</event>
<event>
 6    1  0.1762360E-005  0.3310338E+04  0.7818608E-02  0.8160270E-01
          2   -1    0    0  501    0  0.00000000000E+00  0.00000000000E+00  0.12927206568E+04  0.12927206568E+04  0.00000000000E+00 0. -1.
         -2   -1    0    0    0  501 -0.00000000000E+00 -0.00000000000E+00 -0.21192389894E+04  0.21192389894E+04  0.00000000000E+00 0.  1.
         23    2    1    2    0    0 -0.59290766604E+03 -0.13174408190E+04  0.41633285052E+03  0.15062133684E+04  0.90309781473E+02 0.  0.
         11    1    3    3    0    0 -0.53172091785E+03 -0.11530751316E+04  0.33704279230E+03  0.13137378877E+04  0.00000000000E+00 0. -1.
        -11    1    3    3    0    0 -0.61186748189E+02 -0.16436568735E+03  0.79290058222E+02  0.19247548068E+03  0.00000000000E+00 0.  1.
         22    1    1    2    0    0  0.59290766604E+03  0.13174408190E+04 -0.12428511831E+04  0.19057462778E+04  0.00000000000E+00 0.  1.
<mgrwt>
<rscale>  0 0.33103378E+04</rscale>
<asrwt>0</asrwt>
<pdfrwt beam="1">  1        2 0.19888010E+00 0.33103378E+04</pdfrwt>
<pdfrwt beam="2">  1       -2 0.32603677E+00 0.33103378E+04</pdfrwt>
<totfact> 0.30598398E-01</totfact>
</mgrwt>
</event>
<event>
 6    1  0.1762360E-005  0.1559082E+04  0.7818608E-02  0.8846088E-01
         -1   -1    0    0    0  501 -0.00000000000E+00  0.00000000000E+00  0.40049848140E+03  0.40049848140E+03  0.00000000000E+00 0.  1.
          1   -1    0    0  501    0  0.00000000000E+00 -0.00000000000E+00 -0.15173189541E+04  0.15173189541E+04  0.00000000000E+00 0. -1.
         23    2    1    2    0    0 -0.15106114711E+03 -0.65436657190E+03 -0.10418038568E+04  0.12420640979E+04  0.79704872996E+02 0.  0.
         11    1    3    3    0    0 -0.12830058552E+03 -0.54745349162E+03 -0.81314092870E+03  0.98861748702E+03  0.00000000000E+00 0.  1.
        -11    1    3    3    0    0 -0.22760561586E+02 -0.10691308028E+03 -0.22866292810E+03  0.25344661092E+03  0.00000000000E+00 0. -1.
         22    1    1    2    0    0  0.15106114711E+03  0.65436657190E+03 -0.75016615926E+02  0.67575333758E+03  0.00000000000E+00 0.  1.
<mgrwt>
<rscale>  0 0.15590817E+04</rscale>
<asrwt>0</asrwt>
<pdfrwt beam="1">  1        1 0.23343368E+00 0.15590817E+04</pdfrwt>
<pdfrwt beam="2">  1       -1 0.61615153E-01 0.15590817E+04</pdfrwt>
<totfact> 0.16365912E+01</totfact>
</mgrwt>
</event>
<event>
 6    1  0.1762360E-005  0.3139671E+04  0.7818608E-02  0.8204934E-01
          1   -1    0    0  501    0  0.00000000000E+00  0.00000000000E+00  0.14079469264E+04  0.14079469264E+04  0.00000000000E+00 0. -1.
         -1   -1    0    0    0  501 -0.00000000000E+00 -0.00000000000E+00 -0.17503386979E+04  0.17503386979E+04  0.00000000000E+00 0.  1.
         23    2    1    2    0    0  0.23371973267E+03  0.97023591148E+03 -0.13885538460E+04  0.17124510128E+04  0.91782627531E+02 0.  0.
         13    1    3    3    0    0  0.24099097766E+03  0.90789454792E+03 -0.12955241352E+04  0.16002287169E+04  0.00000000000E+00 0.  1.
        -13    1    3    3    0    0 -0.72712449933E+01  0.62341363567E+02 -0.93029710816E+02  0.11222229596E+03  0.00000000000E+00 0. -1.
         22    1    1    2    0    0 -0.23371973267E+03 -0.97023591148E+03  0.10461620745E+04  0.14458346114E+04  0.00000000000E+00 0. -1.
<mgrwt>
<rscale>  0 0.31396713E+04</rscale>
<asrwt>0</asrwt>
<pdfrwt beam="1">  1        1 0.21660722E+00 0.31396713E+04</pdfrwt>
<pdfrwt beam="2">  1       -1 0.26928287E+00 0.31396713E+04</pdfrwt>
<totfact> 0.33310262E-01</totfact>
</mgrwt>
</event>
<event>
 6    1  0.1762360E-005  0.1185545E+04  0.7818608E-02  0.9125604E-01
          1   -1    0    0  501    0  0.00000000000E+00  0.00000000000E+00  0.92206576716E+03  0.92206576716E+03  0.00000000000E+00 0. -1.
         -1   -1    0    0    0  501 -0.00000000000E+00 -0.00000000000E+00 -0.38107846616E+03  0.38107846616E+03  0.00000000000E+00 0.  1.
         23    2    1    2    0    0 -0.52078798372E+03 -0.13639483176E+03  0.87401475412E+01  0.54610347716E+03  0.91263045475E+02 0.  0.
         11    1    3    3    0    0 -0.30923522840E+03 -0.48352887520E+02  0.37222705946E+02  0.31519828371E+03  0.00000000000E+00 0. -1.
        -11    1    3    3    0    0 -0.21155275532E+03 -0.88041944244E+02 -0.28482558405E+02  0.23090519345E+03  0.00000000000E+00 0.  1.
         22    1    1    2    0    0  0.52078798372E+03  0.13639483176E+03  0.53224715346E+03  0.75704075616E+03  0.00000000000E+00 0. -1.
<mgrwt>
<rscale>  0 0.11855453E+04</rscale>
<asrwt>0</asrwt>
<pdfrwt beam="1">  1        1 0.14185627E+00 0.11855453E+04</pdfrwt>
<pdfrwt beam="2">  1       -1 0.58627457E-01 0.11855453E+04</pdfrwt>
<totfact> 0.50992911E+01</totfact>
</mgrwt>
</event>
<event>
 6    1  0.1927444E-005  0.3550279E+04  0.7818608E-02  0.8101977E-01
         -1   -1    0    0    0  501 -0.00000000000E+00  0.00000000000E+00  0.16662242084E+04  0.16662242084E+04  0.00000000000E+00 0.  1.
          1   -1    0    0  501    0  0.00000000000E+00 -0.00000000000E+00 -0.18911745526E+04  0.18911745526E+04  0.00000000000E+00 0. -1.
         23    2    1    2    0    0  0.93878245089E+03 -0.15040962690E+03 -0.16132426179E+04  0.18747547158E+04  0.90652932805E+02 0.  0.
         11    1    3    3    0    0  0.22762004048E+03 -0.63668291777E+02 -0.45806115537E+03  0.51544597803E+03  0.00000000000E+00 0.  1.
        -11    1    3    3    0    0  0.71116241041E+03 -0.86741335125E+02 -0.11551814625E+04  0.13593087377E+04  0.00000000000E+00 0. -1.
         22    1    1    2    0    0 -0.93878245089E+03  0.15040962690E+03  0.13882922736E+04  0.16826440452E+04  0.00000000000E+00 0.  1.
<mgrwt>
<rscale>  0 0.35502793E+04</rscale>
<asrwt>0</asrwt>
<pdfrwt beam="1">  1        1 0.29094993E+00 0.35502793E+04</pdfrwt>
<pdfrwt beam="2">  1       -1 0.25634219E+00 0.35502793E+04</pdfrwt>
<totfact> 0.18190816E-01</totfact>
</mgrwt>
</event>
<event>
 6    1  0.1762360E-005  0.1476487E+04  0.7818608E-02  0.8900241E-01
          2   -1    0    0  501    0  0.00000000000E+00  0.00000000000E+00  0.73012397498E+03  0.73012397498E+03  0.00000000000E+00 0. -1.
         -2   -1    0    0    0  501 -0.00000000000E+00 -0.00000000000E+00 -0.74645377957E+03  0.74645377957E+03  0.00000000000E+00 0.  1.
         23    2    1    2    0    0 -0.29436965402E+03 -0.60089174455E+03  0.29714801257E+03  0.73766455009E+03  0.90153564547E+02 0.  0.
         11    1    3    3    0    0 -0.91710305560E+02 -0.27397147359E+03  0.15279550756E+03  0.32682964311E+03  0.00000000000E+00 0. -1.
        -11    1    3    3    0    0 -0.20265934846E+03 -0.32692027096E+03  0.14435250501E+03  0.41083490697E+03  0.00000000000E+00 0.  1.
         22    1    1    2    0    0  0.29436965402E+03  0.60089174455E+03 -0.31347781716E+03  0.73891320447E+03  0.00000000000E+00 0.  1.
<mgrwt>
<rscale>  0 0.14764875E+04</rscale>
<asrwt>0</asrwt>
<pdfrwt beam="1">  1        2 0.11232677E+00 0.14764875E+04</pdfrwt>
<pdfrwt beam="2">  1       -2 0.11483904E+00 0.14764875E+04</pdfrwt>
<totfact> 0.22233807E+01</totfact>
</mgrwt>
</event>
<event>
 6    1  0.1762360E-005  0.2860608E+04  0.7818608E-02  0.8284695E-01
          1   -1    0    0  501    0  0.00000000000E+00  0.00000000000E+00  0.29324993095E+04  0.29324993095E+04  0.00000000000E+00 0. -1.
         -1   -1    0    0    0  501 -0.00000000000E+00 -0.00000000000E+00 -0.69761983751E+03  0.69761983751E+03  0.00000000000E+00 0.  1.
         23    2    1    2    0    0  0.76942228895E+03  0.10413149682E+04  0.18854725994E+04  0.22890625918E+04  0.91940764027E+02 0.  0.
         13    1    3    3    0    0  0.52542364557E+03  0.63666786627E+03  0.11993050592E+04  0.14559356457E+04  0.00000000000E+00 0. -1.
        -13    1    3    3    0    0  0.24399864338E+03  0.40464710192E+03  0.68616754021E+03  0.83312694609E+03  0.00000000000E+00 0.  1.
         22    1    1    2    0    0 -0.76942228895E+03 -0.10413149682E+04  0.34940687252E+03  0.13410565552E+04  0.00000000000E+00 0.  1.
<mgrwt>
<rscale>  0 0.28606081E+04</rscale>
<asrwt>0</asrwt>
<pdfrwt beam="1">  1        1 0.45115373E+00 0.28606081E+04</pdfrwt>
<pdfrwt beam="2">  1       -1 0.10732613E+00 0.28606081E+04</pdfrwt>
<totfact> 0.46590227E-01</totfact>
</mgrwt>
</event>
<event>
 6    1  0.1762360E-005  0.7564691E+03  0.7818608E-02  0.9625256E-01
          1   -1    0    0  501    0  0.00000000000E+00  0.00000000000E+00  0.19886991042E+04  0.19886991042E+04  0.00000000000E+00 0. -1.
         -1   -1    0    0    0  501 -0.00000000000E+00 -0.00000000000E+00 -0.71937164590E+02  0.71937164590E+02  0.00000000000E+00 0.  1.
         23    2    1    2    0    0  0.29413369761E+03 -0.20061818454E+03  0.67058530138E+03  0.76459672397E+03  0.90339447918E+02 0.  0.
         13    1    3    3    0    0  0.18541665699E+03 -0.17287168480E+03  0.43066209674E+03  0.49973372676E+03  0.00000000000E+00 0.  1.
        -13    1    3    3    0    0  0.10871704063E+03 -0.27746499745E+02  0.23992320464E+03  0.26486299721E+03  0.00000000000E+00 0. -1.
         22    1    1    2    0    0 -0.29413369761E+03  0.20061818454E+03  0.12461766382E+04  0.12960395448E+04  0.00000000000E+00 0. -1.
<mgrwt>
<rscale>  0 0.75646910E+03</rscale>
<asrwt>0</asrwt>
<pdfrwt beam="1">  1        1 0.30595367E+00 0.75646910E+03</pdfrwt>
<pdfrwt beam="2">  1       -1 0.11067258E-01 0.75646910E+03</pdfrwt>
<totfact> 0.16754147E+02</totfact>
</mgrwt>
</event>
<event>
 6    1  0.1762360E-005  0.1065860E+04  0.7818608E-02  0.9239122E-01
          2   -1    0    0  501    0  0.00000000000E+00  0.00000000000E+00  0.39243019737E+03  0.39243019737E+03  0.00000000000E+00 0. -1.
         -2   -1    0    0    0  501 -0.00000000000E+00 -0.00000000000E+00 -0.72373159943E+03  0.72373159943E+03  0.00000000000E+00 0.  1.
         23    2    1    2    0    0  0.24266197598E+03 -0.32957845642E+02 -0.65869053691E+03  0.70731622719E+03  0.80324141210E+02 0.  0.
         13    1    3    3    0    0  0.19716747726E+03  0.59892022031E+01 -0.48443294912E+03  0.52305464994E+03  0.00000000000E+00 0. -1.
        -13    1    3    3    0    0  0.45494498728E+02 -0.38947047845E+02 -0.17425758778E+03  0.18426157725E+03  0.00000000000E+00 0.  1.
         22    1    1    2    0    0 -0.24266197598E+03  0.32957845642E+02  0.32738913485E+03  0.40884556961E+03  0.00000000000E+00 0. -1.
<mgrwt>
<rscale>  0 0.10658595E+04</rscale>
<asrwt>0</asrwt>
<pdfrwt beam="1">  1        2 0.60373877E-01 0.10658595E+04</pdfrwt>
<pdfrwt beam="2">  1       -2 0.11134332E+00 0.10658595E+04</pdfrwt>
<totfact> 0.51562126E+01</totfact>
</mgrwt>
</event>
<event>
 6    1  0.1762360E-005  0.2074807E+04  0.7818608E-02  0.8572423E-01
          2   -1    0    0  501    0  0.00000000000E+00  0.00000000000E+00  0.18742696005E+04  0.18742696005E+04  0.00000000000E+00 0. -1.
         -2   -1    0    0    0  501 -0.00000000000E+00 -0.00000000000E+00 -0.57420034175E+03  0.57420034175E+03  0.00000000000E+00 0.  1.
         23    2    1    2    0    0  0.66677312841E+03 -0.72964357489E+03  0.10152549658E+04  0.14198371931E+04  0.90713054419E+02 0.  0.
         13    1    3    3    0    0  0.30012399240E+03 -0.38002621034E+03  0.53777078388E+03  0.72366549410E+03  0.00000000000E+00 0. -1.
        -13    1    3    3    0    0  0.36664913600E+03 -0.34961736455E+03  0.47748418190E+03  0.69617169901E+03  0.00000000000E+00 0.  1.
         22    1    1    2    0    0 -0.66677312841E+03  0.72964357489E+03  0.28481429296E+03  0.10286327491E+04  0.00000000000E+00 0.  1.
<mgrwt>
<rscale>  0 0.20748072E+04</rscale>
<asrwt>0</asrwt>
<pdfrwt beam="1">  1        2 0.28834917E+00 0.20748072E+04</pdfrwt>
<pdfrwt beam="2">  1       -2 0.88338515E-01 0.20748072E+04</pdfrwt>
<totfact> 0.79938117E+00</totfact>
</mgrwt>
</event>
<event>
 6    1  0.1762360E-005  0.1630799E+04  0.7818608E-02  0.8801847E-01
         -1   -1    0    0    0  501 -0.00000000000E+00  0.00000000000E+00  0.48582525380E+03  0.48582525380E+03  0.00000000000E+00 0.  1.
          1   -1    0    0  501    0  0.00000000000E+00 -0.00000000000E+00 -0.13685498532E+04  0.13685498532E+04  0.00000000000E+00 0. -1.
         23    2    1    2    0    0 -0.68173324702E+03 -0.10933062795E+03 -0.93060070101E+03  0.11622728549E+04  0.90261388595E+02 0.  0.
         11    1    3    3    0    0 -0.43700818315E+03 -0.45791367966E+02 -0.64975291815E+03  0.78437991826E+03  0.00000000000E+00 0. -1.
        -11    1    3    3    0    0 -0.24472506387E+03 -0.63539259980E+02 -0.28084778286E+03  0.37789293667E+03  0.00000000000E+00 0.  1.
         22    1    1    2    0    0  0.68173324702E+03  0.10933062795E+03  0.47876101561E+02  0.69210225213E+03  0.00000000000E+00 0.  1.
<mgrwt>
<rscale>  0 0.16307987E+04</rscale>
<asrwt>0</asrwt>
<pdfrwt beam="1">  1        1 0.21054613E+00 0.16307987E+04</pdfrwt>
<pdfrwt beam="2">  1       -1 0.74742349E-01 0.16307987E+04</pdfrwt>
<totfact> 0.13935582E+01</totfact>
</mgrwt>
</event>
<event>
 6    1  0.1762360E-005  0.1192685E+04  0.7818608E-02  0.9119284E-01
          2   -1    0    0  501    0  0.00000000000E+00  0.00000000000E+00  0.30297939926E+04  0.30297939926E+04  0.00000000000E+00 0. -1.
         -2   -1    0    0    0  501 -0.00000000000E+00 -0.00000000000E+00 -0.11737569743E+03  0.11737569743E+03  0.00000000000E+00 0.  1.
         23    2    1    2    0    0  0.57608611425E+03 -0.11041854371E+03  0.16914391788E+04  0.17926005820E+04  0.91558097273E+02 0.  0.
         13    1    3    3    0    0  0.22163407240E+03  0.24472428909E+01  0.64161849753E+03  0.67882394434E+03  0.00000000000E+00 0. -1.
        -13    1    3    3    0    0  0.35445204185E+03 -0.11286578660E+03  0.10498206812E+04  0.11137766376E+04  0.00000000000E+00 0.  1.
         22    1    1    2    0    0 -0.57608611425E+03  0.11041854371E+03  0.12209791164E+04  0.13545691081E+04  0.00000000000E+00 0.  1.
<mgrwt>
<rscale>  0 0.11926847E+04</rscale>
<asrwt>0</asrwt>
<pdfrwt beam="1">  1        2 0.46612209E+00 0.11926847E+04</pdfrwt>
<pdfrwt beam="2">  1       -2 0.18057802E-01 0.11926847E+04</pdfrwt>
<totfact> 0.42715804E+01</totfact>
</mgrwt>
</event>
<event>
 6    1  0.1762360E-005  0.2795089E+04  0.7818608E-02  0.8304795E-01
         -1   -1    0    0    0  501 -0.00000000000E+00  0.00000000000E+00  0.17548757173E+04  0.17548757173E+04  0.00000000000E+00 0.  1.
          1   -1    0    0  501    0  0.00000000000E+00 -0.00000000000E+00 -0.11129737924E+04  0.11129737924E+04  0.00000000000E+00 0. -1.
         23    2    1    2    0    0  0.34728019728E+03 -0.12155329167E+04 -0.28653998446E+03  0.12993699318E+04  0.90184532223E+02 0.  0.
         13    1    3    3    0    0  0.31385510823E+03 -0.10292669934E+04 -0.26996821165E+03  0.11094045286E+04  0.00000000000E+00 0. -1.
        -13    1    3    3    0    0  0.33425089045E+02 -0.18626592331E+03 -0.16571772808E+02  0.18996540321E+03  0.00000000000E+00 0.  1.
         22    1    1    2    0    0 -0.34728019728E+03  0.12155329167E+04  0.92844190936E+03  0.15684795778E+04  0.00000000000E+00 0.  1.
<mgrwt>
<rscale>  0 0.27950890E+04</rscale>
<asrwt>0</asrwt>
<pdfrwt beam="1">  1        1 0.17122674E+00 0.27950890E+04</pdfrwt>
<pdfrwt beam="2">  1       -1 0.26998088E+00 0.27950890E+04</pdfrwt>
<totfact> 0.55488333E-01</totfact>
</mgrwt>
</event>
<event>
 6    1  0.1762360E-005  0.2595618E+04  0.7818608E-02  0.8369691E-01
         -2   -1    0    0    0  501 -0.00000000000E+00  0.00000000000E+00  0.50118227265E+03  0.50118227265E+03  0.00000000000E+00 0.  1.
          2   -1    0    0  501    0  0.00000000000E+00 -0.00000000000E+00 -0.33606705291E+04  0.33606705291E+04  0.00000000000E+00 0. -1.
         23    2    1    2    0    0 -0.98237221734E+03 -0.63836994607E+03 -0.22567343693E+04  0.25443234435E+04  0.90334986663E+02 0.  0.
         11    1    3    3    0    0 -0.19912809482E+03 -0.14561947518E+03 -0.55252474970E+03  0.60509555339E+03  0.00000000000E+00 0. -1.
        -11    1    3    3    0    0 -0.78324412252E+03 -0.49275047089E+03 -0.17042096196E+04  0.19392278901E+04  0.00000000000E+00 0.  1.
         22    1    1    2    0    0  0.98237221734E+03  0.63836994607E+03 -0.60275388710E+03  0.13175293583E+04  0.00000000000E+00 0.  1.
<mgrwt>
<rscale>  0 0.25956182E+04</rscale>
<asrwt>0</asrwt>
<pdfrwt beam="1">  1        2 0.51702623E+00 0.25956182E+04</pdfrwt>
<pdfrwt beam="2">  1       -2 0.77104966E-01 0.25956182E+04</pdfrwt>
<totfact> 0.13477121E+00</totfact>
</mgrwt>
</event>
<event>
 6    1  0.1762360E-005  0.1960699E+04  0.7818608E-02  0.8625219E-01
          2   -1    0    0  501    0  0.00000000000E+00  0.00000000000E+00  0.20233035250E+04  0.20233035250E+04  0.00000000000E+00 0. -1.
         -2   -1    0    0    0  501 -0.00000000000E+00 -0.00000000000E+00 -0.47500783484E+03  0.47500783484E+03  0.00000000000E+00 0.  1.
         23    2    1    2    0    0  0.61649556052E+03  0.79444608591E+02 -0.18661254307E+03  0.65541016887E+03  0.91433179176E+02 0.  0.
         13    1    3    3    0    0  0.24799133327E+03 -0.31241046153E+01 -0.44828556887E+02  0.25202988100E+03  0.00000000000E+00 0. -1.
        -13    1    3    3    0    0  0.36850422725E+03  0.82568713206E+02 -0.14178398618E+03  0.40338028787E+03  0.00000000000E+00 0.  1.
         22    1    1    2    0    0 -0.61649556052E+03 -0.79444608591E+02  0.17349082332E+04  0.18429011910E+04  0.00000000000E+00 0. -1.
<mgrwt>
<rscale>  0 0.19606989E+04</rscale>
<asrwt>0</asrwt>
<pdfrwt beam="1">  1        2 0.31127746E+00 0.19606989E+04</pdfrwt>
<pdfrwt beam="2">  1       -2 0.73078130E-01 0.19606989E+04</pdfrwt>
<totfact> 0.10220558E+01</totfact>
</mgrwt>
</event>
<event>
 6    1  0.1762360E-005  0.1618505E+04  0.7818608E-02  0.8809260E-01
         -3   -1    0    0    0  501 -0.00000000000E+00  0.00000000000E+00  0.11190428935E+04  0.11190428935E+04  0.00000000000E+00 0.  1.
          3   -1    0    0  501    0  0.00000000000E+00 -0.00000000000E+00 -0.58522309320E+03  0.58522309320E+03  0.00000000000E+00 0. -1.
         23    2    1    2    0    0 -0.34159985445E+03 -0.21843854181E+03 -0.46662419387E+03  0.62477812545E+03  0.90574337580E+02 0.  0.
         11    1    3    3    0    0 -0.21040738579E+03 -0.17568914917E+03 -0.34664595302E+03  0.44192913671E+03  0.00000000000E+00 0. -1.
        -11    1    3    3    0    0 -0.13119246866E+03 -0.42749392640E+02 -0.11997824085E+03  0.18284898874E+03  0.00000000000E+00 0.  1.
         22    1    1    2    0    0  0.34159985445E+03  0.21843854181E+03  0.10004439942E+04  0.10794878613E+04  0.00000000000E+00 0.  1.
<mgrwt>
<rscale>  0 0.16185052E+04</rscale>
<asrwt>0</asrwt>
<pdfrwt beam="1">  1        3 0.90034322E-01 0.16185052E+04</pdfrwt>
<pdfrwt beam="2">  1       -3 0.17216044E+00 0.16185052E+04</pdfrwt>
<totfact> 0.62449174E-01</totfact>
</mgrwt>
</event>
<event>
 6    1  0.1762360E-005  0.3504396E+04  0.7818608E-02  0.8112749E-01
          2   -1    0    0  501    0  0.00000000000E+00  0.00000000000E+00  0.53710173143E+04  0.53710173143E+04  0.00000000000E+00 0. -1.
         -2   -1    0    0    0  501 -0.00000000000E+00 -0.00000000000E+00 -0.57162322395E+03  0.57162322395E+03  0.00000000000E+00 0.  1.
         23    2    1    2    0    0 -0.29350873647E+03 -0.89400041589E+03 -0.10272280824E+03  0.95103416259E+03  0.92357355389E+02 0.  0.
         11    1    3    3    0    0 -0.13537878916E+03 -0.45742822940E+03 -0.96289417194E+02  0.48666174441E+03  0.00000000000E+00 0. -1.
        -11    1    3    3    0    0 -0.15812994731E+03 -0.43657218649E+03 -0.64333910483E+01  0.46437241818E+03  0.00000000000E+00 0.  1.
         22    1    1    2    0    0  0.29350873647E+03  0.89400041589E+03  0.49021168986E+04  0.49916063757E+04  0.00000000000E+00 0. -1.
<mgrwt>
<rscale>  0 0.35043962E+04</rscale>
<asrwt>0</asrwt>
<pdfrwt beam="1">  1        2 0.82631032E+00 0.35043962E+04</pdfrwt>
<pdfrwt beam="2">  1       -2 0.87942038E-01 0.35043962E+04</pdfrwt>
<totfact> 0.91025840E-03</totfact>
</mgrwt>
</event>
<event>
 6    1  0.1762360E-005  0.2023225E+04  0.7818608E-02  0.8595839E-01
          2   -1    0    0  501    0  0.00000000000E+00  0.00000000000E+00  0.10508316255E+04  0.10508316255E+04  0.00000000000E+00 0. -1.
         -2   -1    0    0    0  501 -0.00000000000E+00 -0.00000000000E+00 -0.97385701110E+03  0.97385701110E+03  0.00000000000E+00 0.  1.
         23    2    1    2    0    0  0.92212242529E+03 -0.52381643005E+02  0.44562703240E+03  0.10302248569E+04  0.98621499328E+02 0.  0.
         13    1    3    3    0    0  0.23962816965E+03  0.28792556938E+02  0.12530923567E+03  0.27194314768E+03  0.00000000000E+00 0. -1.
        -13    1    3    3    0    0  0.68249425563E+03 -0.81174199942E+02  0.32031779673E+03  0.75828170927E+03  0.00000000000E+00 0.  1.
         22    1    1    2    0    0 -0.92212242529E+03  0.52381643005E+02 -0.36865241799E+03  0.99446377965E+03  0.00000000000E+00 0. -1.
<mgrwt>
<rscale>  0 0.20232249E+04</rscale>
<asrwt>0</asrwt>
<pdfrwt beam="1">  1        2 0.16166641E+00 0.20232249E+04</pdfrwt>
<pdfrwt beam="2">  1       -2 0.14982415E+00 0.20232249E+04</pdfrwt>
<totfact> 0.65158934E+00</totfact>
</mgrwt>
</event>
<event>
 6    1  0.1762360E-005  0.1929074E+04  0.7818608E-02  0.8640518E-01
          1   -1    0    0  501    0  0.00000000000E+00  0.00000000000E+00  0.27906905217E+04  0.27906905217E+04  0.00000000000E+00 0. -1.
         -1   -1    0    0    0  501 -0.00000000000E+00 -0.00000000000E+00 -0.33336971317E+03  0.33336971317E+03  0.00000000000E+00 0.  1.
         23    2    1    2    0    0  0.43905317336E+03 -0.67114974791E+03  0.36974669811E+03  0.88772945888E+03  0.90229142937E+02 0.  0.
         13    1    3    3    0    0  0.11501516848E+03 -0.18930311035E+03  0.59410031871E+02  0.22933318220E+03  0.00000000000E+00 0.  1.
        -13    1    3    3    0    0  0.32403800488E+03 -0.48184663756E+03  0.31033666624E+03  0.65839627668E+03  0.00000000000E+00 0. -1.
         22    1    1    2    0    0 -0.43905317336E+03  0.67114974791E+03  0.20875741104E+04  0.22363307760E+04  0.00000000000E+00 0. -1.
<mgrwt>
<rscale>  0 0.19290741E+04</rscale>
<asrwt>0</asrwt>
<pdfrwt beam="1">  1        1 0.42933699E+00 0.19290741E+04</pdfrwt>
<pdfrwt beam="2">  1       -1 0.51287650E-01 0.19290741E+04</pdfrwt>
<totfact> 0.30242176E+00</totfact>
</mgrwt>
</event>
<event>
 6    1  0.1762360E-005  0.3219422E+04  0.7818608E-02  0.8183707E-01
         -2   -1    0    0    0  501 -0.00000000000E+00  0.00000000000E+00  0.22113257191E+04  0.22113257191E+04  0.00000000000E+00 0.  1.
          2   -1    0    0  501    0  0.00000000000E+00 -0.00000000000E+00 -0.11717723230E+04  0.11717723230E+04  0.00000000000E+00 0. -1.
         23    2    1    2    0    0 -0.75483704916E+03  0.13339443056E+04  0.74691127014E+01  0.15352927630E+04  0.88778935440E+02 0.  0.
         11    1    3    3    0    0 -0.32892818775E+03  0.64154100080E+03 -0.29391970101E+02  0.72154867910E+03  0.00000000000E+00 0.  1.
        -11    1    3    3    0    0 -0.42590886141E+03  0.69240330477E+03  0.36861082803E+02  0.81374408392E+03  0.00000000000E+00 0. -1.
         22    1    1    2    0    0  0.75483704916E+03 -0.13339443056E+04  0.10320842835E+04  0.18478052791E+04  0.00000000000E+00 0.  1.
<mgrwt>
<rscale>  0 0.32194225E+04</rscale>
<asrwt>0</asrwt>
<pdfrwt beam="1">  1        2 0.18027266E+00 0.32194225E+04</pdfrwt>
<pdfrwt beam="2">  1       -2 0.34020396E+00 0.32194225E+04</pdfrwt>
<totfact> 0.29675733E-01</totfact>
</mgrwt>
</event>
<event>
 6    1  0.1762360E-005  0.8505233E+03  0.7818608E-02  0.9489635E-01
         -1   -1    0    0    0  501 -0.00000000000E+00  0.00000000000E+00  0.44341083522E+03  0.44341083522E+03  0.00000000000E+00 0.  1.
          1   -1    0    0  501    0  0.00000000000E+00 -0.00000000000E+00 -0.40785532240E+03  0.40785532240E+03  0.00000000000E+00 0. -1.
         23    2    1    2    0    0  0.69470908471E+02 -0.21289612567E+03 -0.33790555604E+03  0.41580762068E+03  0.92546448688E+02 0.  0.
         11    1    3    3    0    0  0.11507503775E+02 -0.16669501608E+03 -0.25173906872E+03  0.30214600734E+03  0.00000000000E+00 0. -1.
        -11    1    3    3    0    0  0.57963404696E+02 -0.46201109596E+02 -0.86166487314E+02  0.11366161334E+03  0.00000000000E+00 0.  1.
         22    1    1    2    0    0 -0.69470908471E+02  0.21289612567E+03  0.37346106885E+03  0.43545853695E+03  0.00000000000E+00 0.  1.
<mgrwt>
<rscale>  0 0.85052330E+03</rscale>
<asrwt>0</asrwt>
<pdfrwt beam="1">  1        1 0.62746973E-01 0.85052330E+03</pdfrwt>
<pdfrwt beam="2">  1       -1 0.68217051E-01 0.85052330E+03</pdfrwt>
<totfact> 0.12850243E+02</totfact>
</mgrwt>
</event>
<event>
 6    1  0.1762360E-005  0.1199220E+04  0.7818608E-02  0.9113539E-01
          4   -1    0    0  501    0  0.00000000000E+00  0.00000000000E+00  0.60138257546E+03  0.60138257546E+03  0.00000000000E+00 0. -1.
         -4   -1    0    0    0  501 -0.00000000000E+00 -0.00000000000E+00 -0.59784294059E+03  0.59784294059E+03  0.00000000000E+00 0.  1.
         23    2    1    2    0    0  0.21796326440E+03  0.43295104002E+03 -0.34545912715E+03  0.60193603551E+03  0.89612469174E+02 0.  0.
         11    1    3    3    0    0  0.16691352171E+03  0.39098029844E+03 -0.31535195673E+03  0.52931330430E+03  0.00000000000E+00 0.  1.
        -11    1    3    3    0    0  0.51049742688E+02  0.41970741576E+02 -0.30107170425E+02  0.72622731207E+02  0.00000000000E+00 0. -1.
         22    1    1    2    0    0 -0.21796326440E+03 -0.43295104002E+03  0.34899876202E+03  0.59728948055E+03  0.00000000000E+00 0. -1.
<mgrwt>
<rscale>  0 0.11992203E+04</rscale>
<asrwt>0</asrwt>
<pdfrwt beam="1">  1        4 0.92520396E-01 0.11992203E+04</pdfrwt>
<pdfrwt beam="2">  1       -4 0.91975837E-01 0.11992203E+04</pdfrwt>
<totfact> 0.19641359E+00</totfact>
</mgrwt>
</event>
<event>
 6    1  0.1762360E-005  0.4000364E+04  0.7818608E-02  0.8004473E-01
          2   -1    0    0  501    0  0.00000000000E+00  0.00000000000E+00  0.16217210012E+04  0.16217210012E+04  0.00000000000E+00 0. -1.
         -2   -1    0    0    0  501 -0.00000000000E+00 -0.00000000000E+00 -0.24669641629E+04  0.24669641629E+04  0.00000000000E+00 0.  1.
         23    2    1    2    0    0  0.72007694987E+03 -0.85651681352E+03  0.12703306711E+04  0.16954061357E+04  0.92358462726E+02 0.  0.
         11    1    3    3    0    0  0.46465994986E+03 -0.49610307930E+03  0.80985999054E+03  0.10573080623E+04  0.00000000000E+00 0. -1.
        -11    1    3    3    0    0  0.25541700000E+03 -0.36041373422E+03  0.46047068054E+03  0.63809807345E+03  0.00000000000E+00 0.  1.
         22    1    1    2    0    0 -0.72007694987E+03  0.85651681352E+03 -0.21155738328E+04  0.23932790284E+04  0.00000000000E+00 0.  1.
<mgrwt>
<rscale>  0 0.40003638E+04</rscale>
<asrwt>0</asrwt>
<pdfrwt beam="1">  1        2 0.24949554E+00 0.40003638E+04</pdfrwt>
<pdfrwt beam="2">  1       -2 0.37953294E+00 0.40003638E+04</pdfrwt>
<totfact> 0.86209533E-02</totfact>
</mgrwt>
</event>
<event>
 6    1  0.1762360E-005  0.3380225E+03  0.7818608E-02  0.1067641E+00
         -2   -1    0    0    0  501 -0.00000000000E+00  0.00000000000E+00  0.43704439448E+02  0.43704439448E+02  0.00000000000E+00 0.  1.
          2   -1    0    0  501    0  0.00000000000E+00 -0.00000000000E+00 -0.65359050632E+03  0.65359050632E+03  0.00000000000E+00 0. -1.
         23    2    1    2    0    0  0.15428571171E+03 -0.19815029932E+02 -0.33394036466E+03  0.38052571302E+03  0.95325415644E+02 0.  0.
         11    1    3    3    0    0  0.77515666889E+02  0.37062177962E+02 -0.17781463293E+03  0.19748500534E+03  0.00000000000E+00 0. -1.
        -11    1    3    3    0    0  0.76770044822E+02 -0.56877207894E+02 -0.15612573173E+03  0.18304070768E+03  0.00000000000E+00 0.  1.
         22    1    1    2    0    0 -0.15428571171E+03  0.19815029932E+02 -0.27594570221E+03  0.31676923275E+03  0.00000000000E+00 0.  1.
<mgrwt>
<rscale>  0 0.33802252E+03</rscale>
<asrwt>0</asrwt>
<pdfrwt beam="1">  1        2 0.10055238E+00 0.33802252E+03</pdfrwt>
<pdfrwt beam="2">  1       -2 0.67237601E-02 0.33802252E+03</pdfrwt>
<totfact> 0.56744645E+03</totfact>
</mgrwt>
</event>
<event>
 6    1  0.1762360E-005  0.2043002E+04  0.7818608E-02  0.8586775E-01
          2   -1    0    0  501    0  0.00000000000E+00  0.00000000000E+00  0.14505038013E+04  0.14505038013E+04  0.00000000000E+00 0. -1.
         -2   -1    0    0    0  501 -0.00000000000E+00 -0.00000000000E+00 -0.71938081916E+03  0.71938081916E+03  0.00000000000E+00 0.  1.
         23    2    1    2    0    0 -0.23076814719E+03 -0.77362003306E+03  0.10273771367E+04  0.13099378678E+04  0.93228446654E+02 0.  0.
         13    1    3    3    0    0 -0.20015162430E+03 -0.52679767548E+03  0.69323822838E+03  0.89339560380E+03  0.00000000000E+00 0. -1.
        -13    1    3    3    0    0 -0.30616522890E+02 -0.24682235758E+03  0.33413890828E+03  0.41654226400E+03  0.00000000000E+00 0.  1.
         22    1    1    2    0    0  0.23076814719E+03  0.77362003306E+03 -0.29625415454E+03  0.85994675265E+03  0.00000000000E+00 0.  1.
<mgrwt>
<rscale>  0 0.20430023E+04</rscale>
<asrwt>0</asrwt>
<pdfrwt beam="1">  1        2 0.22315443E+00 0.20430023E+04</pdfrwt>
<pdfrwt beam="2">  1       -2 0.11067397E+00 0.20430023E+04</pdfrwt>
<totfact> 0.81170787E+00</totfact>
</mgrwt>
</event>
<event>
 6    1  0.1762360E-005  0.1231318E+04  0.7818608E-02  0.9085877E-01
          3   -1    0    0  501    0  0.00000000000E+00  0.00000000000E+00  0.55930601338E+03  0.55930601338E+03  0.00000000000E+00 0. -1.
         -3   -1    0    0    0  501 -0.00000000000E+00 -0.00000000000E+00 -0.67768961435E+03  0.67768961435E+03  0.00000000000E+00 0.  1.
         23    2    1    2    0    0 -0.47759165670E+03 -0.79460491164E+01 -0.44415128678E+03  0.65882479193E+03  0.92859090381E+02 0.  0.
         13    1    3    3    0    0 -0.22688538229E+03 -0.30557439420E+02 -0.16053412985E+03  0.27961033716E+03  0.00000000000E+00 0. -1.
        -13    1    3    3    0    0 -0.25070627441E+03  0.22611390304E+02 -0.28361715693E+03  0.37921445477E+03  0.00000000000E+00 0.  1.
         22    1    1    2    0    0  0.47759165670E+03  0.79460491164E+01  0.32576768581E+03  0.57817083580E+03  0.00000000000E+00 0. -1.
<mgrwt>
<rscale>  0 0.12313178E+04</rscale>
<asrwt>0</asrwt>
<pdfrwt beam="1">  1        3 0.86047079E-01 0.12313178E+04</pdfrwt>
<pdfrwt beam="2">  1       -3 0.10425994E+00 0.12313178E+04</pdfrwt>
<totfact> 0.25259036E+00</totfact>
</mgrwt>
</event>
<event>
 6    1  0.1762360E-005  0.2273870E+04  0.7818608E-02  0.8488296E-01
         -2   -1    0    0    0  501 -0.00000000000E+00  0.00000000000E+00  0.10863759447E+04  0.10863759447E+04  0.00000000000E+00 0. -1.
          2   -1    0    0  501    0  0.00000000000E+00 -0.00000000000E+00 -0.11898470790E+04  0.11898470790E+04  0.00000000000E+00 0.  1.
         23    2    1    2    0    0 -0.41476566401E+03 -0.89588543217E+02  0.10020790472E+04  0.10920364392E+04  0.91238722895E+02 0.  0.
         11    1    3    3    0    0 -0.23537790399E+03 -0.49733864426E+01  0.52513932379E+03  0.57549874165E+03  0.00000000000E+00 0.  1.
        -11    1    3    3    0    0 -0.17938776002E+03 -0.84615156774E+02  0.47693972345E+03  0.51653769757E+03  0.00000000000E+00 0. -1.
         22    1    1    2    0    0  0.41476566401E+03  0.89588543217E+02 -0.11055501815E+04  0.11841865845E+04  0.00000000000E+00 0.  1.
<mgrwt>
<rscale>  0 0.22738700E+04</rscale>
<asrwt>0</asrwt>
<pdfrwt beam="1">  1        2 0.18305340E+00 0.22738700E+04</pdfrwt>
<pdfrwt beam="2">  1       -2 0.16713476E+00 0.22738700E+04</pdfrwt>
<totfact> 0.38994618E+00</totfact>
</mgrwt>
</event>
<event>
 6    1  0.1762360E-005  0.1628976E+04  0.7818608E-02  0.8802942E-01
         -1   -1    0    0    0  501 -0.00000000000E+00  0.00000000000E+00  0.15340526255E+04  0.15340526255E+04  0.00000000000E+00 0.  1.
          1   -1    0    0  501    0  0.00000000000E+00 -0.00000000000E+00 -0.43244311381E+03  0.43244311381E+03  0.00000000000E+00 0. -1.
         23    2    1    2    0    0  0.37283252218E+03  0.67875334764E+03  0.84632603483E+03  0.11510940898E+04  0.95077072486E+02 0.  0.
         13    1    3    3    0    0  0.84901918520E+02  0.85788691219E+02  0.14374751624E+03  0.18770024969E+03  0.00000000000E+00 0.  1.
        -13    1    3    3    0    0  0.28793060366E+03  0.59296465642E+03  0.70257851860E+03  0.96339384007E+03  0.00000000000E+00 0. -1.
         22    1    1    2    0    0 -0.37283252218E+03 -0.67875334764E+03  0.25528347684E+03  0.81540164954E+03  0.00000000000E+00 0. -1.
<mgrwt>
<rscale>  0 0.16289757E+04</rscale>
<asrwt>0</asrwt>
<pdfrwt beam="1">  1        1 0.66529711E-01 0.16289757E+04</pdfrwt>
<pdfrwt beam="2">  1       -1 0.23600809E+00 0.16289757E+04</pdfrwt>
<totfact> 0.44558039E+00</totfact>
</mgrwt>
</event>
<event>
 6    1  0.1762360E-005  0.2001461E+04  0.7818608E-02  0.8605938E-01
         -1   -1    0    0    0  501 -0.00000000000E+00  0.00000000000E+00  0.12280417529E+04  0.12280417529E+04  0.00000000000E+00 0.  1.
          1   -1    0    0  501    0  0.00000000000E+00 -0.00000000000E+00 -0.81549443136E+03  0.81549443136E+03  0.00000000000E+00 0. -1.
         23    2    1    2    0    0  0.93139597719E+03 -0.52239131721E+02 -0.15772162085E+03  0.95017711249E+03  0.87937717795E+02 0.  0.
         11    1    3    3    0    0  0.46549115628E+03 -0.69690042117E+02 -0.72839587135E+02  0.47628176954E+03  0.00000000000E+00 0. -1.
        -11    1    3    3    0    0  0.46590482091E+03  0.17450910396E+02 -0.84882033712E+02  0.47389534295E+03  0.00000000000E+00 0.  1.
         22    1    1    2    0    0 -0.93139597719E+03  0.52239131721E+02  0.57026894244E+03  0.10933590718E+04  0.00000000000E+00 0.  1.
<mgrwt>
<rscale>  0 0.20014607E+04</rscale>
<asrwt>0</asrwt>
<pdfrwt beam="1">  1        1 0.12546068E+00 0.20014607E+04</pdfrwt>
<pdfrwt beam="2">  1       -1 0.18892950E+00 0.20014607E+04</pdfrwt>
<totfact> 0.35741814E+00</totfact>
</mgrwt>
</event>
<event>
 6    1  0.1762360E-005  0.2565307E+04  0.7818608E-02  0.8380082E-01
         -2   -1    0    0    0  501 -0.00000000000E+00  0.00000000000E+00  0.46140211519E+03  0.46140211519E+03  0.00000000000E+00 0.  1.
          2   -1    0    0  501    0  0.00000000000E+00 -0.00000000000E+00 -0.35656528402E+04  0.35656528402E+04  0.00000000000E+00 0. -1.
         23    2    1    2    0    0 -0.10541061404E+04  0.70466732117E+03 -0.12679926344E+04  0.17955667604E+04  0.92514224106E+02 0.  0.
         13    1    3    3    0    0 -0.60026299611E+03  0.44372877497E+03 -0.70442391658E+03  0.10263644306E+04  0.00000000000E+00 0. -1.
        -13    1    3    3    0    0 -0.45384314427E+03  0.26093854620E+03 -0.56356871779E+03  0.76920232980E+03  0.00000000000E+00 0.  1.
         22    1    1    2    0    0  0.10541061404E+04 -0.70466732117E+03 -0.18362580906E+04  0.22314881949E+04  0.00000000000E+00 0. -1.
<mgrwt>
<rscale>  0 0.25653068E+04</rscale>
<asrwt>0</asrwt>
<pdfrwt beam="1">  1        2 0.54856197E+00 0.25653068E+04</pdfrwt>
<pdfrwt beam="2">  1       -2 0.70984942E-01 0.25653068E+04</pdfrwt>
<totfact> 0.11697901E+00</totfact>
</mgrwt>
</event>
<event>
 6    1  0.1762360E-005  0.2712571E+04  0.7818608E-02  0.8330938E-01
          1   -1    0    0  501    0  0.00000000000E+00  0.00000000000E+00  0.19823616492E+04  0.19823616492E+04  0.00000000000E+00 0. -1.
         -1   -1    0    0    0  501 -0.00000000000E+00 -0.00000000000E+00 -0.92793891866E+03  0.92793891866E+03  0.00000000000E+00 0.  1.
         23    2    1    2    0    0  0.56995999382E+03 -0.10419418732E+04 -0.17145954071E+03  0.12034658938E+04  0.91839652069E+02 0.  0.
         13    1    3    3    0    0  0.21434218780E+03 -0.33452348169E+03 -0.91205305011E+02  0.40763579447E+03  0.00000000000E+00 0.  1.
        -13    1    3    3    0    0  0.35561780602E+03 -0.70741839151E+03 -0.80254235699E+02  0.79583009930E+03  0.00000000000E+00 0. -1.
         22    1    1    2    0    0 -0.56995999382E+03  0.10419418732E+04  0.12258822712E+04  0.17068346741E+04  0.00000000000E+00 0. -1.
<mgrwt>
<rscale>  0 0.27125711E+04</rscale>
<asrwt>0</asrwt>
<pdfrwt beam="1">  1        1 0.30497871E+00 0.27125711E+04</pdfrwt>
<pdfrwt beam="2">  1       -1 0.14275983E+00 0.27125711E+04</pdfrwt>
<totfact> 0.10637561E+00</totfact>
</mgrwt>
</event>
<event>
 6    1  0.1762360E-005  0.4116113E+04  0.7818608E-02  0.7981524E-01
         -2   -1    0    0    0  501 -0.00000000000E+00  0.00000000000E+00  0.14870827396E+04  0.14870827396E+04  0.00000000000E+00 0.  1.
          2   -1    0    0  501    0  0.00000000000E+00 -0.00000000000E+00 -0.28482589093E+04  0.28482589093E+04  0.00000000000E+00 0. -1.
         23    2    1    2    0    0 -0.51482486674E+03 -0.17747902589E+04  0.27103375362E+03  0.18697718689E+04  0.87535363257E+02 0.  0.
         11    1    3    3    0    0 -0.30510281458E+03 -0.11601599709E+04  0.14659762796E+03  0.12085320642E+04  0.00000000000E+00 0.  1.
        -11    1    3    3    0    0 -0.20972205216E+03 -0.61463028792E+03  0.12443612565E+03  0.66123980473E+03  0.00000000000E+00 0. -1.
         22    1    1    2    0    0  0.51482486674E+03  0.17747902589E+04 -0.16322099233E+04  0.24655697800E+04  0.00000000000E+00 0. -1.
<mgrwt>
<rscale>  0 0.41161131E+04</rscale>
<asrwt>0</asrwt>
<pdfrwt beam="1">  1        2 0.43819368E+00 0.41161131E+04</pdfrwt>
<pdfrwt beam="2">  1       -2 0.22878196E+00 0.41161131E+04</pdfrwt>
<totfact> 0.14693407E-01</totfact>
</mgrwt>
</event>
<event>
 6    1  0.1762360E-005  0.3364206E+04  0.7818608E-02  0.8146748E-01
         -2   -1    0    0    0  501 -0.00000000000E+00  0.00000000000E+00  0.20848870776E+04  0.20848870776E+04  0.00000000000E+00 0.  1.
          2   -1    0    0  501    0  0.00000000000E+00 -0.00000000000E+00 -0.13571336705E+04  0.13571336705E+04  0.00000000000E+00 0. -1.
         23    2    1    2    0    0  0.57600840269E+03  0.15490007842E+04  0.67837547405E+03  0.17886522806E+04  0.88851491698E+02 0.  0.
         11    1    3    3    0    0  0.30471395922E+03  0.94376261402E+03  0.40192689676E+03  0.10700858372E+04  0.00000000000E+00 0. -1.
        -11    1    3    3    0    0  0.27129444347E+03  0.60523817017E+03  0.27644857729E+03  0.71856644339E+03  0.00000000000E+00 0.  1.
         22    1    1    2    0    0 -0.57600840269E+03 -0.15490007842E+04  0.49377933078E+02  0.16533684676E+04  0.00000000000E+00 0.  1.
<mgrwt>
<rscale>  0 0.33642060E+04</rscale>
<asrwt>0</asrwt>
<pdfrwt beam="1">  1        2 0.20878980E+00 0.33642060E+04</pdfrwt>
<pdfrwt beam="2">  1       -2 0.32075186E+00 0.33642060E+04</pdfrwt>
<totfact> 0.30138657E-01</totfact>
</mgrwt>
</event>
<event>
 6    1  0.1840600E-005  0.3583849E+04  0.7818608E-02  0.8094201E-01
          1   -1    0    0  501    0  0.00000000000E+00  0.00000000000E+00  0.27542210977E+04  0.27542210977E+04  0.00000000000E+00 0. -1.
         -1   -1    0    0    0  501 -0.00000000000E+00 -0.00000000000E+00 -0.11658445521E+04  0.11658445521E+04  0.00000000000E+00 0.  1.
         23    2    1    2    0    0  0.76527103468E+03  0.16006930337E+04  0.52775871734E+03  0.18529981323E+04  0.84940389987E+02 0.  0.
         11    1    3    3    0    0  0.40746641095E+03  0.82389683757E+03  0.23096965622E+03  0.94772456816E+03  0.00000000000E+00 0.  1.
        -11    1    3    3    0    0  0.35780462373E+03  0.77679619611E+03  0.29678906112E+03  0.90527356410E+03  0.00000000000E+00 0. -1.
         22    1    1    2    0    0 -0.76527103468E+03 -0.16006930337E+04  0.10606178282E+04  0.20670675175E+04  0.00000000000E+00 0.  1.
<mgrwt>
<rscale>  0 0.35838491E+04</rscale>
<asrwt>0</asrwt>
<pdfrwt beam="1">  1        1 0.42372632E+00 0.35838491E+04</pdfrwt>
<pdfrwt beam="2">  1       -1 0.17936070E+00 0.35838491E+04</pdfrwt>
<totfact> 0.15301136E-01</totfact>
</mgrwt>
</event>
<event>
 6    1  0.1762360E-005  0.3011590E+04  0.7818608E-02  0.8240429E-01
         -1   -1    0    0    0  501 -0.00000000000E+00  0.00000000000E+00  0.14290338780E+04  0.14290338780E+04  0.00000000000E+00 0.  1.
          1   -1    0    0  501    0  0.00000000000E+00 -0.00000000000E+00 -0.15866788525E+04  0.15866788525E+04  0.00000000000E+00 0. -1.
         23    2    1    2    0    0 -0.24208483742E+02 -0.13316086629E+04 -0.78007601492E+03  0.15456147466E+04  0.81478058568E+02 0.  0.
         13    1    3    3    0    0 -0.44387326310E+02 -0.56019578718E+03 -0.35331212572E+03  0.66379139260E+03  0.00000000000E+00 0. -1.
        -13    1    3    3    0    0  0.20178842568E+02 -0.77141287576E+03 -0.42676388921E+03  0.88182335403E+03  0.00000000000E+00 0.  1.
         22    1    1    2    0    0  0.24208483742E+02  0.13316086629E+04  0.62243104044E+03  0.14700979838E+04  0.00000000000E+00 0. -1.
<mgrwt>
<rscale>  0 0.30115895E+04</rscale>
<asrwt>0</asrwt>
<pdfrwt beam="1">  1        1 0.24410444E+00 0.30115895E+04</pdfrwt>
<pdfrwt beam="2">  1       -1 0.21985137E+00 0.30115895E+04</pdfrwt>
<totfact> 0.53449422E-01</totfact>
</mgrwt>
</event>
<event>
 6    1  0.1762360E-005  0.5945969E+03  0.7818608E-02  0.9916680E-01
          3   -1    0    0  501    0  0.00000000000E+00  0.00000000000E+00  0.86537996023E+02  0.86537996023E+02  0.00000000000E+00 0. -1.
         -3   -1    0    0    0  501 -0.00000000000E+00 -0.00000000000E+00 -0.10213590695E+04  0.10213590695E+04  0.00000000000E+00 0.  1.
         23    2    1    2    0    0 -0.13902246074E+02 -0.24851909377E+03 -0.75779494543E+03  0.80245760765E+03  0.87920534249E+02 0.  0.
         11    1    3    3    0    0 -0.36915142888E+02 -0.87560025142E+02 -0.19962128712E+03  0.22108402034E+03  0.00000000000E+00 0. -1.
        -11    1    3    3    0    0  0.23012896814E+02 -0.16095906862E+03 -0.55817365831E+03  0.58137358732E+03  0.00000000000E+00 0.  1.
         22    1    1    2    0    0  0.13902246074E+02  0.24851909377E+03 -0.17702612804E+03  0.30543945786E+03  0.00000000000E+00 0. -1.
<mgrwt>
<rscale>  0 0.59459690E+03</rscale>
<asrwt>0</asrwt>
<pdfrwt beam="1">  1        3 0.13313537E-01 0.59459690E+03</pdfrwt>
<pdfrwt beam="2">  1       -3 0.15713217E+00 0.59459690E+03</pdfrwt>
<totfact> 0.35576127E+01</totfact>
</mgrwt>
</event>
<event>
 6    1  0.1762360E-005  0.2626756E+04  0.7818608E-02  0.8359169E-01
         -1   -1    0    0    0  501 -0.00000000000E+00  0.00000000000E+00  0.45270048990E+03  0.45270048990E+03  0.00000000000E+00 0.  1.
          1   -1    0    0  501    0  0.00000000000E+00 -0.00000000000E+00 -0.38103810245E+04  0.38103810245E+04  0.00000000000E+00 0. -1.
         23    2    1    2    0    0 -0.50134513927E+03  0.49152776976E+03 -0.34792235117E+04  0.35505373457E+04  0.91502465999E+02 0.  0.
         11    1    3    3    0    0 -0.44527728700E+03  0.39135775896E+03 -0.29588795033E+04  0.30176813405E+04  0.00000000000E+00 0. -1.
        -11    1    3    3    0    0 -0.56067852266E+02  0.10017001080E+03 -0.52034400847E+03  0.53285600520E+03  0.00000000000E+00 0.  1.
         22    1    1    2    0    0  0.50134513927E+03 -0.49152776976E+03  0.12154297712E+03  0.71254416874E+03  0.00000000000E+00 0.  1.
<mgrwt>
<rscale>  0 0.26267557E+04</rscale>
<asrwt>0</asrwt>
<pdfrwt beam="1">  1        1 0.58621245E+00 0.26267557E+04</pdfrwt>
<pdfrwt beam="2">  1       -1 0.69646231E-01 0.26267557E+04</pdfrwt>
<totfact> 0.25616185E-01</totfact>
</mgrwt>
</event>
<event>
 6    1  0.1762360E-005  0.7361104E+03  0.7818608E-02  0.9657397E-01
          1   -1    0    0  501    0  0.00000000000E+00  0.00000000000E+00  0.17391281784E+03  0.17391281784E+03  0.00000000000E+00 0. -1.
         -1   -1    0    0    0  501 -0.00000000000E+00 -0.00000000000E+00 -0.77892255521E+03  0.77892255521E+03  0.00000000000E+00 0.  1.
         23    2    1    2    0    0 -0.29150620614E+02 -0.35818045034E+03 -0.36760887821E+03  0.52213575427E+03  0.91358988935E+02 0.  0.
         13    1    3    3    0    0  0.79217428454E+01 -0.50417861653E+02 -0.10144004407E+03  0.11355526110E+03  0.00000000000E+00 0. -1.
        -13    1    3    3    0    0 -0.37072363459E+02 -0.30776258869E+03 -0.26616883414E+03  0.40858049317E+03  0.00000000000E+00 0.  1.
         22    1    1    2    0    0  0.29150620614E+02  0.35818045034E+03 -0.23740085916E+03  0.43069961879E+03  0.00000000000E+00 0. -1.
<mgrwt>
<rscale>  0 0.73611036E+03</rscale>
<asrwt>0</asrwt>
<pdfrwt beam="1">  1        1 0.26755817E-01 0.73611036E+03</pdfrwt>
<pdfrwt beam="2">  1       -1 0.11983424E+00 0.73611036E+03</pdfrwt>
<totfact> 0.11270262E+02</totfact>
</mgrwt>
</event>
<event>
 6    1  0.1762360E-005  0.3808224E+04  0.7818608E-02  0.8044392E-01
         -2   -1    0    0    0  501 -0.00000000000E+00  0.00000000000E+00  0.11639989722E+04  0.11639989722E+04  0.00000000000E+00 0.  1.
          2   -1    0    0  501    0  0.00000000000E+00 -0.00000000000E+00 -0.31148159968E+04  0.31148159968E+04  0.00000000000E+00 0. -1.
         23    2    1    2    0    0  0.16712877942E+03 -0.96988098477E+03  0.85407974794E+03  0.13062660530E+04  0.90981491316E+02 0.  0.
         11    1    3    3    0    0  0.39636068879E+02 -0.38071319289E+03  0.38010583632E+03  0.53943859706E+03  0.00000000000E+00 0. -1.
        -11    1    3    3    0    0  0.12749271055E+03 -0.58916779188E+03  0.47397391161E+03  0.76682745590E+03  0.00000000000E+00 0.  1.
         22    1    1    2    0    0 -0.16712877942E+03  0.96988098477E+03 -0.28048967726E+04  0.29725489160E+04  0.00000000000E+00 0. -1.
<mgrwt>
<rscale>  0 0.38082241E+04</rscale>
<asrwt>0</asrwt>
<pdfrwt beam="1">  1        2 0.47920246E+00 0.38082241E+04</pdfrwt>
<pdfrwt beam="2">  1       -2 0.17907677E+00 0.38082241E+04</pdfrwt>
<totfact> 0.21690354E-01</totfact>
</mgrwt>
</event>
<event>
 6    1  0.1762360E-005  0.2968396E+04  0.7818608E-02  0.8252814E-01
          2   -1    0    0  501    0  0.00000000000E+00  0.00000000000E+00  0.23584097943E+04  0.23584097943E+04  0.00000000000E+00 0. -1.
         -2   -1    0    0    0  501 -0.00000000000E+00 -0.00000000000E+00 -0.93403759924E+03  0.93403759924E+03  0.00000000000E+00 0.  1.
         23    2    1    2    0    0 -0.10990615363E+02  0.96175074540E+03 -0.53874874728E+03  0.11063711999E+04  0.93390200110E+02 0.  0.
         11    1    3    3    0    0 -0.38481104129E+02  0.71164644197E+03 -0.42920609289E+03  0.83194911138E+03  0.00000000000E+00 0. -1.
        -11    1    3    3    0    0  0.27490488766E+02  0.25010430342E+03 -0.10954265439E+03  0.27442208857E+03  0.00000000000E+00 0.  1.
         22    1    1    2    0    0  0.10990615363E+02 -0.96175074540E+03  0.19631209423E+04  0.21860761936E+04  0.00000000000E+00 0.  1.
<mgrwt>
<rscale>  0 0.29683958E+04</rscale>
<asrwt>0</asrwt>
<pdfrwt beam="1">  1        2 0.36283227E+00 0.29683958E+04</pdfrwt>
<pdfrwt beam="2">  1       -2 0.14369809E+00 0.29683958E+04</pdfrwt>
<totfact> 0.12091227E+00</totfact>
</mgrwt>
</event>
<event>
 6    1  0.1762360E-005  0.1305225E+04  0.7818608E-02  0.9025432E-01
          2   -1    0    0  501    0  0.00000000000E+00  0.00000000000E+00  0.17016132713E+04  0.17016132713E+04  0.00000000000E+00 0. -1.
         -2   -1    0    0    0  501 -0.00000000000E+00 -0.00000000000E+00 -0.25029359351E+03  0.25029359351E+03  0.00000000000E+00 0.  1.
         23    2    1    2    0    0  0.45205110549E+03  0.28279747705E+03  0.12835621913E+04  0.13929192180E+04  0.91473678819E+02 0.  0.
         11    1    3    3    0    0  0.14735211356E+03  0.12222201438E+03  0.55394610099E+03  0.58609482934E+03  0.00000000000E+00 0.  1.
        -11    1    3    3    0    0  0.30469899193E+03  0.16057546267E+03  0.72961609029E+03  0.80682438864E+03  0.00000000000E+00 0. -1.
         22    1    1    2    0    0 -0.45205110549E+03 -0.28279747705E+03  0.16775748648E+03  0.55898764680E+03  0.00000000000E+00 0.  1.
<mgrwt>
<rscale>  0 0.13052247E+04</rscale>
<asrwt>0</asrwt>
<pdfrwt beam="1">  1        2 0.26178665E+00 0.13052247E+04</pdfrwt>
<pdfrwt beam="2">  1       -2 0.38506708E-01 0.13052247E+04</pdfrwt>
<totfact> 0.61080308E+01</totfact>
</mgrwt>
</event>
<event>
 6    1  0.1762360E-005  0.2898095E+04  0.7818608E-02  0.8273444E-01
          2   -1    0    0  501    0  0.00000000000E+00  0.00000000000E+00  0.13829228627E+04  0.13829228627E+04  0.00000000000E+00 0.  1.
         -2   -1    0    0    0  501 -0.00000000000E+00 -0.00000000000E+00 -0.15183343543E+04  0.15183343543E+04  0.00000000000E+00 0. -1.
         23    2    1    2    0    0  0.13528268026E+04 -0.17051624130E+03 -0.55391778688E+03  0.14749460077E+04  0.97080711748E+02 0.  0.
         13    1    3    3    0    0  0.10642213118E+04 -0.16834220779E+03 -0.45871090649E+03  0.11710344979E+04  0.00000000000E+00 0.  1.
        -13    1    3    3    0    0  0.28860549078E+03 -0.21740335124E+01 -0.95206880391E+02  0.30391150983E+03  0.00000000000E+00 0. -1.
         22    1    1    2    0    0 -0.13528268026E+04  0.17051624130E+03  0.41850629536E+03  0.14263112093E+04  0.00000000000E+00 0.  1.
<mgrwt>
<rscale>  0 0.28980954E+04</rscale>
<asrwt>0</asrwt>
<pdfrwt beam="1">  1        2 0.21275736E+00 0.28980954E+04</pdfrwt>
<pdfrwt beam="2">  1       -2 0.23358990E+00 0.28980954E+04</pdfrwt>
<totfact> 0.10373701E+00</totfact>
</mgrwt>
</event>
<event>
 6    1  0.1762360E-005  0.2101370E+04  0.7818608E-02  0.8560640E-01
          2   -1    0    0  501    0  0.00000000000E+00  0.00000000000E+00  0.10437373847E+04  0.10437373847E+04  0.00000000000E+00 0. -1.
         -2   -1    0    0    0  501 -0.00000000000E+00 -0.00000000000E+00 -0.10576790587E+04  0.10576790587E+04  0.00000000000E+00 0.  1.
         23    2    1    2    0    0  0.13376046338E+03 -0.87973619495E+03 -0.56184844207E+03  0.10564143090E+04  0.92249044595E+02 0.  0.
         13    1    3    3    0    0  0.13901935232E+03 -0.64482076373E+03 -0.41585191043E+03  0.77977753819E+03  0.00000000000E+00 0. -1.
        -13    1    3    3    0    0 -0.52588889407E+01 -0.23491543122E+03 -0.14599653164E+03  0.27663677085E+03  0.00000000000E+00 0.  1.
         22    1    1    2    0    0 -0.13376046338E+03  0.87973619495E+03  0.54790676812E+03  0.10450021344E+04  0.00000000000E+00 0.  1.
<mgrwt>
<rscale>  0 0.21013702E+04</rscale>
<asrwt>0</asrwt>
<pdfrwt beam="1">  1        2 0.16057498E+00 0.21013702E+04</pdfrwt>
<pdfrwt beam="2">  1       -2 0.16271986E+00 0.21013702E+04</pdfrwt>
<totfact> 0.52353345E+00</totfact>
</mgrwt>
</event>
<event>
 6    1  0.1762360E-005  0.1483032E+04  0.7818608E-02  0.8895816E-01
         -1   -1    0    0    0  501 -0.00000000000E+00  0.00000000000E+00  0.27461252199E+03  0.27461252199E+03  0.00000000000E+00 0.  1.
          1   -1    0    0  501    0  0.00000000000E+00 -0.00000000000E+00 -0.20022609427E+04  0.20022609427E+04  0.00000000000E+00 0. -1.
         23    2    1    2    0    0 -0.72317393676E+03  0.50239180741E+02 -0.64914093066E+03  0.97738013104E+03  0.91561206809E+02 0.  0.
         13    1    3    3    0    0 -0.48494996004E+02 -0.19381114300E+02 -0.52306993349E+02  0.73914909066E+02  0.00000000000E+00 0. -1.
        -13    1    3    3    0    0 -0.67467894075E+03  0.69620295041E+02 -0.59683393732E+03  0.90346522197E+03  0.00000000000E+00 0.  1.
         22    1    1    2    0    0  0.72317393676E+03 -0.50239180741E+02 -0.10785074900E+04  0.12994933336E+04  0.00000000000E+00 0. -1.
<mgrwt>
<rscale>  0 0.14830319E+04</rscale>
<asrwt>0</asrwt>
<pdfrwt beam="1">  1        1 0.30804014E+00 0.14830319E+04</pdfrwt>
<pdfrwt beam="2">  1       -1 0.42248081E-01 0.14830319E+04</pdfrwt>
<totfact> 0.15852604E+01</totfact>
</mgrwt>
</event>
<event>
 6    1  0.1762360E-005  0.4225245E+04  0.7818608E-02  0.7960587E-01
          2   -1    0    0  501    0  0.00000000000E+00  0.00000000000E+00  0.20559724159E+04  0.20559724159E+04  0.00000000000E+00 0.  1.
         -2   -1    0    0    0  501 -0.00000000000E+00 -0.00000000000E+00 -0.21708337507E+04  0.21708337507E+04  0.00000000000E+00 0. -1.
         23    2    1    2    0    0 -0.12329026027E+04  0.90195587348E+02 -0.17700548974E+04  0.21609286772E+04  0.91292587601E+02 0.  0.
         11    1    3    3    0    0 -0.65528452350E+03  0.80444595237E+02 -0.88808763142E+03  0.11066023589E+04  0.00000000000E+00 0. -1.
        -11    1    3    3    0    0 -0.57761807917E+03  0.97509921113E+01 -0.88196726596E+03  0.10543263183E+04  0.00000000000E+00 0.  1.
         22    1    1    2    0    0  0.12329026027E+04 -0.90195587348E+02  0.16551935626E+04  0.20658774894E+04  0.00000000000E+00 0.  1.
<mgrwt>
<rscale>  0 0.42252452E+04</rscale>
<asrwt>0</asrwt>
<pdfrwt beam="1">  1        2 0.31630345E+00 0.42252452E+04</pdfrwt>
<pdfrwt beam="2">  1       -2 0.33397442E+00 0.42252452E+04</pdfrwt>
<totfact> 0.94452653E-02</totfact>
</mgrwt>
</event>
<event>
 6    1  0.1762360E-005  0.2773822E+04  0.7818608E-02  0.8311442E-01
         -2   -1    0    0    0  501 -0.00000000000E+00  0.00000000000E+00  0.29446167011E+04  0.29446167011E+04  0.00000000000E+00 0.  1.
          2   -1    0    0  501    0  0.00000000000E+00 -0.00000000000E+00 -0.65323322465E+03  0.65323322465E+03  0.00000000000E+00 0. -1.
         23    2    1    2    0    0  0.56401870923E+03  0.29875557135E+03  0.27418611263E+04  0.28166315768E+04  0.90768981617E+02 0.  0.
         13    1    3    3    0    0  0.35644632191E+03  0.21022214760E+03  0.15971833151E+04  0.16499217781E+04  0.00000000000E+00 0.  1.
        -13    1    3    3    0    0  0.20757238732E+03  0.88533423755E+02  0.11446778112E+04  0.11667097987E+04  0.00000000000E+00 0. -1.
         22    1    1    2    0    0 -0.56401870923E+03 -0.29875557135E+03 -0.45047764979E+03  0.78121834895E+03  0.00000000000E+00 0. -1.
<mgrwt>
<rscale>  0 0.27738215E+04</rscale>
<asrwt>0</asrwt>
<pdfrwt beam="1">  1        2 0.10049742E+00 0.27738215E+04</pdfrwt>
<pdfrwt beam="2">  1       -2 0.45301795E+00 0.27738215E+04</pdfrwt>
<totfact> 0.12898882E-01</totfact>
</mgrwt>
</event>
<event>
 6    1  0.1762360E-005  0.1205383E+04  0.7818608E-02  0.9108158E-01
         -2   -1    0    0    0  501 -0.00000000000E+00  0.00000000000E+00  0.21167489262E+03  0.21167489262E+03  0.00000000000E+00 0.  1.
          2   -1    0    0  501    0  0.00000000000E+00 -0.00000000000E+00 -0.17160124656E+04  0.17160124656E+04  0.00000000000E+00 0. -1.
         23    2    1    2    0    0  0.10668714259E+03 -0.29706333492E+03 -0.15713603319E+04  0.16050097768E+04  0.85172294219E+02 0.  0.
         13    1    3    3    0    0  0.11472255458E+02 -0.15211062931E+03 -0.79694831948E+03  0.81141597231E+03  0.00000000000E+00 0. -1.
        -13    1    3    3    0    0  0.95214887132E+02 -0.14495270561E+03 -0.77441201243E+03  0.79359380453E+03  0.00000000000E+00 0.  1.
         22    1    1    2    0    0 -0.10668714259E+03  0.29706333492E+03  0.67022758889E+02  0.32267758143E+03  0.00000000000E+00 0.  1.
<mgrwt>
<rscale>  0 0.12053825E+04</rscale>
<asrwt>0</asrwt>
<pdfrwt beam="1">  1        2 0.26400192E+00 0.12053825E+04</pdfrwt>
<pdfrwt beam="2">  1       -2 0.32565368E-01 0.12053825E+04</pdfrwt>
<totfact> 0.83277999E+01</totfact>
</mgrwt>
</event>
<event>
 6    1  0.1762360E-005  0.8569790E+03  0.7818608E-02  0.9481018E-01
          4   -1    0    0  501    0  0.00000000000E+00  0.00000000000E+00  0.42567171289E+03  0.42567171289E+03  0.00000000000E+00 0. -1.
         -4   -1    0    0    0  501 -0.00000000000E+00 -0.00000000000E+00 -0.43132594284E+03  0.43132594284E+03  0.00000000000E+00 0.  1.
         23    2    1    2    0    0  0.31256128838E+03 -0.41971274322E+02  0.27770204769E+03  0.43303194138E+03  0.10460443634E+03 0.  0.
         13    1    3    3    0    0  0.27659134208E+03  0.41375164616E-01  0.23877774241E+03  0.36540057813E+03  0.00000000000E+00 0. -1.
        -13    1    3    3    0    0  0.35969946297E+02 -0.42012649487E+02  0.38924305283E+02  0.67631363252E+02  0.00000000000E+00 0.  1.
         22    1    1    2    0    0 -0.31256128838E+03  0.41971274322E+02 -0.28335627765E+03  0.42396571435E+03  0.00000000000E+00 0. -1.
<mgrwt>
<rscale>  0 0.85697900E+03</rscale>
<asrwt>0</asrwt>
<pdfrwt beam="1">  1        4 0.65487956E-01 0.85697900E+03</pdfrwt>
<pdfrwt beam="2">  1       -4 0.66357837E-01 0.85697900E+03</pdfrwt>
<totfact> 0.90833379E+00</totfact>
</mgrwt>
</event>
<event>
 6    1  0.1762360E-005  0.3388594E+04  0.7818608E-02  0.8140711E-01
         -2   -1    0    0    0  501 -0.00000000000E+00  0.00000000000E+00  0.74169865236E+03  0.74169865236E+03  0.00000000000E+00 0.  1.
          2   -1    0    0  501    0  0.00000000000E+00 -0.00000000000E+00 -0.38703621783E+04  0.38703621783E+04  0.00000000000E+00 0. -1.
         23    2    1    2    0    0  0.81464938608E+03 -0.39142465636E+02 -0.35847449760E+04  0.36776112365E+04  0.96135888632E+02 0.  0.
         13    1    3    3    0    0  0.73816625490E+03 -0.62468142465E+02 -0.32707821941E+04  0.33536260749E+04  0.00000000000E+00 0.  1.
        -13    1    3    3    0    0  0.76483131174E+02  0.23325676829E+02 -0.31396278193E+03  0.32398516168E+03  0.00000000000E+00 0. -1.
         22    1    1    2    0    0 -0.81464938608E+03  0.39142465636E+02  0.45608145009E+03  0.93444959413E+03  0.00000000000E+00 0.  1.
<mgrwt>
<rscale>  0 0.33885941E+04</rscale>
<asrwt>0</asrwt>
<pdfrwt beam="1">  1        2 0.59544035E+00 0.33885941E+04</pdfrwt>
<pdfrwt beam="2">  1       -2 0.11410748E+00 0.33885941E+04</pdfrwt>
<totfact> 0.21560615E-01</totfact>
</mgrwt>
</event>
<event>
 6    1  0.1762360E-005  0.2306912E+04  0.7818608E-02  0.8475201E-01
          1   -1    0    0  501    0  0.00000000000E+00  0.00000000000E+00  0.75779479782E+03  0.75779479782E+03  0.00000000000E+00 0. -1.
         -1   -1    0    0    0  501 -0.00000000000E+00 -0.00000000000E+00 -0.17557012688E+04  0.17557012688E+04  0.00000000000E+00 0.  1.
         23    2    1    2    0    0  0.22584454092E+02 -0.90385297119E+03 -0.12769321597E+04  0.15672848925E+04  0.91465527788E+02 0.  0.
         13    1    3    3    0    0  0.57522759136E+02 -0.62562308223E+03 -0.87366876594E+03  0.10761088334E+04  0.00000000000E+00 0.  1.
        -13    1    3    3    0    0 -0.34938305044E+02 -0.27822988896E+03 -0.40326339372E+03  0.49117605905E+03  0.00000000000E+00 0. -1.
         22    1    1    2    0    0 -0.22584454092E+02  0.90385297119E+03  0.27902568867E+03  0.94621117413E+03  0.00000000000E+00 0.  1.
<mgrwt>
<rscale>  0 0.23069125E+04</rscale>
<asrwt>0</asrwt>
<pdfrwt beam="1">  1        1 0.11658382E+00 0.23069125E+04</pdfrwt>
<pdfrwt beam="2">  1       -1 0.27010788E+00 0.23069125E+04</pdfrwt>
<totfact> 0.11230445E+00</totfact>
</mgrwt>
</event>
<event>
 6    1  0.1762360E-005  0.2131018E+04  0.7818608E-02  0.8547702E-01
          2   -1    0    0  501    0  0.00000000000E+00  0.00000000000E+00  0.21907268861E+04  0.21907268861E+04  0.00000000000E+00 0. -1.
         -2   -1    0    0    0  501 -0.00000000000E+00 -0.00000000000E+00 -0.51823395424E+03  0.51823395424E+03  0.00000000000E+00 0.  1.
         23    2    1    2    0    0  0.46074299999E+03 -0.61489860094E+03 -0.97131191776E+02  0.77972421918E+03  0.90282822747E+02 0.  0.
         11    1    3    3    0    0  0.54208999133E+02 -0.12989136127E+03 -0.21066069938E+02  0.14231711290E+03  0.00000000000E+00 0.  1.
        -11    1    3    3    0    0  0.40653400086E+03 -0.48500723967E+03 -0.76065121837E+02  0.63740710629E+03  0.00000000000E+00 0. -1.
         22    1    1    2    0    0 -0.46074299999E+03  0.61489860094E+03  0.17696241236E+04  0.19292366211E+04  0.00000000000E+00 0. -1.
<mgrwt>
<rscale>  0 0.21310177E+04</rscale>
<asrwt>0</asrwt>
<pdfrwt beam="1">  1        2 0.33703490E+00 0.21310177E+04</pdfrwt>
<pdfrwt beam="2">  1       -2 0.79728302E-01 0.21310177E+04</pdfrwt>
<totfact> 0.66911350E+00</totfact>
</mgrwt>
</event>
<event>
 6    1  0.1762360E-005  0.2809816E+04  0.7818608E-02  0.8300227E-01
         -2   -1    0    0    0  501 -0.00000000000E+00  0.00000000000E+00  0.25098398786E+04  0.25098398786E+04  0.00000000000E+00 0. -1.
          2   -1    0    0  501    0  0.00000000000E+00 -0.00000000000E+00 -0.78641106522E+03  0.78641106522E+03  0.00000000000E+00 0.  1.
         23    2    1    2    0    0 -0.37022880907E+02  0.82901017582E+03  0.21903623297E+04  0.23440663641E+04  0.91276603043E+02 0.  0.
         13    1    3    3    0    0  0.27700129177E+02  0.36907995083E+03  0.94231580669E+03  0.10123963585E+04  0.00000000000E+00 0. -1.
        -13    1    3    3    0    0 -0.64723010084E+02  0.45993022499E+03  0.12480465231E+04  0.13316700055E+04  0.00000000000E+00 0.  1.
         22    1    1    2    0    0  0.37022880907E+02 -0.82901017582E+03 -0.46693351633E+03  0.95218457979E+03  0.00000000000E+00 0.  1.
<mgrwt>
<rscale>  0 0.28098155E+04</rscale>
<asrwt>0</asrwt>
<pdfrwt beam="1">  1        2 0.12098632E+00 0.28098155E+04</pdfrwt>
<pdfrwt beam="2">  1       -2 0.38612921E+00 0.28098155E+04</pdfrwt>
<totfact> 0.27991800E-01</totfact>
</mgrwt>
</event>
<event>
 6    1  0.1762360E-005  0.1060378E+04  0.7818608E-02  0.9244694E-01
         -1   -1    0    0    0  501 -0.00000000000E+00  0.00000000000E+00  0.15628921465E+03  0.15628921465E+03  0.00000000000E+00 0.  1.
          1   -1    0    0  501    0  0.00000000000E+00 -0.00000000000E+00 -0.17985924352E+04  0.17985924352E+04  0.00000000000E+00 0. -1.
         23    2    1    2    0    0  0.26095585487E+03  0.45520593910E+03 -0.90369487358E+03  0.10488724361E+04  0.90324733644E+02 0.  0.
         13    1    3    3    0    0  0.18873769129E+03  0.34435636865E+03 -0.59358398775E+03  0.71171987134E+03  0.00000000000E+00 0. -1.
        -13    1    3    3    0    0  0.72218163571E+02  0.11084957044E+03 -0.31011088583E+03  0.33715256477E+03  0.00000000000E+00 0.  1.
         22    1    1    2    0    0 -0.26095585487E+03 -0.45520593910E+03 -0.73860834693E+03  0.90600921371E+03  0.00000000000E+00 0. -1.
<mgrwt>
<rscale>  0 0.10603784E+04</rscale>
<asrwt>0</asrwt>
<pdfrwt beam="1">  1        1 0.27670654E+00 0.10603784E+04</pdfrwt>
<pdfrwt beam="2">  1       -1 0.24044493E-01 0.10603784E+04</pdfrwt>
<totfact> 0.61181134E+01</totfact>
</mgrwt>
</event>
<event>
 6    1  0.1762360E-005  0.3299176E+04  0.7818608E-02  0.8163105E-01
          1   -1    0    0  501    0  0.00000000000E+00  0.00000000000E+00  0.35685165854E+04  0.35685165854E+04  0.00000000000E+00 0. -1.
         -1   -1    0    0    0  501 -0.00000000000E+00 -0.00000000000E+00 -0.76254113532E+03  0.76254113532E+03  0.00000000000E+00 0.  1.
         23    2    1    2    0    0 -0.58947026695E+01  0.13366508303E+04  0.13808817113E+03  0.13470515675E+04  0.93858365744E+02 0.  0.
         13    1    3    3    0    0 -0.38421889047E+02  0.32000572232E+03  0.48756984759E+02  0.32597108374E+03  0.00000000000E+00 0.  1.
        -13    1    3    3    0    0  0.32527186377E+02  0.10166451079E+04  0.89331186374E+02  0.10210804837E+04  0.00000000000E+00 0. -1.
         22    1    1    2    0    0  0.58947026695E+01 -0.13366508303E+04  0.26678872790E+04  0.29840061533E+04  0.00000000000E+00 0. -1.
<mgrwt>
<rscale>  0 0.32991761E+04</rscale>
<asrwt>0</asrwt>
<pdfrwt beam="1">  1        1 0.54900254E+00 0.32991761E+04</pdfrwt>
<pdfrwt beam="2">  1       -1 0.11731402E+00 0.32991761E+04</pdfrwt>
<totfact> 0.11949167E-01</totfact>
</mgrwt>
</event>
<event>
 6    1  0.1926526E-005  0.3077142E+04  0.7818608E-02  0.8222039E-01
         -2   -1    0    0    0  501 -0.00000000000E+00  0.00000000000E+00  0.12122651825E+04  0.12122651825E+04  0.00000000000E+00 0. -1.
          2   -1    0    0  501    0  0.00000000000E+00 -0.00000000000E+00 -0.19527088296E+04  0.19527088296E+04  0.00000000000E+00 0.  1.
         23    2    1    2    0    0 -0.13412692919E+04  0.48511874899E+03  0.21775941741E+03  0.14466909659E+04  0.10560337562E+03 0.  0.
         11    1    3    3    0    0 -0.89164586957E+03  0.30288826176E+03  0.96501344582E+02  0.94661827858E+03  0.00000000000E+00 0. -1.
        -11    1    3    3    0    0 -0.44962342236E+03  0.18223048723E+03  0.12125807283E+03  0.50007268735E+03  0.00000000000E+00 0.  1.
         22    1    1    2    0    0  0.13412692919E+04 -0.48511874899E+03 -0.95820306445E+03  0.17182830462E+04  0.00000000000E+00 0.  1.
<mgrwt>
<rscale>  0 0.30771421E+04</rscale>
<asrwt>0</asrwt>
<pdfrwt beam="1">  1        2 0.30041674E+00 0.30771421E+04</pdfrwt>
<pdfrwt beam="2">  1       -2 0.18650234E+00 0.30771421E+04</pdfrwt>
<totfact> 0.98825761E-01</totfact>
</mgrwt>
</event>
<event>
 6    1  0.1762360E-005  0.3147370E+04  0.7818608E-02  0.8202857E-01
          1   -1    0    0  501    0  0.00000000000E+00  0.00000000000E+00  0.21284655387E+04  0.21284655387E+04  0.00000000000E+00 0. -1.
         -1   -1    0    0    0  501 -0.00000000000E+00 -0.00000000000E+00 -0.11635066913E+04  0.11635066913E+04  0.00000000000E+00 0.  1.
         23    2    1    2    0    0  0.10324055110E+04 -0.72316737119E+03  0.14660051345E+04  0.19355506260E+04  0.91394669772E+02 0.  0.
         11    1    3    3    0    0  0.58712409999E+03 -0.46595651861E+03  0.87398608699E+03  0.11513825890E+04  0.00000000000E+00 0.  1.
        -11    1    3    3    0    0  0.44528141097E+03 -0.25721085258E+03  0.59201904750E+03  0.78416803700E+03  0.00000000000E+00 0. -1.
         22    1    1    2    0    0 -0.10324055110E+04  0.72316737119E+03 -0.50104628708E+03  0.13564216039E+04  0.00000000000E+00 0.  1.
<mgrwt>
<rscale>  0 0.31473696E+04</rscale>
<asrwt>0</asrwt>
<pdfrwt beam="1">  1        1 0.32745624E+00 0.31473696E+04</pdfrwt>
<pdfrwt beam="2">  1       -1 0.17900103E+00 0.31473696E+04</pdfrwt>
<totfact> 0.43338467E-01</totfact>
</mgrwt>
</event>
<event>
 6    1  0.1762360E-005  0.2782596E+04  0.7818608E-02  0.8308692E-01
         -2   -1    0    0    0  501 -0.00000000000E+00  0.00000000000E+00  0.85117614928E+03  0.85117614928E+03  0.00000000000E+00 0.  1.
          2   -1    0    0  501    0  0.00000000000E+00 -0.00000000000E+00 -0.22741590395E+04  0.22741590395E+04  0.00000000000E+00 0. -1.
         23    2    1    2    0    0 -0.68050905541E+03  0.10628546999E+04 -0.58247801300E+02  0.12665036874E+04  0.88803694682E+02 0.  0.
         11    1    3    3    0    0 -0.22206880938E+03  0.28203390957E+03  0.29947575690E+01  0.35898001451E+03  0.00000000000E+00 0.  1.
        -11    1    3    3    0    0 -0.45844024603E+03  0.78082079035E+03 -0.61242558869E+02  0.90752367288E+03  0.00000000000E+00 0. -1.
         22    1    1    2    0    0  0.68050905541E+03 -0.10628546999E+04 -0.13647350889E+04  0.18588315014E+04  0.00000000000E+00 0. -1.
<mgrwt>
<rscale>  0 0.27825959E+04</rscale>
<asrwt>0</asrwt>
<pdfrwt beam="1">  1        2 0.34987062E+00 0.27825959E+04</pdfrwt>
<pdfrwt beam="2">  1       -2 0.13095018E+00 0.27825959E+04</pdfrwt>
<totfact> 0.17419580E+00</totfact>
</mgrwt>
</event>
<event>
 6    1  0.1762360E-005  0.1783094E+04  0.7818608E-02  0.8715342E-01
          2   -1    0    0  501    0  0.00000000000E+00  0.00000000000E+00  0.12833381026E+04  0.12833381026E+04  0.00000000000E+00 0. -1.
         -2   -1    0    0    0  501 -0.00000000000E+00 -0.00000000000E+00 -0.61936602542E+03  0.61936602542E+03  0.00000000000E+00 0.  1.
         23    2    1    2    0    0  0.82307719013E+03 -0.18019761300E+03  0.29360123683E+02  0.84787733080E+03  0.90037273249E+02 0.  0.
         13    1    3    3    0    0  0.24207876624E+03 -0.29359728423E+02 -0.25159716523E+02  0.24514716816E+03  0.00000000000E+00 0. -1.
        -13    1    3    3    0    0  0.58099842389E+03 -0.15083788458E+03  0.54519840205E+02  0.60273016264E+03  0.00000000000E+00 0.  1.
         22    1    1    2    0    0 -0.82307719013E+03  0.18019761300E+03  0.63461195353E+03  0.10548267973E+04  0.00000000000E+00 0. -1.
<mgrwt>
<rscale>  0 0.17830940E+04</rscale>
<asrwt>0</asrwt>
<pdfrwt beam="1">  1        2 0.19743663E+00 0.17830940E+04</pdfrwt>
<pdfrwt beam="2">  1       -2 0.95287081E-01 0.17830940E+04</pdfrwt>
<totfact> 0.14793197E+01</totfact>
</mgrwt>
</event>
<event>
 6    1  0.1762360E-005  0.1968790E+04  0.7818608E-02  0.8621353E-01
          1   -1    0    0  501    0  0.00000000000E+00  0.00000000000E+00  0.89531888004E+03  0.89531888004E+03  0.00000000000E+00 0. -1.
         -1   -1    0    0    0  501 -0.00000000000E+00 -0.00000000000E+00 -0.10823336481E+04  0.10823336481E+04  0.00000000000E+00 0.  1.
         23    2    1    2    0    0  0.37155842910E+02 -0.62249459214E+03  0.66869107296E+03  0.91882649888E+03  0.90632831154E+02 0.  0.
         13    1    3    3    0    0  0.43490614384E+02 -0.36670530548E+03  0.33715911034E+03  0.50004047865E+03  0.00000000000E+00 0.  1.
        -13    1    3    3    0    0 -0.63347714744E+01 -0.25578928667E+03  0.33153196262E+03  0.41878602023E+03  0.00000000000E+00 0. -1.
         22    1    1    2    0    0 -0.37155842910E+02  0.62249459214E+03 -0.85570584104E+03  0.10588260293E+04  0.00000000000E+00 0.  1.
<mgrwt>
<rscale>  0 0.19687902E+04</rscale>
<asrwt>0</asrwt>
<pdfrwt beam="1">  1        1 0.13774137E+00 0.19687902E+04</pdfrwt>
<pdfrwt beam="2">  1       -1 0.16651287E+00 0.19687902E+04</pdfrwt>
<totfact> 0.44589710E+00</totfact>
</mgrwt>
</event>
<event>
 6    1  0.1762360E-005  0.3069910E+04  0.7818608E-02  0.8224045E-01
          2   -1    0    0  501    0  0.00000000000E+00  0.00000000000E+00  0.25594648258E+04  0.25594648258E+04  0.00000000000E+00 0. -1.
         -2   -1    0    0    0  501 -0.00000000000E+00 -0.00000000000E+00 -0.92053903821E+03  0.92053903821E+03  0.00000000000E+00 0.  1.
         23    2    1    2    0    0 -0.12682930718E+04  0.43745392394E+03  0.16623988695E+04  0.21381826251E+04  0.91223271352E+02 0.  0.
         13    1    3    3    0    0 -0.93840092748E+02  0.47118497890E+02  0.16430264228E+03  0.19499095905E+03  0.00000000000E+00 0. -1.
        -13    1    3    3    0    0 -0.11744529791E+04  0.39033542605E+03  0.14980962272E+04  0.19431916660E+04  0.00000000000E+00 0.  1.
         22    1    1    2    0    0  0.12682930718E+04 -0.43745392394E+03 -0.23473081928E+02  0.13418212389E+04  0.00000000000E+00 0. -1.
<mgrwt>
<rscale>  0 0.30699103E+04</rscale>
<asrwt>0</asrwt>
<pdfrwt beam="1">  1        2 0.39376382E+00 0.30699103E+04</pdfrwt>
<pdfrwt beam="2">  1       -2 0.14162139E+00 0.30699103E+04</pdfrwt>
<totfact> 0.95330330E-01</totfact>
</mgrwt>
</event>
<event>
 6    1  0.1762360E-005  0.4314492E+04  0.7818608E-02  0.7943944E-01
          2   -1    0    0  501    0  0.00000000000E+00  0.00000000000E+00  0.22320015559E+04  0.22320015559E+04  0.00000000000E+00 0. -1.
         -2   -1    0    0    0  501 -0.00000000000E+00 -0.00000000000E+00 -0.20849942745E+04  0.20849942745E+04  0.00000000000E+00 0.  1.
         23    2    1    2    0    0  0.79986964857E+03 -0.89668677205E+03  0.18649899637E+04  0.22204980083E+04  0.92656453279E+02 0.  0.
         13    1    3    3    0    0  0.40253351089E+03 -0.40233798316E+03  0.94273338268E+03  0.11012062981E+04  0.00000000000E+00 0.  1.
        -13    1    3    3    0    0  0.39733613768E+03 -0.49434878889E+03  0.92225658098E+03  0.11192917102E+04  0.00000000000E+00 0. -1.
         22    1    1    2    0    0 -0.79986964857E+03  0.89668677205E+03 -0.17179826823E+04  0.20964978222E+04  0.00000000000E+00 0.  1.
<mgrwt>
<rscale>  0 0.43144921E+04</rscale>
<asrwt>0</asrwt>
<pdfrwt beam="1">  1        2 0.34338486E+00 0.43144921E+04</pdfrwt>
<pdfrwt beam="2">  1       -2 0.32076835E+00 0.43144921E+04</pdfrwt>
<totfact> 0.90236866E-02</totfact>
</mgrwt>
</event>
<event>
 6    1  0.1762360E-005  0.3315381E+04  0.7818608E-02  0.8158993E-01
          2   -1    0    0  501    0  0.00000000000E+00  0.00000000000E+00  0.20077423890E+04  0.20077423890E+04  0.00000000000E+00 0. -1.
         -2   -1    0    0    0  501 -0.00000000000E+00 -0.00000000000E+00 -0.13686704836E+04  0.13686704836E+04  0.00000000000E+00 0.  1.
         23    2    1    2    0    0 -0.11595830247E+04 -0.11820053669E+04  0.27379555568E+03  0.16807724950E+04  0.90899368341E+02 0.  0.
         13    1    3    3    0    0 -0.66252468864E+03 -0.62725972353E+03  0.18130822102E+03  0.93019696561E+03  0.00000000000E+00 0.  1.
        -13    1    3    3    0    0 -0.49705833607E+03 -0.55474564333E+03  0.92487334662E+02  0.75057552939E+03  0.00000000000E+00 0. -1.
         22    1    1    2    0    0  0.11595830247E+04  0.11820053669E+04  0.36527634977E+03  0.16956403776E+04  0.00000000000E+00 0. -1.
<mgrwt>
<rscale>  0 0.33153810E+04</rscale>
<asrwt>0</asrwt>
<pdfrwt beam="1">  1        2 0.30888345E+00 0.33153810E+04</pdfrwt>
<pdfrwt beam="2">  1       -2 0.21056469E+00 0.33153810E+04</pdfrwt>
<totfact> 0.62666054E-01</totfact>
</mgrwt>
</event>
<event>
 6    1  0.1762360E-005  0.5059564E+04  0.7818608E-02  0.7819384E-01
         -1   -1    0    0    0  501 -0.00000000000E+00  0.00000000000E+00  0.12614978485E+04  0.12614978485E+04  0.00000000000E+00 0.  1.
          1   -1    0    0  501    0  0.00000000000E+00 -0.00000000000E+00 -0.50731721815E+04  0.50731721815E+04  0.00000000000E+00 0. -1.
         23    2    1    2    0    0 -0.10177598004E+04  0.23107734797E+04 -0.17291723539E+04  0.30617014113E+04  0.92029433130E+02 0.  0.
         11    1    3    3    0    0 -0.55039676818E+03  0.12347443512E+04 -0.87056032520E+03  0.16079196171E+04  0.00000000000E+00 0.  1.
        -11    1    3    3    0    0 -0.46736303219E+03  0.10760291285E+04 -0.85861202870E+03  0.14537817942E+04  0.00000000000E+00 0. -1.
         22    1    1    2    0    0  0.10177598004E+04 -0.23107734797E+04 -0.20825019791E+04  0.32729686187E+04  0.00000000000E+00 0.  1.
<mgrwt>
<rscale>  0 0.50595635E+04</rscale>
<asrwt>0</asrwt>
<pdfrwt beam="1">  1        1 0.78048803E+00 0.50595635E+04</pdfrwt>
<pdfrwt beam="2">  1       -1 0.19407659E+00 0.50595635E+04</pdfrwt>
<totfact> 0.81158313E-04</totfact>
</mgrwt>
</event>
<event>
 6    1  0.1762360E-005  0.2622246E+04  0.7818608E-02  0.8360684E-01
         -2   -1    0    0    0  501 -0.00000000000E+00  0.00000000000E+00  0.18032922923E+04  0.18032922923E+04  0.00000000000E+00 0. -1.
          2   -1    0    0  501    0  0.00000000000E+00 -0.00000000000E+00 -0.95328056424E+03  0.95328056424E+03  0.00000000000E+00 0.  1.
         23    2    1    2    0    0  0.55593144642E+03  0.46326573600E+03  0.15728949841E+04  0.17337165044E+04  0.89996508811E+02 0.  0.
         13    1    3    3    0    0  0.38911500057E+03  0.28375167500E+03  0.11096131945E+04  0.12096143758E+04  0.00000000000E+00 0. -1.
        -13    1    3    3    0    0  0.16681644585E+03  0.17951406100E+03  0.46328178959E+03  0.52410212866E+03  0.00000000000E+00 0.  1.
         22    1    1    2    0    0 -0.55593144642E+03 -0.46326573600E+03 -0.72288325599E+03  0.10228563521E+04  0.00000000000E+00 0.  1.
<mgrwt>
<rscale>  0 0.26222460E+04</rscale>
<asrwt>0</asrwt>
<pdfrwt beam="1">  1        2 0.14665855E+00 0.26222460E+04</pdfrwt>
<pdfrwt beam="2">  1       -2 0.27742958E+00 0.26222460E+04</pdfrwt>
<totfact> 0.10414078E+00</totfact>
</mgrwt>
</event>
<event>
 6    1  0.1762360E-005  0.1182958E+04  0.7818608E-02  0.9127905E-01
         -1   -1    0    0    0  501 -0.00000000000E+00  0.00000000000E+00  0.22973612544E+03  0.22973612544E+03  0.00000000000E+00 0.  1.
          1   -1    0    0  501    0  0.00000000000E+00 -0.00000000000E+00 -0.15228231366E+04  0.15228231366E+04  0.00000000000E+00 0. -1.
         23    2    1    2    0    0  0.24098953242E+03 -0.42189242293E+03 -0.11409388514E+04  0.12434244726E+04  0.91070221377E+02 0.  0.
         13    1    3    3    0    0 -0.23644262714E+01 -0.48875816832E+02 -0.11621301070E+03  0.12609480496E+03  0.00000000000E+00 0.  1.
        -13    1    3    3    0    0  0.24335395869E+03 -0.37301660610E+03 -0.10247258407E+04  0.11173296677E+04  0.00000000000E+00 0. -1.
         22    1    1    2    0    0 -0.24098953242E+03  0.42189242293E+03 -0.15214815975E+03  0.50913478940E+03  0.00000000000E+00 0.  1.
<mgrwt>
<rscale>  0 0.11829581E+04</rscale>
<asrwt>0</asrwt>
<pdfrwt beam="1">  1        1 0.23428048E+00 0.11829581E+04</pdfrwt>
<pdfrwt beam="2">  1       -1 0.35344020E-01 0.11829581E+04</pdfrwt>
<totfact> 0.47647849E+01</totfact>
</mgrwt>
</event>
<event>
 6    1  0.1762360E-005  0.4925691E+03  0.7818608E-02  0.1015737E+00
          3   -1    0    0  501    0  0.00000000000E+00  0.00000000000E+00  0.45831452347E+02  0.45831452347E+02  0.00000000000E+00 0. -1.
         -3   -1    0    0    0  501 -0.00000000000E+00 -0.00000000000E+00 -0.13234598797E+04  0.13234598797E+04  0.00000000000E+00 0.  1.
         23    2    1    2    0    0 -0.63921774643E+02  0.57925077151E+02 -0.12769634044E+04  0.12830257532E+04  0.89879025687E+02 0.  0.
         13    1    3    3    0    0 -0.32636617572E+02 -0.20631071359E+01 -0.85897851864E+03  0.85960077984E+03  0.00000000000E+00 0. -1.
        -13    1    3    3    0    0 -0.31285157071E+02  0.59988184287E+02 -0.41798488580E+03  0.42342497336E+03  0.00000000000E+00 0.  1.
         22    1    1    2    0    0  0.63921774643E+02 -0.57925077151E+02 -0.66502290164E+00  0.86265578836E+02  0.00000000000E+00 0. -1.
<mgrwt>
<rscale>  0 0.49256914E+03</rscale>
<asrwt>0</asrwt>
<pdfrwt beam="1">  1        3 0.70509936E-02 0.49256914E+03</pdfrwt>
<pdfrwt beam="2">  1       -3 0.20360919E+00 0.49256914E+03</pdfrwt>
<totfact> 0.50937478E+01</totfact>
</mgrwt>
</event>
<event>
 6    1  0.1762360E-005  0.3947760E+04  0.7818608E-02  0.8015169E-01
          2   -1    0    0  501    0  0.00000000000E+00  0.00000000000E+00  0.17729090879E+04  0.17729090879E+04  0.00000000000E+00 0. -1.
         -2   -1    0    0    0  501 -0.00000000000E+00 -0.00000000000E+00 -0.21976320334E+04  0.21976320334E+04  0.00000000000E+00 0.  1.
         23    2    1    2    0    0  0.67613190097E+03 -0.56053157630E+03 -0.19891515103E+04  0.21764433732E+04  0.93978883224E+02 0.  0.
         11    1    3    3    0    0  0.15617611565E+03 -0.82565521396E+02 -0.42332663509E+03  0.45870849611E+03  0.00000000000E+00 0. -1.
        -11    1    3    3    0    0  0.51995578533E+03 -0.47796605491E+03 -0.15658248752E+04  0.17177348771E+04  0.00000000000E+00 0.  1.
         22    1    1    2    0    0 -0.67613190097E+03  0.56053157630E+03  0.15644285647E+04  0.17940977481E+04  0.00000000000E+00 0. -1.
<mgrwt>
<rscale>  0 0.39477598E+04</rscale>
<asrwt>0</asrwt>
<pdfrwt beam="1">  1        2 0.27275525E+00 0.39477598E+04</pdfrwt>
<pdfrwt beam="2">  1       -2 0.33809723E+00 0.39477598E+04</pdfrwt>
<totfact> 0.13075796E-01</totfact>
</mgrwt>
</event>
<event>
 6    1  0.1762360E-005  0.3053207E+04  0.7818608E-02  0.8228698E-01
         -1   -1    0    0    0  501 -0.00000000000E+00  0.00000000000E+00  0.95418167861E+03  0.95418167861E+03  0.00000000000E+00 0.  1.
          1   -1    0    0  501    0  0.00000000000E+00 -0.00000000000E+00 -0.24424257747E+04  0.24424257747E+04  0.00000000000E+00 0. -1.
         23    2    1    2    0    0 -0.12127435542E+04  0.78525279546E+03 -0.20070175840E+03  0.14613725444E+04  0.89216796000E+02 0.  0.
         11    1    3    3    0    0 -0.69106198990E+03  0.44765229657E+03 -0.15892179072E+03  0.83857938686E+03  0.00000000000E+00 0.  1.
        -11    1    3    3    0    0 -0.52168156435E+03  0.33760049889E+03 -0.41779967686E+02  0.62279315759E+03  0.00000000000E+00 0. -1.
         22    1    1    2    0    0  0.12127435542E+04 -0.78525279546E+03 -0.12875423377E+04  0.19352349089E+04  0.00000000000E+00 0. -1.
<mgrwt>
<rscale>  0 0.30532068E+04</rscale>
<asrwt>0</asrwt>
<pdfrwt beam="1">  1        1 0.37575781E+00 0.30532068E+04</pdfrwt>
<pdfrwt beam="2">  1       -1 0.14679718E+00 0.30532068E+04</pdfrwt>
<totfact> 0.46502737E-01</totfact>
</mgrwt>
</event>
<event>
 6    1  0.1762360E-005  0.5453013E+04  0.7818608E-02  0.7762188E-01
         -1   -1    0    0    0  501 -0.00000000000E+00  0.00000000000E+00  0.21642222078E+04  0.21642222078E+04  0.00000000000E+00 0. -1.
          1   -1    0    0  501    0  0.00000000000E+00 -0.00000000000E+00 -0.34348771709E+04  0.34348771709E+04  0.00000000000E+00 0.  1.
         23    2    1    2    0    0 -0.84175995521E+03 -0.13069999561E+03  0.20229174920E+04  0.21971496689E+04  0.98128370348E+02 0.  0.
         11    1    3    3    0    0 -0.46838422671E+03 -0.30143993812E+02  0.10453136700E+04  0.11458503885E+04  0.00000000000E+00 0. -1.
        -11    1    3    3    0    0 -0.37337572850E+03 -0.10055600180E+03  0.97760382205E+03  0.10512992804E+04  0.00000000000E+00 0.  1.
         22    1    1    2    0    0  0.84175995521E+03  0.13069999561E+03 -0.32935724550E+04  0.34019497098E+04  0.00000000000E+00 0.  1.
<mgrwt>
<rscale>  0 0.54530129E+04</rscale>
<asrwt>0</asrwt>
<pdfrwt beam="1">  1        1 0.52844264E+00 0.54530129E+04</pdfrwt>
<pdfrwt beam="2">  1       -1 0.33295726E+00 0.54530129E+04</pdfrwt>
<totfact> 0.39390227E-03</totfact>
</mgrwt>
</event>
<event>
 6    1  0.1762360E-005  0.2573419E+04  0.7818608E-02  0.8377287E-01
         -1   -1    0    0    0  501 -0.00000000000E+00  0.00000000000E+00  0.79780297300E+03  0.79780297300E+03  0.00000000000E+00 0.  1.
          1   -1    0    0  501    0  0.00000000000E+00 -0.00000000000E+00 -0.20752253564E+04  0.20752253564E+04  0.00000000000E+00 0. -1.
         23    2    1    2    0    0 -0.18657490256E+03  0.11315618902E+04 -0.12865444657E+04  0.17261518243E+04  0.95712865624E+02 0.  0.
         13    1    3    3    0    0 -0.73110036630E+02  0.64198784416E+03 -0.77557446080E+03  0.10094598624E+04  0.00000000000E+00 0. -1.
        -13    1    3    3    0    0 -0.11346486593E+03  0.48957404605E+03 -0.51097000488E+03  0.71669196190E+03  0.00000000000E+00 0.  1.
         22    1    1    2    0    0  0.18657490256E+03 -0.11315618902E+04  0.91220822884E+01  0.11468765051E+04  0.00000000000E+00 0.  1.
<mgrwt>
<rscale>  0 0.25734187E+04</rscale>
<asrwt>0</asrwt>
<pdfrwt beam="1">  1        1 0.31926543E+00 0.25734187E+04</pdfrwt>
<pdfrwt beam="2">  1       -1 0.12273892E+00 0.25734187E+04</pdfrwt>
<totfact> 0.13692150E+00</totfact>
</mgrwt>
</event>
<event>
 6    1  0.1762360E-005  0.2022137E+04  0.7818608E-02  0.8596340E-01
          2   -1    0    0  501    0  0.00000000000E+00  0.00000000000E+00  0.43578071453E+03  0.43578071453E+03  0.00000000000E+00 0. -1.
         -2   -1    0    0    0  501 -0.00000000000E+00 -0.00000000000E+00 -0.23458119091E+04  0.23458119091E+04  0.00000000000E+00 0.  1.
         23    2    1    2    0    0 -0.41802451350E+03  0.74622681537E+03 -0.16931558041E+04  0.18991902840E+04  0.92456498840E+02 0.  0.
         11    1    3    3    0    0 -0.31497635237E+03  0.62696242607E+03 -0.14178621667E+04  0.15819687449E+04  0.00000000000E+00 0. -1.
        -11    1    3    3    0    0 -0.10304816114E+03  0.11926438930E+03 -0.27529363742E+03  0.31722153910E+03  0.00000000000E+00 0.  1.
         22    1    1    2    0    0  0.41802451350E+03 -0.74622681537E+03 -0.21687539043E+03  0.88240233955E+03  0.00000000000E+00 0. -1.
<mgrwt>
<rscale>  0 0.20221371E+04</rscale>
<asrwt>0</asrwt>
<pdfrwt beam="1">  1        2 0.67043187E-01 0.20221371E+04</pdfrwt>
<pdfrwt beam="2">  1       -2 0.36089414E+00 0.20221371E+04</pdfrwt>
<totfact> 0.89028000E-01</totfact>
</mgrwt>
</event>
<event>
 6    1  0.1762360E-005  0.1896892E+04  0.7818608E-02  0.8656405E-01
          1   -1    0    0  501    0  0.00000000000E+00  0.00000000000E+00  0.73306221171E+03  0.73306221171E+03  0.00000000000E+00 0. -1.
         -1   -1    0    0    0  501 -0.00000000000E+00 -0.00000000000E+00 -0.12271125796E+04  0.12271125796E+04  0.00000000000E+00 0.  1.
         23    2    1    2    0    0 -0.25319182749E+03  0.19599691735E+03 -0.11677400621E+04  0.12142668229E+04  0.91138200128E+02 0.  0.
         13    1    3    3    0    0 -0.87064468562E+02  0.12409201933E+03 -0.50673311829E+03  0.52892107551E+03  0.00000000000E+00 0.  1.
        -13    1    3    3    0    0 -0.16612735893E+03  0.71904898020E+02 -0.66100694382E+03  0.68534574743E+03  0.00000000000E+00 0. -1.
         22    1    1    2    0    0  0.25319182749E+03 -0.19599691735E+03  0.67368969424E+03  0.74590796835E+03  0.00000000000E+00 0. -1.
<mgrwt>
<rscale>  0 0.18968920E+04</rscale>
<asrwt>0</asrwt>
<pdfrwt beam="1">  1        1 0.11277880E+00 0.18968920E+04</pdfrwt>
<pdfrwt beam="2">  1       -1 0.18878655E+00 0.18968920E+04</pdfrwt>
<totfact> 0.42796895E+00</totfact>
</mgrwt>
</event>
<event>
 6    1  0.1980341E-005  0.4338118E+04  0.7818608E-02  0.7939607E-01
          2   -1    0    0  501    0  0.00000000000E+00  0.00000000000E+00  0.26036647716E+04  0.26036647716E+04  0.00000000000E+00 0.  1.
         -2   -1    0    0    0  501 -0.00000000000E+00 -0.00000000000E+00 -0.18069978039E+04  0.18069978039E+04  0.00000000000E+00 0. -1.
         23    2    1    2    0    0 -0.81608216179E+03 -0.10192930106E+04 -0.13613335461E+04  0.18883789765E+04  0.88305145512E+02 0.  0.
         13    1    3    3    0    0 -0.54859736569E+03 -0.62060755715E+03 -0.84232113244E+03  0.11813626453E+04  0.00000000000E+00 0.  1.
        -13    1    3    3    0    0 -0.26748479610E+03 -0.39868545343E+03 -0.51901241368E+03  0.70701633112E+03  0.00000000000E+00 0. -1.
         22    1    1    2    0    0  0.81608216179E+03  0.10192930106E+04  0.21580005138E+04  0.25222835990E+04  0.00000000000E+00 0.  1.
<mgrwt>
<rscale>  0 0.43381178E+04</rscale>
<asrwt>0</asrwt>
<pdfrwt beam="1">  1        2 0.40056381E+00 0.43381178E+04</pdfrwt>
<pdfrwt beam="2">  1       -2 0.27799966E+00 0.43381178E+04</pdfrwt>
<totfact> 0.10068143E-01</totfact>
</mgrwt>
</event>
<event>
 6    1  0.1762360E-005  0.6830096E+04  0.7818608E-02  0.7595216E-01
          1   -1    0    0  501    0  0.00000000000E+00  0.00000000000E+00  0.38252088182E+04  0.38252088182E+04  0.00000000000E+00 0. -1.
         -1   -1    0    0    0  501 -0.00000000000E+00 -0.00000000000E+00 -0.30488670598E+04  0.30488670598E+04  0.00000000000E+00 0.  1.
         23    2    1    2    0    0  0.19357516945E+04 -0.17399067645E+04  0.26124908135E+04  0.36888202329E+04  0.88748452474E+02 0.  0.
         13    1    3    3    0    0  0.16477072020E+04 -0.14381736100E+04  0.22033565801E+04  0.31045229223E+04  0.00000000000E+00 0. -1.
        -13    1    3    3    0    0  0.28804449256E+03 -0.30173315456E+03  0.40913423334E+03  0.58429731058E+03  0.00000000000E+00 0.  1.
         22    1    1    2    0    0 -0.19357516945E+04  0.17399067645E+04 -0.18361490551E+04  0.31852556451E+04  0.00000000000E+00 0.  1.
<mgrwt>
<rscale>  0 0.68300961E+04</rscale>
<asrwt>0</asrwt>
<pdfrwt beam="1">  1        1 0.58849366E+00 0.68300961E+04</pdfrwt>
<pdfrwt beam="2">  1       -1 0.46905647E+00 0.68300961E+04</pdfrwt>
<totfact> 0.20501703E-04</totfact>
</mgrwt>
</event>
<event>
 6    1  0.1762360E-005  0.4869724E+04  0.7818608E-02  0.7848924E-01
          2   -1    0    0  501    0  0.00000000000E+00  0.00000000000E+00  0.29195259358E+04  0.29195259358E+04  0.00000000000E+00 0. -1.
         -2   -1    0    0    0  501 -0.00000000000E+00 -0.00000000000E+00 -0.20306562293E+04  0.20306562293E+04  0.00000000000E+00 0.  1.
         23    2    1    2    0    0  0.19222029277E+04 -0.98379086277E+03  0.15863894536E+04  0.26809879569E+04  0.91413181502E+02 0.  0.
         11    1    3    3    0    0  0.64052788702E+03 -0.31596307219E+03  0.47341322853E+03  0.85687147343E+03  0.00000000000E+00 0.  1.
        -11    1    3    3    0    0  0.12816750407E+04 -0.66782779059E+03  0.11129762250E+04  0.18241164835E+04  0.00000000000E+00 0. -1.
         22    1    1    2    0    0 -0.19222029277E+04  0.98379086277E+03 -0.69751974701E+03  0.22691942082E+04  0.00000000000E+00 0.  1.
<mgrwt>
<rscale>  0 0.48697242E+04</rscale>
<asrwt>0</asrwt>
<pdfrwt beam="1">  1        2 0.44915784E+00 0.48697242E+04</pdfrwt>
<pdfrwt beam="2">  1       -2 0.31240865E+00 0.48697242E+04</pdfrwt>
<totfact> 0.38320902E-02</totfact>
</mgrwt>
</event>
<event>
 6    1  0.1762360E-005  0.1218085E+04  0.7818608E-02  0.9097173E-01
          1   -1    0    0  501    0  0.00000000000E+00  0.00000000000E+00  0.57186381677E+03  0.57186381677E+03  0.00000000000E+00 0. -1.
         -1   -1    0    0    0  501 -0.00000000000E+00 -0.00000000000E+00 -0.64863803390E+03  0.64863803390E+03  0.00000000000E+00 0.  1.
         23    2    1    2    0    0  0.55287728166E+03 -0.16402582741E+03  0.14658713599E+03  0.60206183362E+03  0.91721875415E+02 0.  0.
         11    1    3    3    0    0  0.34777350620E+02 -0.14923252185E+00 -0.10647838004E+02  0.36371181458E+02  0.00000000000E+00 0.  1.
        -11    1    3    3    0    0  0.51809993104E+03 -0.16387659488E+03  0.15723497399E+03  0.56569065216E+03  0.00000000000E+00 0. -1.
         22    1    1    2    0    0 -0.55287728166E+03  0.16402582741E+03 -0.22336135312E+03  0.61844001706E+03  0.00000000000E+00 0.  1.
<mgrwt>
<rscale>  0 0.12180848E+04</rscale>
<asrwt>0</asrwt>
<pdfrwt beam="1">  1        1 0.87979049E-01 0.12180848E+04</pdfrwt>
<pdfrwt beam="2">  1       -1 0.99790466E-01 0.12180848E+04</pdfrwt>
<totfact> 0.34759863E+01</totfact>
</mgrwt>
</event>
<event>
 6    1  0.1762360E-005  0.3464629E+04  0.7818608E-02  0.8122224E-01
         -1   -1    0    0    0  501 -0.00000000000E+00  0.00000000000E+00  0.13900266190E+04  0.13900266190E+04  0.00000000000E+00 0.  1.
          1   -1    0    0  501    0  0.00000000000E+00 -0.00000000000E+00 -0.21588894972E+04  0.21588894972E+04  0.00000000000E+00 0. -1.
         23    2    1    2    0    0  0.43484149641E+03  0.12712028921E+04 -0.15028318024E+04  0.20179836221E+04  0.93330342870E+02 0.  0.
         13    1    3    3    0    0  0.29911509807E+03  0.76537161586E+03 -0.96057117831E+03  0.12641046400E+04  0.00000000000E+00 0.  1.
        -13    1    3    3    0    0  0.13572639834E+03  0.50583127626E+03 -0.54226062408E+03  0.75387898212E+03  0.00000000000E+00 0. -1.
         22    1    1    2    0    0 -0.43484149641E+03 -0.12712028921E+04  0.73396892418E+03  0.15309324941E+04  0.00000000000E+00 0.  1.
<mgrwt>
<rscale>  0 0.34646292E+04</rscale>
<asrwt>0</asrwt>
<pdfrwt beam="1">  1        1 0.33213685E+00 0.34646292E+04</pdfrwt>
<pdfrwt beam="2">  1       -1 0.21385025E+00 0.34646292E+04</pdfrwt>
<totfact> 0.23019920E-01</totfact>
</mgrwt>
</event>
<event>
 6    1  0.1762360E-005  0.1810653E+04  0.7818608E-02  0.8700655E-01
          1   -1    0    0  501    0  0.00000000000E+00  0.00000000000E+00  0.14196818630E+04  0.14196818630E+04  0.00000000000E+00 0.  1.
         -1   -1    0    0    0  501 -0.00000000000E+00 -0.00000000000E+00 -0.57732397913E+03  0.57732397913E+03  0.00000000000E+00 0. -1.
         23    2    1    2    0    0  0.74677491792E+03  0.50278701729E+03  0.34367801133E+03  0.96785610665E+03  0.90351009486E+02 0.  0.
         13    1    3    3    0    0  0.58872641155E+03  0.43753184274E+03  0.28815308880E+03  0.78807683867E+03  0.00000000000E+00 0. -1.
        -13    1    3    3    0    0  0.15804850637E+03  0.65255174547E+02  0.55524922525E+02  0.17977926797E+03  0.00000000000E+00 0.  1.
         22    1    1    2    0    0 -0.74677491792E+03 -0.50278701729E+03  0.49867987256E+03  0.10291497355E+04  0.00000000000E+00 0. -1.
<mgrwt>
<rscale>  0 0.18106533E+04</rscale>
<asrwt>0</asrwt>
<pdfrwt beam="1">  1        1 0.21841259E+00 0.18106533E+04</pdfrwt>
<pdfrwt beam="2">  1       -1 0.88819074E-01 0.18106533E+04</pdfrwt>
<totfact> 0.87255961E+00</totfact>
</mgrwt>
</event>
<event>
 6    1  0.1762360E-005  0.1268948E+04  0.7818608E-02  0.9054559E-01
          2   -1    0    0  501    0  0.00000000000E+00  0.00000000000E+00  0.15796710660E+04  0.15796710660E+04  0.00000000000E+00 0. -1.
         -2   -1    0    0    0  501 -0.00000000000E+00 -0.00000000000E+00 -0.25483606418E+03  0.25483606418E+03  0.00000000000E+00 0.  1.
         23    2    1    2    0    0 -0.33420517518E+03  0.53224475655E+03  0.74521536081E+03  0.97955888132E+03  0.95979622830E+02 0.  0.
         11    1    3    3    0    0 -0.12233891215E+03  0.11733796765E+03  0.21390115809E+03  0.27292620525E+03  0.00000000000E+00 0.  1.
        -11    1    3    3    0    0 -0.21186626303E+03  0.41490678890E+03  0.53131420272E+03  0.70663267608E+03  0.00000000000E+00 0. -1.
         22    1    1    2    0    0  0.33420517518E+03 -0.53224475655E+03  0.57961964105E+03  0.85494824889E+03  0.00000000000E+00 0. -1.
<mgrwt>
<rscale>  0 0.12689478E+04</rscale>
<asrwt>0</asrwt>
<pdfrwt beam="1">  1        2 0.24302631E+00 0.12689478E+04</pdfrwt>
<pdfrwt beam="2">  1       -2 0.39205549E-01 0.12689478E+04</pdfrwt>
<totfact> 0.69143290E+01</totfact>
</mgrwt>
</event>
<event>
 6    1  0.1762360E-005  0.1430650E+04  0.7818608E-02  0.8931926E-01
          2   -1    0    0  501    0  0.00000000000E+00  0.00000000000E+00  0.22025385452E+04  0.22025385452E+04  0.00000000000E+00 0. -1.
         -2   -1    0    0    0  501 -0.00000000000E+00 -0.00000000000E+00 -0.23231828872E+03  0.23231828872E+03  0.00000000000E+00 0.  1.
         23    2    1    2    0    0  0.81321880834E+01 -0.46351812754E+03  0.19098108398E+04  0.19673480268E+04  0.90363863437E+02 0.  0.
         13    1    3    3    0    0  0.47997124583E+02 -0.24038282853E+03  0.94615789759E+03  0.97739572099E+03  0.00000000000E+00 0.  1.
        -13    1    3    3    0    0 -0.39864936499E+02 -0.22313529901E+03  0.96365294222E+03  0.98995230586E+03  0.00000000000E+00 0. -1.
         22    1    1    2    0    0 -0.81321880834E+01  0.46351812754E+03  0.60409416643E+02  0.46750880704E+03  0.00000000000E+00 0.  1.
<mgrwt>
<rscale>  0 0.14306502E+04</rscale>
<asrwt>0</asrwt>
<pdfrwt beam="1">  1        2 0.33885207E+00 0.14306502E+04</pdfrwt>
<pdfrwt beam="2">  1       -2 0.35741277E-01 0.14306502E+04</pdfrwt>
<totfact> 0.36833768E+01</totfact>
</mgrwt>
</event>
<event>
 6    1  0.1762360E-005  0.1567254E+04  0.7818608E-02  0.8840922E-01
          1   -1    0    0  501    0  0.00000000000E+00  0.00000000000E+00  0.29573340434E+04  0.29573340434E+04  0.00000000000E+00 0. -1.
         -1   -1    0    0    0  501 -0.00000000000E+00 -0.00000000000E+00 -0.20764345624E+03  0.20764345624E+03  0.00000000000E+00 0.  1.
         23    2    1    2    0    0  0.60573897035E+03  0.48976048084E+03  0.14950830350E+04  0.16882157928E+04  0.89522359181E+02 0.  0.
         11    1    3    3    0    0  0.10096951803E+03  0.12713009133E+03  0.32604458145E+03  0.36422791325E+03  0.00000000000E+00 0.  1.
        -11    1    3    3    0    0  0.50476945232E+03  0.36263038951E+03  0.11690384536E+04  0.13239878796E+04  0.00000000000E+00 0. -1.
         22    1    1    2    0    0 -0.60573897035E+03 -0.48976048084E+03  0.12546075521E+04  0.14767617068E+04  0.00000000000E+00 0.  1.
<mgrwt>
<rscale>  0 0.15672537E+04</rscale>
<asrwt>0</asrwt>
<pdfrwt beam="1">  1        1 0.45497444E+00 0.15672537E+04</pdfrwt>
<pdfrwt beam="2">  1       -1 0.31945149E-01 0.15672537E+04</pdfrwt>
<totfact> 0.56702117E+00</totfact>
</mgrwt>
</event>
<event>
 6    1  0.2054222E-005  0.3678428E+04  0.7818608E-02  0.8072759E-01
         -2   -1    0    0    0  501 -0.00000000000E+00  0.00000000000E+00  0.15357462787E+04  0.15357462787E+04  0.00000000000E+00 0.  1.
          2   -1    0    0  501    0  0.00000000000E+00 -0.00000000000E+00 -0.22026472735E+04  0.22026472735E+04  0.00000000000E+00 0. -1.
         23    2    1    2    0    0 -0.68488980498E+03  0.46624337078E+03 -0.20011671284E+04  0.21678130731E+04  0.91031414783E+02 0.  0.
         11    1    3    3    0    0 -0.56377111086E+03  0.34431579807E+03 -0.15424225118E+04  0.16779327874E+04  0.00000000000E+00 0.  1.
        -11    1    3    3    0    0 -0.12111869412E+03  0.12192757272E+03 -0.45874461659E+03  0.48988028569E+03  0.00000000000E+00 0. -1.
         22    1    1    2    0    0  0.68488980498E+03 -0.46624337078E+03  0.13342661337E+04  0.15705804791E+04  0.00000000000E+00 0.  1.
<mgrwt>
<rscale>  0 0.36784276E+04</rscale>
<asrwt>0</asrwt>
<pdfrwt beam="1">  1        2 0.33886881E+00 0.36784276E+04</pdfrwt>
<pdfrwt beam="2">  1       -2 0.23626866E+00 0.36784276E+04</pdfrwt>
<totfact> 0.32563571E-01</totfact>
</mgrwt>
</event>
<event>
 6    1  0.1762360E-005  0.5050078E+04  0.7818608E-02  0.7820828E-01
         -2   -1    0    0    0  501 -0.00000000000E+00  0.00000000000E+00  0.20246508530E+04  0.20246508530E+04  0.00000000000E+00 0.  1.
          2   -1    0    0  501    0  0.00000000000E+00 -0.00000000000E+00 -0.31490966112E+04  0.31490966112E+04  0.00000000000E+00 0. -1.
         23    2    1    2    0    0 -0.18120520050E+03  0.11962503604E+04  0.17067282592E+04  0.20948845952E+04  0.10848901802E+03 0.  0.
         13    1    3    3    0    0 -0.12496505700E+03  0.47335955597E+03  0.70105460045E+03  0.85508074912E+03  0.00000000000E+00 0. -1.
        -13    1    3    3    0    0 -0.56240143498E+02  0.72289080439E+03  0.10056736587E+04  0.12398038460E+04  0.00000000000E+00 0.  1.
         22    1    1    2    0    0  0.18120520050E+03 -0.11962503604E+04 -0.28311740174E+04  0.30788628690E+04  0.00000000000E+00 0. -1.
<mgrwt>
<rscale>  0 0.50500777E+04</rscale>
<asrwt>0</asrwt>
<pdfrwt beam="1">  1        2 0.48447640E+00 0.50500777E+04</pdfrwt>
<pdfrwt beam="2">  1       -2 0.31148475E+00 0.50500777E+04</pdfrwt>
<totfact> 0.27396482E-02</totfact>
</mgrwt>
</event>
<event>
 6    1  0.1762360E-005  0.1798726E+04  0.7818608E-02  0.8706977E-01
         -2   -1    0    0    0  501 -0.00000000000E+00  0.00000000000E+00  0.34329119167E+03  0.34329119167E+03  0.00000000000E+00 0.  1.
          2   -1    0    0  501    0  0.00000000000E+00 -0.00000000000E+00 -0.23561729790E+04  0.23561729790E+04  0.00000000000E+00 0. -1.
         23    2    1    2    0    0  0.46478711145E+03 -0.22525442725E+03  0.91657298480E+02  0.53247285097E+03  0.91431180033E+02 0.  0.
         11    1    3    3    0    0  0.21872865241E+03 -0.14087238569E+03  0.12081045646E+02  0.26044808331E+03  0.00000000000E+00 0. -1.
        -11    1    3    3    0    0  0.24605845905E+03 -0.84382041567E+02  0.79576252834E+02  0.27202476766E+03  0.00000000000E+00 0.  1.
         22    1    1    2    0    0 -0.46478711145E+03  0.22525442725E+03 -0.21045390858E+04  0.21669913197E+04  0.00000000000E+00 0. -1.
<mgrwt>
<rscale>  0 0.17987256E+04</rscale>
<asrwt>0</asrwt>
<pdfrwt beam="1">  1        2 0.36248817E+00 0.17987256E+04</pdfrwt>
<pdfrwt beam="2">  1       -2 0.52814027E-01 0.17987256E+04</pdfrwt>
<totfact> 0.13457071E+01</totfact>
</mgrwt>
</event>
<event>
 6    1  0.1762360E-005  0.3986376E+04  0.7818608E-02  0.8007301E-01
          2   -1    0    0  501    0  0.00000000000E+00  0.00000000000E+00  0.24699619260E+04  0.24699619260E+04  0.00000000000E+00 0. -1.
         -2   -1    0    0    0  501 -0.00000000000E+00 -0.00000000000E+00 -0.16084453767E+04  0.16084453767E+04  0.00000000000E+00 0.  1.
         23    2    1    2    0    0 -0.13634898604E+04  0.12819308732E+04 -0.26762311025E+03  0.18926791097E+04  0.90336704582E+02 0.  0.
         13    1    3    3    0    0 -0.72431412941E+03  0.73768394483E+03 -0.12984577170E+03  0.10419541664E+04  0.00000000000E+00 0.  1.
        -13    1    3    3    0    0 -0.63917573096E+03  0.54424692833E+03 -0.13777733855E+03  0.85072494325E+03  0.00000000000E+00 0. -1.
         22    1    1    2    0    0  0.13634898604E+04 -0.12819308732E+04  0.11291396596E+04  0.21857281930E+04  0.00000000000E+00 0. -1.
<mgrwt>
<rscale>  0 0.39863762E+04</rscale>
<asrwt>0</asrwt>
<pdfrwt beam="1">  1        2 0.37999414E+00 0.39863762E+04</pdfrwt>
<pdfrwt beam="2">  1       -2 0.24745314E+00 0.39863762E+04</pdfrwt>
<totfact> 0.19065710E-01</totfact>
</mgrwt>
</event>
<event>
 6    1  0.1762360E-005  0.3288797E+04  0.7818608E-02  0.8165752E-01
          2   -1    0    0  501    0  0.00000000000E+00  0.00000000000E+00  0.16168375561E+04  0.16168375561E+04  0.00000000000E+00 0.  1.
         -2   -1    0    0    0  501 -0.00000000000E+00 -0.00000000000E+00 -0.16724289645E+04  0.16724289645E+04  0.00000000000E+00 0. -1.
         23    2    1    2    0    0 -0.13420330326E+04 -0.13443533443E+02 -0.97585058172E+03  0.16619649705E+04  0.92789094376E+02 0.  0.
         11    1    3    3    0    0 -0.97670199720E+03 -0.15216376450E+02 -0.65857581688E+03  0.11780918623E+04  0.00000000000E+00 0. -1.
        -11    1    3    3    0    0 -0.36533103538E+03  0.17728430073E+01 -0.31727476484E+03  0.48387310815E+03  0.00000000000E+00 0.  1.
         22    1    1    2    0    0  0.13420330326E+04  0.13443533443E+02  0.92025917326E+03  0.16273015501E+04  0.00000000000E+00 0.  1.
<mgrwt>
<rscale>  0 0.32887967E+04</rscale>
<asrwt>0</asrwt>
<pdfrwt beam="1">  1        2 0.24874424E+00 0.32887967E+04</pdfrwt>
<pdfrwt beam="2">  1       -2 0.25729676E+00 0.32887967E+04</pdfrwt>
<totfact> 0.52876528E-01</totfact>
</mgrwt>
</event>
<event>
 6    1  0.1762360E-005  0.1949702E+04  0.7818608E-02  0.8630504E-01
         -1   -1    0    0    0  501 -0.00000000000E+00  0.00000000000E+00  0.33582214888E+03  0.33582214888E+03  0.00000000000E+00 0.  1.
          1   -1    0    0  501    0  0.00000000000E+00 -0.00000000000E+00 -0.28298750433E+04  0.28298750433E+04  0.00000000000E+00 0. -1.
         23    2    1    2    0    0 -0.71403721943E+03  0.87563633687E+02 -0.23133172861E+04  0.24239547161E+04  0.81259208443E+02 0.  0.
         13    1    3    3    0    0 -0.40279783665E+03  0.50324138999E+02 -0.14383490029E+04  0.14945321911E+04  0.00000000000E+00 0. -1.
        -13    1    3    3    0    0 -0.31123938278E+03  0.37239494688E+02 -0.87496828325E+03  0.92942252504E+03  0.00000000000E+00 0.  1.
         22    1    1    2    0    0  0.71403721943E+03 -0.87563633687E+02 -0.18073560831E+03  0.74174247605E+03  0.00000000000E+00 0.  1.
<mgrwt>
<rscale>  0 0.19497023E+04</rscale>
<asrwt>0</asrwt>
<pdfrwt beam="1">  1        1 0.43536539E+00 0.19497023E+04</pdfrwt>
<pdfrwt beam="2">  1       -1 0.51664946E-01 0.19497023E+04</pdfrwt>
<totfact> 0.27910645E+00</totfact>
</mgrwt>
</event>
<event>
 6    1  0.1762360E-005  0.2461712E+04  0.7818608E-02  0.8416754E-01
          1   -1    0    0  501    0  0.00000000000E+00  0.00000000000E+00  0.67510845742E+03  0.67510845742E+03  0.00000000000E+00 0. -1.
         -1   -1    0    0    0  501 -0.00000000000E+00 -0.00000000000E+00 -0.22440936131E+04  0.22440936131E+04  0.00000000000E+00 0.  1.
         23    2    1    2    0    0 -0.10972877717E+04  0.55257201829E+03 -0.74271279703E+03  0.14386270809E+04  0.93001557817E+02 0.  0.
         11    1    3    3    0    0 -0.41722074189E+03  0.24846373572E+03 -0.25839787035E+03  0.55006984541E+03  0.00000000000E+00 0. -1.
        -11    1    3    3    0    0 -0.68006702978E+03  0.30410828258E+03 -0.48431492668E+03  0.88855723549E+03  0.00000000000E+00 0.  1.
         22    1    1    2    0    0  0.10972877717E+04 -0.55257201829E+03 -0.82627235864E+03  0.14805749896E+04  0.00000000000E+00 0.  1.
<mgrwt>
<rscale>  0 0.24617121E+04</rscale>
<asrwt>0</asrwt>
<pdfrwt beam="1">  1        1 0.10386284E+00 0.24617121E+04</pdfrwt>
<pdfrwt beam="2">  1       -1 0.34524517E+00 0.24617121E+04</pdfrwt>
<totfact> 0.42870063E-01</totfact>
</mgrwt>
</event>
<event>
 6    1  0.1762360E-005  0.2568075E+04  0.7818608E-02  0.8379127E-01
         -1   -1    0    0    0  501 -0.00000000000E+00  0.00000000000E+00  0.60422786608E+03  0.60422786608E+03  0.00000000000E+00 0.  1.
          1   -1    0    0  501    0  0.00000000000E+00 -0.00000000000E+00 -0.27286933340E+04  0.27286933340E+04  0.00000000000E+00 0. -1.
         23    2    1    2    0    0 -0.10089237984E+04  0.18418744611E+03 -0.20628807424E+04  0.23054753744E+04  0.88811589681E+02 0.  0.
         11    1    3    3    0    0 -0.69771518118E+03  0.16740012315E+03 -0.14141974156E+04  0.15858069257E+04  0.00000000000E+00 0. -1.
        -11    1    3    3    0    0 -0.31120861722E+03  0.16787322959E+02 -0.64868332677E+03  0.71966844871E+03  0.00000000000E+00 0.  1.
         22    1    1    2    0    0  0.10089237984E+04 -0.18418744611E+03 -0.61584725546E+02  0.10274458257E+04  0.00000000000E+00 0.  1.
<mgrwt>
<rscale>  0 0.25680752E+04</rscale>
<asrwt>0</asrwt>
<pdfrwt beam="1">  1        1 0.41979897E+00 0.25680752E+04</pdfrwt>
<pdfrwt beam="2">  1       -1 0.92958134E-01 0.25680752E+04</pdfrwt>
<totfact> 0.92957155E-01</totfact>
</mgrwt>
</event>
<event>
 6    1  0.1762360E-005  0.1463671E+04  0.7818608E-02  0.8908977E-01
         -1   -1    0    0    0  501 -0.00000000000E+00  0.00000000000E+00  0.23843820162E+03  0.23843820162E+03  0.00000000000E+00 0.  1.
          1   -1    0    0  501    0  0.00000000000E+00 -0.00000000000E+00 -0.22462128068E+04  0.22462128068E+04  0.00000000000E+00 0. -1.
         23    2    1    2    0    0 -0.46601901978E+03  0.53483219124E+03 -0.12929436367E+04  0.14775747884E+04  0.91130718238E+02 0.  0.
         11    1    3    3    0    0 -0.95335626306E+02  0.15019851524E+03 -0.26599440312E+03  0.32000234080E+03  0.00000000000E+00 0. -1.
        -11    1    3    3    0    0 -0.37068339348E+03  0.38463367600E+03 -0.10269492336E+04  0.11575724476E+04  0.00000000000E+00 0.  1.
         22    1    1    2    0    0  0.46601901978E+03 -0.53483219124E+03 -0.71483096848E+03  0.10070762201E+04  0.00000000000E+00 0.  1.
<mgrwt>
<rscale>  0 0.14636706E+04</rscale>
<asrwt>0</asrwt>
<pdfrwt beam="1">  1        1 0.34557121E+00 0.14636706E+04</pdfrwt>
<pdfrwt beam="2">  1       -1 0.36682800E-01 0.14636706E+04</pdfrwt>
<totfact> 0.14036900E+01</totfact>
</mgrwt>
</event>
<event>
 6    1  0.1762360E-005  0.2036774E+04  0.7818608E-02  0.8589618E-01
         -2   -1    0    0    0  501 -0.00000000000E+00  0.00000000000E+00  0.35457622963E+03  0.35457622963E+03  0.00000000000E+00 0.  1.
          2   -1    0    0  501    0  0.00000000000E+00 -0.00000000000E+00 -0.29249332971E+04  0.29249332971E+04  0.00000000000E+00 0. -1.
         23    2    1    2    0    0 -0.97302896438E+03 -0.25420643200E+03 -0.10534755595E+04  0.14595271683E+04  0.94881637188E+02 0.  0.
         13    1    3    3    0    0 -0.46257395488E+03 -0.72721640802E+02 -0.47629398050E+03  0.66792144496E+03  0.00000000000E+00 0. -1.
        -13    1    3    3    0    0 -0.51045500950E+03 -0.18148479120E+03 -0.57718157899E+03  0.79160572338E+03  0.00000000000E+00 0.  1.
         22    1    1    2    0    0  0.97302896438E+03  0.25420643200E+03 -0.15168815080E+04  0.18199823584E+04  0.00000000000E+00 0.  1.
<mgrwt>
<rscale>  0 0.20367737E+04</rscale>
<asrwt>0</asrwt>
<pdfrwt beam="1">  1        2 0.44998973E+00 0.20367737E+04</pdfrwt>
<pdfrwt beam="2">  1       -2 0.54550190E-01 0.20367737E+04</pdfrwt>
<totfact> 0.56909182E+00</totfact>
</mgrwt>
</event>
<event>
 6    1  0.1762360E-005  0.7740853E+03  0.7818608E-02  0.9598304E-01
         -1   -1    0    0    0  501 -0.00000000000E+00  0.00000000000E+00  0.16834460577E+03  0.16834460577E+03  0.00000000000E+00 0.  1.
          1   -1    0    0  501    0  0.00000000000E+00 -0.00000000000E+00 -0.88985338807E+03  0.88985338807E+03  0.00000000000E+00 0. -1.
         23    2    1    2    0    0 -0.21477570832E+03 -0.26974353657E+03 -0.58956255550E+03  0.68900971238E+03  0.90885623190E+02 0.  0.
         11    1    3    3    0    0 -0.47007660031E+02 -0.11079100707E+03 -0.14923926857E+03  0.19172043874E+03  0.00000000000E+00 0.  1.
        -11    1    3    3    0    0 -0.16776804829E+03 -0.15895252950E+03 -0.44032328693E+03  0.49728927364E+03  0.00000000000E+00 0. -1.
         22    1    1    2    0    0  0.21477570832E+03  0.26974353657E+03 -0.13194622680E+03  0.36918828146E+03  0.00000000000E+00 0.  1.
<mgrwt>
<rscale>  0 0.77408531E+03</rscale>
<asrwt>0</asrwt>
<pdfrwt beam="1">  1        1 0.13690052E+00 0.77408531E+03</pdfrwt>
<pdfrwt beam="2">  1       -1 0.25899170E-01 0.77408531E+03</pdfrwt>
<totfact> 0.24699698E+02</totfact>
</mgrwt>
</event>
<event>
 6    1  0.1762360E-005  0.9950136E+03  0.7818608E-02  0.9314031E-01
         -1   -1    0    0    0  501 -0.00000000000E+00  0.00000000000E+00  0.52634078612E+03  0.52634078612E+03  0.00000000000E+00 0.  1.
          1   -1    0    0  501    0  0.00000000000E+00 -0.00000000000E+00 -0.47025239762E+03  0.47025239762E+03  0.00000000000E+00 0. -1.
         23    2    1    2    0    0 -0.44334022173E+03 -0.92598119871E+01  0.24508145153E+03  0.51456136509E+03  0.89845335059E+02 0.  0.
         11    1    3    3    0    0 -0.29242982730E+03  0.40461436583E+01  0.20715006934E+03  0.35838907127E+03  0.00000000000E+00 0.  1.
        -11    1    3    3    0    0 -0.15091039443E+03 -0.13305955645E+02  0.37931382190E+02  0.15617229382E+03  0.00000000000E+00 0. -1.
         22    1    1    2    0    0  0.44334022173E+03  0.92598119871E+01 -0.18899306303E+03  0.48203181865E+03  0.00000000000E+00 0. -1.
<mgrwt>
<rscale>  0 0.99501360E+03</rscale>
<asrwt>0</asrwt>
<pdfrwt beam="1">  1        1 0.72346523E-01 0.99501360E+03</pdfrwt>
<pdfrwt beam="2">  1       -1 0.80975505E-01 0.99501360E+03</pdfrwt>
<totfact> 0.73559082E+01</totfact>
</mgrwt>
</event>
<event>
 6    1  0.1762360E-005  0.2980537E+04  0.7818608E-02  0.8249311E-01
          1   -1    0    0  501    0  0.00000000000E+00  0.00000000000E+00  0.26818397448E+04  0.26818397448E+04  0.00000000000E+00 0. -1.
         -1   -1    0    0    0  501 -0.00000000000E+00 -0.00000000000E+00 -0.82812556646E+03  0.82812556646E+03  0.00000000000E+00 0.  1.
         23    2    1    2    0    0  0.93039763213E+03  0.11221311292E+04  0.56902957609E+03  0.15669695438E+04  0.82346025480E+02 0.  0.
         11    1    3    3    0    0  0.63754956787E+03  0.80881732718E+03  0.43111397468E+03  0.11164739941E+04  0.00000000000E+00 0. -1.
        -11    1    3    3    0    0  0.29284806426E+03  0.31331380200E+03  0.13791560141E+03  0.45049554978E+03  0.00000000000E+00 0.  1.
         22    1    1    2    0    0 -0.93039763213E+03 -0.11221311292E+04  0.12846846022E+04  0.19429957674E+04  0.00000000000E+00 0.  1.
<mgrwt>
<rscale>  0 0.29805369E+04</rscale>
<asrwt>0</asrwt>
<pdfrwt beam="1">  1        1 0.41259073E+00 0.29805369E+04</pdfrwt>
<pdfrwt beam="2">  1       -1 0.12740393E+00 0.29805369E+04</pdfrwt>
<totfact> 0.45952235E-01</totfact>
</mgrwt>
</event>
<event>
 6    1  0.1762360E-005  0.1118566E+04  0.7818608E-02  0.9187283E-01
          3   -1    0    0  501    0  0.00000000000E+00  0.00000000000E+00  0.24104996288E+03  0.24104996288E+03  0.00000000000E+00 0. -1.
         -3   -1    0    0    0  501 -0.00000000000E+00 -0.00000000000E+00 -0.12976456672E+04  0.12976456672E+04  0.00000000000E+00 0.  1.
         23    2    1    2    0    0  0.43610136471E+02 -0.39203830287E+03 -0.10697397985E+04  0.11440202671E+04  0.94038609479E+02 0.  0.
         13    1    3    3    0    0 -0.84065516981E+01 -0.17650525633E+03 -0.58232902886E+03  0.60854899021E+03  0.00000000000E+00 0. -1.
        -13    1    3    3    0    0  0.52016688169E+02 -0.21553304654E+03 -0.48741076966E+03  0.53547127689E+03  0.00000000000E+00 0.  1.
         22    1    1    2    0    0 -0.43610136471E+02  0.39203830287E+03  0.13144094214E+02  0.39467536297E+03  0.00000000000E+00 0. -1.
<mgrwt>
<rscale>  0 0.11185659E+04</rscale>
<asrwt>0</asrwt>
<pdfrwt beam="1">  1        3 0.37084611E-01 0.11185659E+04</pdfrwt>
<pdfrwt beam="2">  1       -3 0.19963779E+00 0.11185659E+04</pdfrwt>
<totfact> 0.27642845E+00</totfact>
</mgrwt>
</event>
<event>
 6    1  0.1762360E-005  0.1427533E+04  0.7818608E-02  0.8934126E-01
         -2   -1    0    0    0  501 -0.00000000000E+00  0.00000000000E+00  0.27130684898E+03  0.27130684898E+03  0.00000000000E+00 0.  1.
          2   -1    0    0  501    0  0.00000000000E+00 -0.00000000000E+00 -0.18778097978E+04  0.18778097978E+04  0.00000000000E+00 0. -1.
         23    2    1    2    0    0 -0.18470530755E+02 -0.69178019892E+03 -0.10514077132E+04  0.12619685618E+04  0.90584034869E+02 0.  0.
         11    1    3    3    0    0 -0.37515358398E+02 -0.20903108385E+03 -0.27394074075E+03  0.34661928044E+03  0.00000000000E+00 0. -1.
        -11    1    3    3    0    0  0.19044827642E+02 -0.48274911507E+03 -0.77746697250E+03  0.91534928136E+03  0.00000000000E+00 0.  1.
         22    1    1    2    0    0  0.18470530755E+02  0.69178019892E+03 -0.55509523557E+03  0.88714808498E+03  0.00000000000E+00 0.  1.
<mgrwt>
<rscale>  0 0.14275331E+04</rscale>
<asrwt>0</asrwt>
<pdfrwt beam="1">  1        2 0.28889381E+00 0.14275331E+04</pdfrwt>
<pdfrwt beam="2">  1       -2 0.41739516E-01 0.14275331E+04</pdfrwt>
<totfact> 0.41280031E+01</totfact>
</mgrwt>
</event>
<event>
 6    1  0.1762360E-005  0.3128074E+04  0.7818608E-02  0.8208075E-01
         -2   -1    0    0    0  501 -0.00000000000E+00  0.00000000000E+00  0.93522059303E+03  0.93522059303E+03  0.00000000000E+00 0.  1.
          2   -1    0    0  501    0  0.00000000000E+00 -0.00000000000E+00 -0.26156519960E+04  0.26156519960E+04  0.00000000000E+00 0. -1.
         23    2    1    2    0    0  0.61877333379E+03 -0.79936794463E+03  0.51191903743E+03  0.11366915678E+04  0.90205709477E+02 0.  0.
         13    1    3    3    0    0  0.41529144487E+03 -0.59441293626E+03  0.34351274217E+03  0.80236819915E+03  0.00000000000E+00 0. -1.
        -13    1    3    3    0    0  0.20348188892E+03 -0.20495500837E+03  0.16840629526E+03  0.33432336870E+03  0.00000000000E+00 0.  1.
         22    1    1    2    0    0 -0.61877333379E+03  0.79936794463E+03 -0.21923504404E+04  0.24141810212E+04  0.00000000000E+00 0. -1.
<mgrwt>
<rscale>  0 0.31280739E+04</rscale>
<asrwt>0</asrwt>
<pdfrwt beam="1">  1        2 0.40240799E+00 0.31280739E+04</pdfrwt>
<pdfrwt beam="2">  1       -2 0.14388009E+00 0.31280739E+04</pdfrwt>
<totfact> 0.84371244E-01</totfact>
</mgrwt>
</event>
<event>
 6    1  0.1762360E-005  0.1734707E+04  0.7818608E-02  0.8741813E-01
          1   -1    0    0  501    0  0.00000000000E+00  0.00000000000E+00  0.13363881136E+04  0.13363881136E+04  0.00000000000E+00 0. -1.
         -1   -1    0    0    0  501 -0.00000000000E+00 -0.00000000000E+00 -0.56293693247E+03  0.56293693247E+03  0.00000000000E+00 0.  1.
         23    2    1    2    0    0 -0.76146026799E+03 -0.37988799339E+03  0.55747104047E+03  0.10213819680E+04  0.91162142784E+02 0.  0.
         13    1    3    3    0    0 -0.39691695426E+03 -0.24872370535E+03  0.30572521217E+03  0.55935181732E+03  0.00000000000E+00 0. -1.
        -13    1    3    3    0    0 -0.36454331372E+03 -0.13116428804E+03  0.25174582829E+03  0.46203015064E+03  0.00000000000E+00 0.  1.
         22    1    1    2    0    0  0.76146026799E+03  0.37988799339E+03  0.21598014067E+03  0.87794307812E+03  0.00000000000E+00 0.  1.
<mgrwt>
<rscale>  0 0.17347072E+04</rscale>
<asrwt>0</asrwt>
<pdfrwt beam="1">  1        1 0.20559817E+00 0.17347072E+04</pdfrwt>
<pdfrwt beam="2">  1       -1 0.86605682E-01 0.17347072E+04</pdfrwt>
<totfact> 0.10627339E+01</totfact>
</mgrwt>
</event>
<event>
 6    1  0.1762360E-005  0.3916756E+04  0.7818608E-02  0.8021553E-01
         -2   -1    0    0    0  501 -0.00000000000E+00  0.00000000000E+00  0.21471388315E+04  0.21471388315E+04  0.00000000000E+00 0.  1.
          2   -1    0    0  501    0  0.00000000000E+00 -0.00000000000E+00 -0.17862120647E+04  0.17862120647E+04  0.00000000000E+00 0. -1.
         23    2    1    2    0    0  0.21904749355E+03  0.12450828325E+04  0.16811841770E+04  0.21054305771E+04  0.90799855169E+02 0.  0.
         13    1    3    3    0    0  0.15906604012E+03  0.10055156467E+04  0.12987269283E+04  0.16501682809E+04  0.00000000000E+00 0. -1.
        -13    1    3    3    0    0  0.59981453433E+02  0.23956718572E+03  0.38245724872E+03  0.45526229619E+03  0.00000000000E+00 0.  1.
         22    1    1    2    0    0 -0.21904749355E+03 -0.12450828325E+04 -0.13202574101E+04  0.18279203191E+04  0.00000000000E+00 0. -1.
<mgrwt>
<rscale>  0 0.39167565E+04</rscale>
<asrwt>0</asrwt>
<pdfrwt beam="1">  1        2 0.27480186E+00 0.39167565E+04</pdfrwt>
<pdfrwt beam="2">  1       -2 0.33032905E+00 0.39167565E+04</pdfrwt>
<totfact> 0.14408447E-01</totfact>
</mgrwt>
</event>
<event>
 6    1  0.1762360E-005  0.3864956E+04  0.7818608E-02  0.8032357E-01
          2   -1    0    0  501    0  0.00000000000E+00  0.00000000000E+00  0.24331727544E+04  0.24331727544E+04  0.00000000000E+00 0. -1.
         -2   -1    0    0    0  501 -0.00000000000E+00 -0.00000000000E+00 -0.15348154658E+04  0.15348154658E+04  0.00000000000E+00 0.  1.
         23    2    1    2    0    0 -0.69469745661E+03 -0.17063762700E+04 -0.14574440733E+03  0.18503308158E+04  0.90322558405E+02 0.  0.
         13    1    3    3    0    0 -0.20358654200E+03 -0.59343229626E+03 -0.25205723545E+02  0.62788908163E+03  0.00000000000E+00 0.  1.
        -13    1    3    3    0    0 -0.49111091461E+03 -0.11129439737E+04 -0.12053868379E+03  0.12224417342E+04  0.00000000000E+00 0. -1.
         22    1    1    2    0    0  0.69469745661E+03  0.17063762700E+04  0.10441016959E+04  0.21176574044E+04  0.00000000000E+00 0. -1.
<mgrwt>
<rscale>  0 0.38649560E+04</rscale>
<asrwt>0</asrwt>
<pdfrwt beam="1">  1        2 0.37433427E+00 0.38649560E+04</pdfrwt>
<pdfrwt beam="2">  1       -2 0.23612545E+00 0.38649560E+04</pdfrwt>
<totfact> 0.23759139E-01</totfact>
</mgrwt>
</event>
<event>
 6    1  0.1762360E-005  0.5488204E+03  0.7818608E-02  0.1001767E+00
         -1   -1    0    0    0  501 -0.00000000000E+00  0.00000000000E+00  0.19597510313E+03  0.19597510313E+03  0.00000000000E+00 0.  1.
          1   -1    0    0  501    0  0.00000000000E+00 -0.00000000000E+00 -0.38423734339E+03  0.38423734339E+03  0.00000000000E+00 0. -1.
         23    2    1    2    0    0  0.60145637744E+02  0.77007087996E+02 -0.35916404194E+03  0.38334951157E+03  0.91708503742E+02 0.  0.
         11    1    3    3    0    0  0.51532872290E+02  0.28133178351E+02 -0.76872677693E+02  0.96729112610E+02  0.00000000000E+00 0.  1.
        -11    1    3    3    0    0  0.86127654536E+01  0.48873909645E+02 -0.28229136425E+03  0.28662039896E+03  0.00000000000E+00 0. -1.
         22    1    1    2    0    0 -0.60145637744E+02 -0.77007087996E+02  0.17090180168E+03  0.19686293495E+03  0.00000000000E+00 0.  1.
<mgrwt>
<rscale>  0 0.54882038E+03</rscale>
<asrwt>0</asrwt>
<pdfrwt beam="1">  1        1 0.59113437E-01 0.54882038E+03</pdfrwt>
<pdfrwt beam="2">  1       -1 0.30150016E-01 0.54882038E+03</pdfrwt>
<totfact> 0.64559255E+02</totfact>
</mgrwt>
</event>
<event>
 6    1  0.1762360E-005  0.2565426E+04  0.7818608E-02  0.8380041E-01
         -2   -1    0    0    0  501 -0.00000000000E+00  0.00000000000E+00  0.68488042426E+03  0.68488042426E+03  0.00000000000E+00 0.  1.
          2   -1    0    0  501    0  0.00000000000E+00 -0.00000000000E+00 -0.24023949227E+04  0.24023949227E+04  0.00000000000E+00 0. -1.
         23    2    1    2    0    0  0.10600377521E+03 -0.75709361352E+03  0.37725310823E+03  0.85736977364E+03  0.91298855991E+02 0.  0.
         13    1    3    3    0    0  0.74434451518E+02 -0.58537187755E+03  0.24774875295E+03  0.63998450543E+03  0.00000000000E+00 0.  1.
        -13    1    3    3    0    0  0.31569323696E+02 -0.17172173597E+03  0.12950435528E+03  0.21738526822E+03  0.00000000000E+00 0. -1.
         22    1    1    2    0    0 -0.10600377521E+03  0.75709361352E+03 -0.20947676067E+04  0.22299055734E+04  0.00000000000E+00 0. -1.
<mgrwt>
<rscale>  0 0.25654265E+04</rscale>
<asrwt>0</asrwt>
<pdfrwt beam="1">  1        2 0.36959922E+00 0.25654265E+04</pdfrwt>
<pdfrwt beam="2">  1       -2 0.10536622E+00 0.25654265E+04</pdfrwt>
<totfact> 0.25621458E+00</totfact>
</mgrwt>
</event>
<event>
 6    1  0.1762360E-005  0.9374989E+03  0.7818608E-02  0.9379883E-01
          1   -1    0    0  501    0  0.00000000000E+00  0.00000000000E+00  0.70168321790E+03  0.70168321790E+03  0.00000000000E+00 0. -1.
         -1   -1    0    0    0  501 -0.00000000000E+00 -0.00000000000E+00 -0.31314137104E+03  0.31314137104E+03  0.00000000000E+00 0.  1.
         23    2    1    2    0    0  0.13747990414E+03 -0.27791191257E+03  0.57023889431E+03  0.65545072756E+03  0.91145512704E+02 0.  0.
         11    1    3    3    0    0  0.33195831018E+02 -0.24755709868E+02  0.13543430400E+03  0.14162365293E+03  0.00000000000E+00 0. -1.
        -11    1    3    3    0    0  0.10428407312E+03 -0.25315620271E+03  0.43480459031E+03  0.51382707463E+03  0.00000000000E+00 0.  1.
         22    1    1    2    0    0 -0.13747990414E+03  0.27791191257E+03 -0.18169704745E+03  0.35937386138E+03  0.00000000000E+00 0.  1.
<mgrwt>
<rscale>  0 0.93749890E+03</rscale>
<asrwt>0</asrwt>
<pdfrwt beam="1">  1        1 0.10795126E+00 0.93749890E+03</pdfrwt>
<pdfrwt beam="2">  1       -1 0.48175596E-01 0.93749890E+03</pdfrwt>
<totfact> 0.11757945E+02</totfact>
</mgrwt>
</event>
<event>
 6    1  0.1762360E-005  0.3657229E+04  0.7818608E-02  0.8077507E-01
          2   -1    0    0  501    0  0.00000000000E+00  0.00000000000E+00  0.37991056579E+04  0.37991056579E+04  0.00000000000E+00 0. -1.
         -2   -1    0    0    0  501 -0.00000000000E+00 -0.00000000000E+00 -0.88016287657E+03  0.88016287657E+03  0.00000000000E+00 0.  1.
         23    2    1    2    0    0  0.56297574625E+03  0.53734873047E+03 -0.65525696149E+03  0.10213197718E+04  0.89705304237E+02 0.  0.
         11    1    3    3    0    0  0.34414023006E+03  0.31528770684E+03 -0.33607682737E+03  0.57514039149E+03  0.00000000000E+00 0.  1.
        -11    1    3    3    0    0  0.21883551619E+03  0.22206102364E+03 -0.31918013412E+03  0.44617938027E+03  0.00000000000E+00 0. -1.
         22    1    1    2    0    0 -0.56297574625E+03 -0.53734873047E+03  0.35741997428E+04  0.36579487627E+04  0.00000000000E+00 0. -1.
<mgrwt>
<rscale>  0 0.36572294E+04</rscale>
<asrwt>0</asrwt>
<pdfrwt beam="1">  1        2 0.58447778E+00 0.36572294E+04</pdfrwt>
<pdfrwt beam="2">  1       -2 0.13540968E+00 0.36572294E+04</pdfrwt>
<totfact> 0.15582561E-01</totfact>
</mgrwt>
</event>
<event>
 6    1  0.1762360E-005  0.2143734E+04  0.7818608E-02  0.8542219E-01
         -1   -1    0    0    0  501 -0.00000000000E+00  0.00000000000E+00  0.66666231745E+03  0.66666231745E+03  0.00000000000E+00 0.  1.
          1   -1    0    0  501    0  0.00000000000E+00 -0.00000000000E+00 -0.17233591671E+04  0.17233591671E+04  0.00000000000E+00 0. -1.
         23    2    1    2    0    0 -0.85251011703E+03  0.62278241939E+03 -0.33748665249E+03  0.11125651255E+04  0.96293698093E+02 0.  0.
         13    1    3    3    0    0 -0.37230914630E+03  0.33137638027E+03 -0.15541172741E+03  0.52208927477E+03  0.00000000000E+00 0. -1.
        -13    1    3    3    0    0 -0.48020097074E+03  0.29140603913E+03 -0.18207492509E+03  0.59047585072E+03  0.00000000000E+00 0.  1.
         22    1    1    2    0    0  0.85251011703E+03 -0.62278241939E+03 -0.71921019712E+03  0.12774563590E+04  0.00000000000E+00 0. -1.
<mgrwt>
<rscale>  0 0.21437338E+04</rscale>
<asrwt>0</asrwt>
<pdfrwt beam="1">  1        1 0.26513218E+00 0.21437338E+04</pdfrwt>
<pdfrwt beam="2">  1       -1 0.10256343E+00 0.21437338E+04</pdfrwt>
<totfact> 0.37841208E+00</totfact>
</mgrwt>
</event>
<event>
 6    1  0.1763345E-005  0.2955372E+04  0.7818608E-02  0.8256591E-01
          1   -1    0    0  501    0  0.00000000000E+00  0.00000000000E+00  0.14780941039E+04  0.14780941039E+04  0.00000000000E+00 0. -1.
         -1   -1    0    0    0  501 -0.00000000000E+00 -0.00000000000E+00 -0.14772781465E+04  0.14772781465E+04  0.00000000000E+00 0.  1.
         23    2    1    2    0    0  0.63676549534E+03  0.12021670232E+04  0.57398975964E+03  0.14791595099E+04  0.88163279542E+02 0.  0.
         11    1    3    3    0    0  0.28784900324E+03  0.53436900203E+03  0.20889001931E+03  0.64190522600E+03  0.00000000000E+00 0.  1.
        -11    1    3    3    0    0  0.34891649210E+03  0.66779802113E+03  0.36509974033E+03  0.83725428388E+03  0.00000000000E+00 0. -1.
         22    1    1    2    0    0 -0.63676549534E+03 -0.12021670232E+04 -0.57317380222E+03  0.14762127405E+04  0.00000000000E+00 0.  1.
<mgrwt>
<rscale>  0 0.29553721E+04</rscale>
<asrwt>0</asrwt>
<pdfrwt beam="1">  1        1 0.22739909E+00 0.29553721E+04</pdfrwt>
<pdfrwt beam="2">  1       -1 0.22727356E+00 0.29553721E+04</pdfrwt>
<totfact> 0.56961495E-01</totfact>
</mgrwt>
</event>
<event>
 6    1  0.1762360E-005  0.1649075E+04  0.7818608E-02  0.8790954E-01
         -1   -1    0    0    0  501 -0.00000000000E+00  0.00000000000E+00  0.57000200996E+03  0.57000200996E+03  0.00000000000E+00 0.  1.
          1   -1    0    0  501    0  0.00000000000E+00 -0.00000000000E+00 -0.11927366583E+04  0.11927366583E+04  0.00000000000E+00 0. -1.
         23    2    1    2    0    0 -0.68933357027E+03 -0.32486419632E+03  0.16296865320E+02  0.76821426304E+03  0.95760372637E+02 0.  0.
         11    1    3    3    0    0 -0.27184977733E+03 -0.16398592258E+03 -0.27489331353E+02  0.31866808371E+03  0.00000000000E+00 0.  1.
        -11    1    3    3    0    0 -0.41748379294E+03 -0.16087827374E+03  0.43786196674E+02  0.44954617933E+03  0.00000000000E+00 0. -1.
         22    1    1    2    0    0  0.68933357027E+03  0.32486419632E+03 -0.63903151368E+03  0.99452440525E+03  0.00000000000E+00 0. -1.
<mgrwt>
<rscale>  0 0.16490752E+04</rscale>
<asrwt>0</asrwt>
<pdfrwt beam="1">  1        1 0.18349795E+00 0.16490752E+04</pdfrwt>
<pdfrwt beam="2">  1       -1 0.87692618E-01 0.16490752E+04</pdfrwt>
<totfact> 0.13223694E+01</totfact>
</mgrwt>
</event>
<event>
 6    1  0.1762360E-005  0.5176544E+04  0.7818608E-02  0.7801836E-01
          1   -1    0    0  501    0  0.00000000000E+00  0.00000000000E+00  0.18531344812E+04  0.18531344812E+04  0.00000000000E+00 0. -1.
         -1   -1    0    0    0  501 -0.00000000000E+00 -0.00000000000E+00 -0.36150387215E+04  0.36150387215E+04  0.00000000000E+00 0.  1.
         23    2    1    2    0    0 -0.73480920826E+03 -0.16155958871E+04 -0.28700445512E+04  0.33757894923E+04  0.93296984054E+02 0.  0.
         11    1    3    3    0    0 -0.24517569843E+03 -0.50360478064E+03 -0.98439476485E+03  0.11325908137E+04  0.00000000000E+00 0.  1.
        -11    1    3    3    0    0 -0.48963350983E+03 -0.11119911065E+04 -0.18856497863E+04  0.22431986786E+04  0.00000000000E+00 0. -1.
         22    1    1    2    0    0  0.73480920826E+03  0.16155958871E+04  0.11081403109E+04  0.20923837105E+04  0.00000000000E+00 0.  1.
<mgrwt>
<rscale>  0 0.51765444E+04</rscale>
<asrwt>0</asrwt>
<pdfrwt beam="1">  1        1 0.28509761E+00 0.51765444E+04</pdfrwt>
<pdfrwt beam="2">  1       -1 0.55615980E+00 0.51765444E+04</pdfrwt>
<totfact> 0.18822651E-03</totfact>
</mgrwt>
</event>
<event>
 6    1  0.1762360E-005  0.1833969E+04  0.7818608E-02  0.8688441E-01
         -2   -1    0    0    0  501 -0.00000000000E+00  0.00000000000E+00  0.82275398696E+03  0.82275398696E+03  0.00000000000E+00 0.  1.
          2   -1    0    0  501    0  0.00000000000E+00 -0.00000000000E+00 -0.10220068744E+04  0.10220068744E+04  0.00000000000E+00 0. -1.
         23    2    1    2    0    0 -0.63165455038E+03  0.58095105067E+03  0.21854663487E+03  0.89027249835E+03  0.91273738946E+02 0.  0.
         11    1    3    3    0    0 -0.39897968669E+03  0.31451222238E+03  0.15243566926E+03  0.53041433020E+03  0.00000000000E+00 0.  1.
        -11    1    3    3    0    0 -0.23267486368E+03  0.26643882828E+03  0.66110965608E+02  0.35985816815E+03  0.00000000000E+00 0. -1.
         22    1    1    2    0    0  0.63165455038E+03 -0.58095105067E+03 -0.41779952232E+03  0.95448836301E+03  0.00000000000E+00 0. -1.
<mgrwt>
<rscale>  0 0.18339686E+04</rscale>
<asrwt>0</asrwt>
<pdfrwt beam="1">  1        2 0.15723183E+00 0.18339686E+04</pdfrwt>
<pdfrwt beam="2">  1       -2 0.12657754E+00 0.18339686E+04</pdfrwt>
<totfact> 0.10666496E+01</totfact>
</mgrwt>
</event>
<event>
 6    1  0.1762360E-005  0.2013673E+04  0.7818608E-02  0.8600255E-01
         -1   -1    0    0    0  501 -0.00000000000E+00  0.00000000000E+00  0.17707441153E+04  0.17707441153E+04  0.00000000000E+00 0.  1.
          1   -1    0    0  501    0  0.00000000000E+00 -0.00000000000E+00 -0.57248215061E+03  0.57248215061E+03  0.00000000000E+00 0. -1.
         23    2    1    2    0    0  0.60150077076E+03  0.47071636328E+03 -0.15721320481E+03  0.78736958645E+03  0.10889353525E+03 0.  0.
         13    1    3    3    0    0  0.40913724163E+03  0.33731109546E+03 -0.59081462518E+02  0.53353788696E+03  0.00000000000E+00 0.  1.
        -13    1    3    3    0    0  0.19236352913E+03  0.13340526782E+03 -0.98131742297E+02  0.25383169949E+03  0.00000000000E+00 0. -1.
         22    1    1    2    0    0 -0.60150077076E+03 -0.47071636328E+03  0.13554751695E+04  0.15558566795E+04  0.00000000000E+00 0.  1.
<mgrwt>
<rscale>  0 0.20136727E+04</rscale>
<asrwt>0</asrwt>
<pdfrwt beam="1">  1        1 0.88074178E-01 0.20136727E+04</pdfrwt>
<pdfrwt beam="2">  1       -1 0.27242217E+00 0.20136727E+04</pdfrwt>
<totfact> 0.16922903E+00</totfact>
</mgrwt>
</event>
<event>
 6    1  0.1762360E-005  0.7693548E+03  0.7818608E-02  0.9605466E-01
         -1   -1    0    0    0  501 -0.00000000000E+00  0.00000000000E+00  0.39715226857E+03  0.39715226857E+03  0.00000000000E+00 0.  1.
          1   -1    0    0  501    0  0.00000000000E+00 -0.00000000000E+00 -0.37259442265E+03  0.37259442265E+03  0.00000000000E+00 0. -1.
         23    2    1    2    0    0 -0.31751176957E+02  0.12809189472E+03 -0.34314365487E+03  0.37908051095E+03  0.92405601434E+02 0.  0.
         13    1    3    3    0    0 -0.39654861502E+02  0.38406313540E+02 -0.21821607793E+03  0.22509066979E+03  0.00000000000E+00 0. -1.
        -13    1    3    3    0    0  0.79036845453E+01  0.89685581179E+02 -0.12492757694E+03  0.15398984116E+03  0.00000000000E+00 0.  1.
         22    1    1    2    0    0  0.31751176957E+02 -0.12809189472E+03  0.36770150079E+03  0.39066618028E+03  0.00000000000E+00 0.  1.
<mgrwt>
<rscale>  0 0.76935485E+03</rscale>
<asrwt>0</asrwt>
<pdfrwt beam="1">  1        1 0.57322219E-01 0.76935485E+03</pdfrwt>
<pdfrwt beam="2">  1       -1 0.61100349E-01 0.76935485E+03</pdfrwt>
<totfact> 0.18145526E+02</totfact>
</mgrwt>
</event>
<event>
 6    1  0.1762360E-005  0.1763545E+04  0.7818608E-02  0.8725930E-01
         -1   -1    0    0    0  501 -0.00000000000E+00  0.00000000000E+00  0.19669578653E+04  0.19669578653E+04  0.00000000000E+00 0.  1.
          1   -1    0    0  501    0  0.00000000000E+00 -0.00000000000E+00 -0.39529185529E+03  0.39529185529E+03  0.00000000000E+00 0. -1.
         23    2    1    2    0    0 -0.69802336337E+03 -0.14526417039E+03  0.97991260137E+02  0.72516219591E+03  0.88992293580E+02 0.  0.
         13    1    3    3    0    0 -0.61751019072E+03 -0.99741482672E+02  0.94438638768E+02  0.63260244664E+03  0.00000000000E+00 0. -1.
        -13    1    3    3    0    0 -0.80513172649E+02 -0.45522687714E+02  0.35526213691E+01  0.92559749272E+02  0.00000000000E+00 0.  1.
         22    1    1    2    0    0  0.69802336337E+03  0.14526417039E+03  0.14736747498E+04  0.16370875246E+04  0.00000000000E+00 0.  1.
<mgrwt>
<rscale>  0 0.17635446E+04</rscale>
<asrwt>0</asrwt>
<pdfrwt beam="1">  1        1 0.60814133E-01 0.17635446E+04</pdfrwt>
<pdfrwt beam="2">  1       -1 0.30260890E+00 0.17635446E+04</pdfrwt>
<totfact> 0.18349805E+00</totfact>
</mgrwt>
</event>
<event>
 6    1  0.1762360E-005  0.4821549E+04  0.7818608E-02  0.7856640E-01
          2   -1    0    0  501    0  0.00000000000E+00  0.00000000000E+00  0.23853884924E+04  0.23853884924E+04  0.00000000000E+00 0. -1.
         -2   -1    0    0    0  501 -0.00000000000E+00 -0.00000000000E+00 -0.24364308922E+04  0.24364308922E+04  0.00000000000E+00 0.  1.
         23    2    1    2    0    0 -0.25242896472E+02  0.23120957712E+04 -0.70475364392E+03  0.24189539181E+04  0.90754064341E+02 0.  0.
         13    1    3    3    0    0 -0.51407570293E+02  0.81676419932E+03 -0.24007096698E+03  0.85286608841E+03  0.00000000000E+00 0. -1.
        -13    1    3    3    0    0  0.26164673822E+02  0.14953315719E+04 -0.46468267693E+03  0.15660878297E+04  0.00000000000E+00 0.  1.
         22    1    1    2    0    0  0.25242896472E+02 -0.23120957712E+04  0.65371124419E+03  0.24028654665E+04  0.00000000000E+00 0.  1.
<mgrwt>
<rscale>  0 0.48215492E+04</rscale>
<asrwt>0</asrwt>
<pdfrwt beam="1">  1        2 0.36698285E+00 0.48215492E+04</pdfrwt>
<pdfrwt beam="2">  1       -2 0.37483552E+00 0.48215492E+04</pdfrwt>
<totfact> 0.32355784E-02</totfact>
</mgrwt>
</event>
<event>
 6    1  0.1762360E-005  0.2672319E+04  0.7818608E-02  0.8344043E-01
          2   -1    0    0  501    0  0.00000000000E+00  0.00000000000E+00  0.20557395414E+04  0.20557395414E+04  0.00000000000E+00 0.  1.
         -2   -1    0    0    0  501 -0.00000000000E+00 -0.00000000000E+00 -0.86845710519E+03  0.86845710519E+03  0.00000000000E+00 0. -1.
         23    2    1    2    0    0  0.10327437269E+04  0.26347633442E+02 -0.33154343328E+03  0.10873281632E+04  0.71468056047E+02 0.  0.
         13    1    3    3    0    0  0.58271909006E+03  0.48058966056E+02 -0.20028635874E+03  0.61805002034E+03  0.00000000000E+00 0. -1.
        -13    1    3    3    0    0  0.45002463688E+03 -0.21711332614E+02 -0.13125707454E+03  0.46927814287E+03  0.00000000000E+00 0.  1.
         22    1    1    2    0    0 -0.10327437269E+04 -0.26347633442E+02  0.15188258695E+04  0.18368684833E+04  0.00000000000E+00 0.  1.
<mgrwt>
<rscale>  0 0.26723186E+04</rscale>
<asrwt>0</asrwt>
<pdfrwt beam="1">  1        2 0.31626762E+00 0.26723186E+04</pdfrwt>
<pdfrwt beam="2">  1       -2 0.13360879E+00 0.26723186E+04</pdfrwt>
<totfact> 0.22155827E+00</totfact>
</mgrwt>
</event>
<event>
 6    1  0.1762360E-005  0.7524219E+03  0.7818608E-02  0.9631558E-01
          2   -1    0    0  501    0  0.00000000000E+00  0.00000000000E+00  0.32124413724E+04  0.32124413724E+04  0.00000000000E+00 0. -1.
         -2   -1    0    0    0  501 -0.00000000000E+00 -0.00000000000E+00 -0.44058287575E+02  0.44058287575E+02  0.00000000000E+00 0.  1.
         23    2    1    2    0    0 -0.28379857035E+03  0.22600432235E+03  0.19387809781E+04  0.19744930597E+04  0.90175271263E+02 0.  0.
         13    1    3    3    0    0 -0.13033273715E+03  0.14158507671E+03  0.83401698735E+03  0.85593065812E+03  0.00000000000E+00 0. -1.
        -13    1    3    3    0    0 -0.15346583320E+03  0.84419245638E+02  0.11047639908E+04  0.11185624016E+04  0.00000000000E+00 0.  1.
         22    1    1    2    0    0  0.28379857035E+03 -0.22600432235E+03  0.12296021067E+04  0.12820066002E+04  0.00000000000E+00 0. -1.
<mgrwt>
<rscale>  0 0.75242187E+03</rscale>
<asrwt>0</asrwt>
<pdfrwt beam="1">  1        2 0.49422157E+00 0.75242187E+03</pdfrwt>
<pdfrwt beam="2">  1       -2 0.67782006E-02 0.75242187E+03</pdfrwt>
<totfact> 0.17336906E+02</totfact>
</mgrwt>
</event>
<event>
 6    1  0.1762360E-005  0.3679611E+04  0.7818608E-02  0.8072495E-01
         -1   -1    0    0    0  501 -0.00000000000E+00  0.00000000000E+00  0.16502175713E+04  0.16502175713E+04  0.00000000000E+00 0.  1.
          1   -1    0    0  501    0  0.00000000000E+00 -0.00000000000E+00 -0.20511744077E+04  0.20511744077E+04  0.00000000000E+00 0. -1.
         23    2    1    2    0    0 -0.60146305294E+03  0.13117280310E+04 -0.13467100193E+04  0.19760406192E+04  0.93383196130E+02 0.  0.
         11    1    3    3    0    0 -0.36761059613E+03  0.70192685621E+03 -0.70984512241E+03  0.10638228046E+04  0.00000000000E+00 0. -1.
        -11    1    3    3    0    0 -0.23385245681E+03  0.60980117482E+03 -0.63686489692E+03  0.91221781461E+03  0.00000000000E+00 0.  1.
         22    1    1    2    0    0  0.60146305294E+03 -0.13117280310E+04  0.94575318295E+03  0.17253513597E+04  0.00000000000E+00 0.  1.
<mgrwt>
<rscale>  0 0.36796109E+04</rscale>
<asrwt>0</asrwt>
<pdfrwt beam="1">  1        1 0.31556529E+00 0.36796109E+04</pdfrwt>
<pdfrwt beam="2">  1       -1 0.25387963E+00 0.36796109E+04</pdfrwt>
<totfact> 0.14541347E-01</totfact>
</mgrwt>
</event>
<event>
 6    1  0.1762360E-005  0.4212376E+04  0.7818608E-02  0.7963022E-01
          2   -1    0    0  501    0  0.00000000000E+00  0.00000000000E+00  0.23708706416E+04  0.23708706416E+04  0.00000000000E+00 0. -1.
         -2   -1    0    0    0  501 -0.00000000000E+00 -0.00000000000E+00 -0.18710547423E+04  0.18710547423E+04  0.00000000000E+00 0.  1.
         23    2    1    2    0    0  0.50944566864E+03 -0.17829676257E+03 -0.17990873052E+04  0.18805104334E+04  0.90993040711E+02 0.  0.
         11    1    3    3    0    0  0.32514627726E+03 -0.14372371887E+03 -0.12860362243E+04  0.13342660076E+04  0.00000000000E+00 0.  1.
        -11    1    3    3    0    0  0.18429939138E+03 -0.34573043692E+02 -0.51305108098E+03  0.54624442579E+03  0.00000000000E+00 0. -1.
         22    1    1    2    0    0 -0.50944566864E+03  0.17829676257E+03  0.22989032045E+04  0.23614149505E+04  0.00000000000E+00 0. -1.
<mgrwt>
<rscale>  0 0.42123764E+04</rscale>
<asrwt>0</asrwt>
<pdfrwt beam="1">  1        2 0.36474933E+00 0.42123764E+04</pdfrwt>
<pdfrwt beam="2">  1       -2 0.28785457E+00 0.42123764E+04</pdfrwt>
<totfact> 0.12081838E-01</totfact>
</mgrwt>
</event>
<event>
 6    1  0.1762360E-005  0.1794553E+04  0.7818608E-02  0.8709202E-01
         -1   -1    0    0    0  501 -0.00000000000E+00  0.00000000000E+00  0.51641405551E+03  0.51641405551E+03  0.00000000000E+00 0.  1.
          1   -1    0    0  501    0  0.00000000000E+00 -0.00000000000E+00 -0.15590298631E+04  0.15590298631E+04  0.00000000000E+00 0. -1.
         23    2    1    2    0    0  0.50966677446E+03  0.48043220582E+03  0.12181908771E+03  0.71659000786E+03  0.89922321236E+02 0.  0.
         11    1    3    3    0    0  0.18214281847E+03  0.12778373890E+03  0.66013445535E+02  0.23208288442E+03  0.00000000000E+00 0. -1.
        -11    1    3    3    0    0  0.32752395599E+03  0.35264846692E+03  0.55805642171E+02  0.48450712344E+03  0.00000000000E+00 0.  1.
         22    1    1    2    0    0 -0.50966677446E+03 -0.48043220582E+03 -0.11644348953E+04  0.13588539108E+04  0.00000000000E+00 0. -1.
<mgrwt>
<rscale>  0 0.17945528E+04</rscale>
<asrwt>0</asrwt>
<pdfrwt beam="1">  1        1 0.23985075E+00 0.17945528E+04</pdfrwt>
<pdfrwt beam="2">  1       -1 0.79448317E-01 0.17945528E+04</pdfrwt>
<totfact> 0.88985587E+00</totfact>
</mgrwt>
</event>
<event>
 6    1  0.1762360E-005  0.2047574E+04  0.7818608E-02  0.8584696E-01
          1   -1    0    0  501    0  0.00000000000E+00  0.00000000000E+00  0.11443014624E+04  0.11443014624E+04  0.00000000000E+00 0. -1.
         -1   -1    0    0    0  501 -0.00000000000E+00 -0.00000000000E+00 -0.91596433076E+03  0.91596433076E+03  0.00000000000E+00 0.  1.
         23    2    1    2    0    0  0.85446407154E+03 -0.55620437933E+03  0.60375951858E+02  0.10269782634E+04  0.10754969493E+03 0.  0.
         13    1    3    3    0    0  0.25826981374E+03 -0.19731591168E+03  0.63133122039E+02  0.33109312405E+03  0.00000000000E+00 0.  1.
        -13    1    3    3    0    0  0.59619425780E+03 -0.35888846765E+03 -0.27571701814E+01  0.69588513940E+03  0.00000000000E+00 0. -1.
         22    1    1    2    0    0 -0.85446407154E+03  0.55620437933E+03  0.16796117977E+03  0.10332875297E+04  0.00000000000E+00 0. -1.
<mgrwt>
<rscale>  0 0.20475735E+04</rscale>
<asrwt>0</asrwt>
<pdfrwt beam="1">  1        1 0.17604638E+00 0.20475735E+04</pdfrwt>
<pdfrwt beam="2">  1       -1 0.14091759E+00 0.20475735E+04</pdfrwt>
<totfact> 0.44718188E+00</totfact>
</mgrwt>
</event>
<event>
 6    1  0.1762360E-005  0.2156958E+04  0.7818608E-02  0.8536560E-01
          1   -1    0    0  501    0  0.00000000000E+00  0.00000000000E+00  0.62983411430E+03  0.62983411430E+03  0.00000000000E+00 0. -1.
         -1   -1    0    0    0  501 -0.00000000000E+00 -0.00000000000E+00 -0.18467035612E+04  0.18467035612E+04  0.00000000000E+00 0.  1.
         23    2    1    2    0    0  0.94635373434E+03  0.37794199462E+03 -0.10082769446E+04  0.14363759699E+04  0.90155355369E+02 0.  0.
         11    1    3    3    0    0  0.10486814364E+03  0.73422971206E+02 -0.11947240434E+03  0.17510544152E+03  0.00000000000E+00 0.  1.
        -11    1    3    3    0    0  0.84148559070E+03  0.30451902341E+03 -0.88880454026E+03  0.12612705284E+04  0.00000000000E+00 0. -1.
         22    1    1    2    0    0 -0.94635373434E+03 -0.37794199462E+03 -0.20859250232E+03  0.10401617056E+04  0.00000000000E+00 0. -1.
<mgrwt>
<rscale>  0 0.21569580E+04</rscale>
<asrwt>0</asrwt>
<pdfrwt beam="1">  1        1 0.96897558E-01 0.21569580E+04</pdfrwt>
<pdfrwt beam="2">  1       -1 0.28410823E+00 0.21569580E+04</pdfrwt>
<totfact> 0.12227009E+00</totfact>
</mgrwt>
</event>
<event>
 6    1  0.1762360E-005  0.3411917E+04  0.7818608E-02  0.8134988E-01
          2   -1    0    0  501    0  0.00000000000E+00  0.00000000000E+00  0.10432836599E+04  0.10432836599E+04  0.00000000000E+00 0. -1.
         -2   -1    0    0    0  501 -0.00000000000E+00 -0.00000000000E+00 -0.27895522399E+04  0.27895522399E+04  0.00000000000E+00 0.  1.
         23    2    1    2    0    0  0.97088201288E+03  0.58283943006E+03 -0.23053670934E+04  0.25699404838E+04  0.86965340455E+02 0.  0.
         11    1    3    3    0    0  0.65848142624E+03  0.43365521521E+03 -0.16527876150E+04  0.18312185928E+04  0.00000000000E+00 0.  1.
        -11    1    3    3    0    0  0.31240058664E+03  0.14918421485E+03 -0.65257947847E+03  0.73872189098E+03  0.00000000000E+00 0. -1.
         22    1    1    2    0    0 -0.97088201288E+03 -0.58283943006E+03  0.55909851337E+03  0.12628954160E+04  0.00000000000E+00 0. -1.
<mgrwt>
<rscale>  0 0.34119169E+04</rscale>
<asrwt>0</asrwt>
<pdfrwt beam="1">  1        2 0.16050518E+00 0.34119169E+04</pdfrwt>
<pdfrwt beam="2">  1       -2 0.42916188E+00 0.34119169E+04</pdfrwt>
<totfact> 0.93195116E-02</totfact>
</mgrwt>
</event>
<event>
 6    1  0.1762360E-005  0.1027281E+04  0.7818608E-02  0.9279119E-01
         -2   -1    0    0    0  501 -0.00000000000E+00  0.00000000000E+00  0.85184460561E+02  0.85184460561E+02  0.00000000000E+00 0.  1.
          2   -1    0    0  501    0  0.00000000000E+00 -0.00000000000E+00 -0.30971232055E+04  0.30971232055E+04  0.00000000000E+00 0. -1.
         23    2    1    2    0    0 -0.28651874527E+03  0.34539756787E+03 -0.76826974917E+03  0.89419861406E+03  0.89220415888E+02 0.  0.
         13    1    3    3    0    0 -0.65770081035E+02  0.12661138688E+03 -0.18887143215E+03  0.23670353764E+03  0.00000000000E+00 0.  1.
        -13    1    3    3    0    0 -0.22074866423E+03  0.21878618099E+03 -0.57939831702E+03  0.65749507642E+03  0.00000000000E+00 0. -1.
         22    1    1    2    0    0  0.28651874527E+03 -0.34539756787E+03 -0.22436689958E+04  0.22881090520E+04  0.00000000000E+00 0. -1.
<mgrwt>
<rscale>  0 0.10272814E+04</rscale>
<asrwt>0</asrwt>
<pdfrwt beam="1">  1        2 0.47648046E+00 0.10272814E+04</pdfrwt>
<pdfrwt beam="2">  1       -2 0.13105303E-01 0.10272814E+04</pdfrwt>
<totfact> 0.68089468E+01</totfact>
</mgrwt>
</event>
<event>
 6    1  0.1762360E-005  0.3569568E+04  0.7818608E-02  0.8097498E-01
          1   -1    0    0  501    0  0.00000000000E+00  0.00000000000E+00  0.16232163493E+04  0.16232163493E+04  0.00000000000E+00 0. -1.
         -1   -1    0    0    0  501 -0.00000000000E+00 -0.00000000000E+00 -0.19624334711E+04  0.19624334711E+04  0.00000000000E+00 0.  1.
         23    2    1    2    0    0 -0.30632969225E+03  0.31598387716E+03  0.15666188408E+04  0.16296604526E+04  0.88401964598E+02 0.  0.
         11    1    3    3    0    0 -0.12253607524E+03  0.18930474187E+03  0.80919643105E+03  0.84002990366E+03  0.00000000000E+00 0. -1.
        -11    1    3    3    0    0 -0.18379361701E+03  0.12667913529E+03  0.75742240975E+03  0.78963054890E+03  0.00000000000E+00 0.  1.
         22    1    1    2    0    0  0.30632969225E+03 -0.31598387716E+03 -0.19058359626E+04  0.19559893679E+04  0.00000000000E+00 0.  1.
<mgrwt>
<rscale>  0 0.35695681E+04</rscale>
<asrwt>0</asrwt>
<pdfrwt beam="1">  1        1 0.24972559E+00 0.35695681E+04</pdfrwt>
<pdfrwt beam="2">  1       -1 0.30191284E+00 0.35695681E+04</pdfrwt>
<totfact> 0.14001154E-01</totfact>
</mgrwt>
</event>
<event>
 6    1  0.1762360E-005  0.1253911E+04  0.7818608E-02  0.9066934E-01
          2   -1    0    0  501    0  0.00000000000E+00  0.00000000000E+00  0.41109527213E+03  0.41109527213E+03  0.00000000000E+00 0. -1.
         -2   -1    0    0    0  501 -0.00000000000E+00 -0.00000000000E+00 -0.95616091340E+03  0.95616091340E+03  0.00000000000E+00 0.  1.
         23    2    1    2    0    0 -0.60910235083E+03  0.40509508284E+02 -0.41278121702E+03  0.74263961278E+03  0.92079136065E+02 0.  0.
         11    1    3    3    0    0 -0.30412377408E+03 -0.25844908852E+02 -0.20110052777E+03  0.36551422892E+03  0.00000000000E+00 0.  1.
        -11    1    3    3    0    0 -0.30497857675E+03  0.66354417137E+02 -0.21168068926E+03  0.37712538386E+03  0.00000000000E+00 0. -1.
         22    1    1    2    0    0  0.60910235083E+03 -0.40509508284E+02 -0.13228442425E+03  0.62461657274E+03  0.00000000000E+00 0. -1.
<mgrwt>
<rscale>  0 0.12539111E+04</rscale>
<asrwt>0</asrwt>
<pdfrwt beam="1">  1        2 0.63245427E-01 0.12539111E+04</pdfrwt>
<pdfrwt beam="2">  1       -2 0.14710168E+00 0.12539111E+04</pdfrwt>
<totfact> 0.23891770E+01</totfact>
</mgrwt>
</event>
<event>
 6    1  0.1762360E-005  0.3297538E+04  0.7818608E-02  0.8163522E-01
         -1   -1    0    0    0  501 -0.00000000000E+00  0.00000000000E+00  0.82439814080E+03  0.82439814080E+03  0.00000000000E+00 0.  1.
          1   -1    0    0  501    0  0.00000000000E+00 -0.00000000000E+00 -0.32974842469E+04  0.32974842469E+04  0.00000000000E+00 0. -1.
         23    2    1    2    0    0  0.78337651164E+03  0.11449740705E+04 -0.12701624211E+03  0.13963203928E+04  0.94515249653E+02 0.  0.
         11    1    3    3    0    0  0.12799767823E+03  0.24222525366E+03 -0.46233132990E+02  0.27783804947E+03  0.00000000000E+00 0.  1.
        -11    1    3    3    0    0  0.65537883341E+03  0.90274881688E+03 -0.80783109118E+02  0.11184823433E+04  0.00000000000E+00 0. -1.
         22    1    1    2    0    0 -0.78337651164E+03 -0.11449740705E+04 -0.23460698639E+04  0.27255619948E+04  0.00000000000E+00 0.  1.
<mgrwt>
<rscale>  0 0.32975384E+04</rscale>
<asrwt>0</asrwt>
<pdfrwt beam="1">  1        1 0.50730527E+00 0.32975384E+04</pdfrwt>
<pdfrwt beam="2">  1       -1 0.12683048E+00 0.32975384E+04</pdfrwt>
<totfact> 0.16044311E-01</totfact>
</mgrwt>
</event>
<event>
 6    1  0.1762360E-005  0.2761886E+04  0.7818608E-02  0.8315200E-01
          2   -1    0    0  501    0  0.00000000000E+00  0.00000000000E+00  0.11954250946E+04  0.11954250946E+04  0.00000000000E+00 0. -1.
         -2   -1    0    0    0  501 -0.00000000000E+00 -0.00000000000E+00 -0.15952510430E+04  0.15952510430E+04  0.00000000000E+00 0.  1.
         23    2    1    2    0    0 -0.36629951440E+03  0.12976558602E+04 -0.49324722308E+03  0.14390794521E+04  0.97830367183E+02 0.  0.
         13    1    3    3    0    0 -0.93014536835E+02  0.32399996899E+03 -0.16905898932E+03  0.37710558978E+03  0.00000000000E+00 0. -1.
        -13    1    3    3    0    0 -0.27328497757E+03  0.97365589116E+03 -0.32418823376E+03  0.10619738623E+04  0.00000000000E+00 0.  1.
         22    1    1    2    0    0  0.36629951440E+03 -0.12976558602E+04  0.93421274754E+02  0.13515966855E+04  0.00000000000E+00 0. -1.
<mgrwt>
<rscale>  0 0.27618857E+04</rscale>
<asrwt>0</asrwt>
<pdfrwt beam="1">  1        2 0.18391155E+00 0.27618857E+04</pdfrwt>
<pdfrwt beam="2">  1       -2 0.24542324E+00 0.27618857E+04</pdfrwt>
<totfact> 0.11408691E+00</totfact>
</mgrwt>
</event>
<event>
 6    1  0.1762360E-005  0.6441849E+03  0.7818608E-02  0.9817752E-01
          2   -1    0    0  501    0  0.00000000000E+00  0.00000000000E+00  0.19731568311E+04  0.19731568311E+04  0.00000000000E+00 0. -1.
         -2   -1    0    0    0  501 -0.00000000000E+00 -0.00000000000E+00 -0.52577452503E+02  0.52577452503E+02  0.00000000000E+00 0.  1.
         23    2    1    2    0    0  0.25197924808E+03  0.18266495705E+03  0.11423105113E+04  0.11875442945E+04  0.92347816580E+02 0.  0.
         11    1    3    3    0    0  0.17703429319E+03  0.16737418040E+03  0.77650592098E+03  0.81382842329E+03  0.00000000000E+00 0.  1.
        -11    1    3    3    0    0  0.74944954884E+02  0.15290776642E+02  0.36580459031E+03  0.37371587123E+03  0.00000000000E+00 0. -1.
         22    1    1    2    0    0 -0.25197924808E+03 -0.18266495705E+03  0.77826886731E+03  0.83818998909E+03  0.00000000000E+00 0.  1.
<mgrwt>
<rscale>  0 0.64418494E+03</rscale>
<asrwt>0</asrwt>
<pdfrwt beam="1">  1        2 0.30356253E+00 0.64418494E+03</pdfrwt>
<pdfrwt beam="2">  1       -2 0.80888404E-02 0.64418494E+03</pdfrwt>
<totfact> 0.68852097E+02</totfact>
</mgrwt>
</event>
<event>
 6    1  0.1762360E-005  0.5279221E+04  0.7818608E-02  0.7786821E-01
          2   -1    0    0  501    0  0.00000000000E+00  0.00000000000E+00  0.37170025877E+04  0.37170025877E+04  0.00000000000E+00 0. -1.
         -2   -1    0    0    0  501 -0.00000000000E+00 -0.00000000000E+00 -0.18745057277E+04  0.18745057277E+04  0.00000000000E+00 0.  1.
         23    2    1    2    0    0 -0.11999242292E+04 -0.22968808866E+04  0.39324887159E+03  0.26223670767E+04  0.81758466149E+02 0.  0.
         13    1    3    3    0    0 -0.15806433298E+03 -0.26636728497E+03  0.67874690456E+02  0.31708490577E+03  0.00000000000E+00 0.  1.
        -13    1    3    3    0    0 -0.10418598962E+04 -0.20305136017E+04  0.32537418113E+03  0.23052821709E+04  0.00000000000E+00 0. -1.
         22    1    1    2    0    0  0.11999242292E+04  0.22968808866E+04  0.14492479885E+04  0.29691412387E+04  0.00000000000E+00 0. -1.
<mgrwt>
<rscale>  0 0.52792206E+04</rscale>
<asrwt>0</asrwt>
<pdfrwt beam="1">  1        2 0.57184655E+00 0.52792206E+04</pdfrwt>
<pdfrwt beam="2">  1       -2 0.28838550E+00 0.52792206E+04</pdfrwt>
<totfact> 0.15066758E-02</totfact>
</mgrwt>
</event>
<event>
 6    1  0.4318050E-005  0.4568414E+04  0.7818608E-02  0.7898768E-01
         -2   -1    0    0    0  501 -0.00000000000E+00  0.00000000000E+00  0.19867321944E+04  0.19867321944E+04  0.00000000000E+00 0.  1.
          2   -1    0    0  501    0  0.00000000000E+00 -0.00000000000E+00 -0.26262224839E+04  0.26262224839E+04  0.00000000000E+00 0. -1.
         23    2    1    2    0    0 -0.94972663973E+03 -0.25285102525E+03 -0.24009184841E+04  0.25958915619E+04  0.91263918057E+02 0.  0.
         11    1    3    3    0    0 -0.43381347976E+03 -0.15696251578E+03 -0.10665147168E+04  0.11620176452E+04  0.00000000000E+00 0. -1.
        -11    1    3    3    0    0 -0.51591315997E+03 -0.95888509471E+02 -0.13344037673E+04  0.14338739167E+04  0.00000000000E+00 0.  1.
         22    1    1    2    0    0  0.94972663973E+03  0.25285102525E+03  0.17614281945E+04  0.20170631164E+04  0.00000000000E+00 0.  1.
<mgrwt>
<rscale>  0 0.45684136E+04</rscale>
<asrwt>0</asrwt>
<pdfrwt beam="1">  1        2 0.40403423E+00 0.45684136E+04</pdfrwt>
<pdfrwt beam="2">  1       -2 0.30565110E+00 0.45684136E+04</pdfrwt>
<totfact> 0.64943060E-02</totfact>
</mgrwt>
</event>
<event>
 6    1  0.1762360E-005  0.9138709E+03  0.7818608E-02  0.9408406E-01
          1   -1    0    0  501    0  0.00000000000E+00  0.00000000000E+00  0.65496129687E+03  0.65496129687E+03  0.00000000000E+00 0. -1.
         -1   -1    0    0    0  501 -0.00000000000E+00 -0.00000000000E+00 -0.31878223467E+03  0.31878223467E+03  0.00000000000E+00 0.  1.
         23    2    1    2    0    0  0.88281530956E+02 -0.20800580946E+03 -0.24785219109E+03  0.34752268367E+03  0.91001437155E+02 0.  0.
         13    1    3    3    0    0  0.16582607424E+02  0.33370186393E+01 -0.48677231769E+01  0.17601513892E+02  0.00000000000E+00 0.  1.
        -13    1    3    3    0    0  0.71698923533E+02 -0.21134282810E+03 -0.24298446791E+03  0.32992116978E+03  0.00000000000E+00 0. -1.
         22    1    1    2    0    0 -0.88281530956E+02  0.20800580946E+03  0.58403125329E+03  0.62622084786E+03  0.00000000000E+00 0. -1.
<mgrwt>
<rscale>  0 0.91387094E+03</rscale>
<asrwt>0</asrwt>
<pdfrwt beam="1">  1        1 0.10076328E+00 0.91387094E+03</pdfrwt>
<pdfrwt beam="2">  1       -1 0.49043421E-01 0.91387094E+03</pdfrwt>
<totfact> 0.12625440E+02</totfact>
</mgrwt>
</event>
<event>
 6    1  0.1762360E-005  0.2279919E+04  0.7818608E-02  0.8485881E-01
          1   -1    0    0  501    0  0.00000000000E+00  0.00000000000E+00  0.26716049845E+04  0.26716049845E+04  0.00000000000E+00 0. -1.
         -1   -1    0    0    0  501 -0.00000000000E+00 -0.00000000000E+00 -0.48641456055E+03  0.48641456055E+03  0.00000000000E+00 0.  1.
         23    2    1    2    0    0 -0.96280490186E+03 -0.42664219923E+03  0.49652917056E+03  0.11678955102E+04  0.91770694652E+02 0.  0.
         11    1    3    3    0    0 -0.30629323536E+03 -0.12021354605E+03  0.11137609610E+03  0.34737800371E+03  0.00000000000E+00 0. -1.
        -11    1    3    3    0    0 -0.65651166650E+03 -0.30642865318E+03  0.38515307446E+03  0.82051750652E+03  0.00000000000E+00 0.  1.
         22    1    1    2    0    0  0.96280490186E+03  0.42664219923E+03  0.16886612534E+04  0.19901240348E+04  0.00000000000E+00 0. -1.
<mgrwt>
<rscale>  0 0.22799189E+04</rscale>
<asrwt>0</asrwt>
<pdfrwt beam="1">  1        1 0.41101614E+00 0.22799189E+04</pdfrwt>
<pdfrwt beam="2">  1       -1 0.74833011E-01 0.22799189E+04</pdfrwt>
<totfact> 0.16716221E+00</totfact>
</mgrwt>
</event>
<event>
 6    1  0.1762360E-005  0.4238178E+04  0.7818608E-02  0.7958149E-01
          2   -1    0    0  501    0  0.00000000000E+00  0.00000000000E+00  0.22704625391E+04  0.22704625391E+04  0.00000000000E+00 0. -1.
         -2   -1    0    0    0  501 -0.00000000000E+00 -0.00000000000E+00 -0.19778081077E+04  0.19778081077E+04  0.00000000000E+00 0.  1.
         23    2    1    2    0    0 -0.94275055039E+03  0.77535268185E+03 -0.15887092412E+04  0.20056205069E+04  0.92553676264E+02 0.  0.
         13    1    3    3    0    0 -0.69379373399E+03  0.57154156246E+03 -0.12346542655E+04  0.15272133637E+04  0.00000000000E+00 0.  1.
        -13    1    3    3    0    0 -0.24895681640E+03  0.20381111939E+03 -0.35405497571E+03  0.47840714318E+03  0.00000000000E+00 0. -1.
         22    1    1    2    0    0  0.94275055039E+03 -0.77535268185E+03  0.18813636727E+04  0.22426501400E+04  0.00000000000E+00 0. -1.
<mgrwt>
<rscale>  0 0.42381785E+04</rscale>
<asrwt>0</asrwt>
<pdfrwt beam="1">  1        2 0.34930193E+00 0.42381785E+04</pdfrwt>
<pdfrwt beam="2">  1       -2 0.30427817E+00 0.42381785E+04</pdfrwt>
<totfact> 0.10910868E-01</totfact>
</mgrwt>
</event>
<event>
 6    1  0.1762360E-005  0.1097500E+04  0.7818608E-02  0.9207632E-01
         -2   -1    0    0    0  501 -0.00000000000E+00  0.00000000000E+00  0.17136853916E+03  0.17136853916E+03  0.00000000000E+00 0.  1.
          2   -1    0    0  501    0  0.00000000000E+00 -0.00000000000E+00 -0.17571871194E+04  0.17571871194E+04  0.00000000000E+00 0. -1.
         23    2    1    2    0    0 -0.19044998789E+02 -0.36022245883E+03 -0.15161648186E+04  0.15611667933E+04  0.91449807624E+02 0.  0.
         11    1    3    3    0    0 -0.52121752051E+02 -0.15498370100E+03 -0.71660816156E+03  0.73502644975E+03  0.00000000000E+00 0. -1.
        -11    1    3    3    0    0  0.33076753262E+02 -0.20523875784E+03 -0.79955665706E+03  0.82614034351E+03  0.00000000000E+00 0.  1.
         22    1    1    2    0    0  0.19044998789E+02  0.36022245883E+03 -0.69653761602E+02  0.36738886528E+03  0.00000000000E+00 0.  1.
<mgrwt>
<rscale>  0 0.10975000E+04</rscale>
<asrwt>0</asrwt>
<pdfrwt beam="1">  1        2 0.27033646E+00 0.10975000E+04</pdfrwt>
<pdfrwt beam="2">  1       -2 0.26364393E-01 0.10975000E+04</pdfrwt>
<totfact> 0.11788984E+02</totfact>
</mgrwt>
</event>
<event>
 6    1  0.1762360E-005  0.1027606E+04  0.7818608E-02  0.9278774E-01
         -2   -1    0    0    0  501 -0.00000000000E+00  0.00000000000E+00  0.20429599871E+03  0.20429599871E+03  0.00000000000E+00 0.  1.
          2   -1    0    0  501    0  0.00000000000E+00 -0.00000000000E+00 -0.12922114234E+04  0.12922114234E+04  0.00000000000E+00 0. -1.
         23    2    1    2    0    0 -0.40450311347E+03 -0.29471369068E+03 -0.68820461801E+03  0.85600163974E+03  0.92920841120E+02 0.  0.
         11    1    3    3    0    0 -0.37718309853E+02 -0.65685555435E+02 -0.85566585060E+02  0.11427555981E+03  0.00000000000E+00 0.  1.
        -11    1    3    3    0    0 -0.36678480362E+03 -0.22902813524E+03 -0.60263803295E+03  0.74172607993E+03  0.00000000000E+00 0. -1.
         22    1    1    2    0    0  0.40450311347E+03  0.29471369068E+03 -0.39971080671E+03  0.64050578240E+03  0.00000000000E+00 0.  1.
<mgrwt>
<rscale>  0 0.10276062E+04</rscale>
<asrwt>0</asrwt>
<pdfrwt beam="1">  1        2 0.19880176E+00 0.10276062E+04</pdfrwt>
<pdfrwt beam="2">  1       -2 0.31430153E-01 0.10276062E+04</pdfrwt>
<totfact> 0.15630029E+02</totfact>
</mgrwt>
</event>
<event>
 6    1  0.1762360E-005  0.3285149E+04  0.7818608E-02  0.8166684E-01
         -2   -1    0    0    0  501 -0.00000000000E+00  0.00000000000E+00  0.20381018373E+04  0.20381018373E+04  0.00000000000E+00 0.  1.
          2   -1    0    0  501    0  0.00000000000E+00 -0.00000000000E+00 -0.13238060327E+04  0.13238060327E+04  0.00000000000E+00 0. -1.
         23    2    1    2    0    0  0.14614728650E+03 -0.61727085659E+03 -0.11916929557E+04  0.13531332450E+04  0.91951825493E+02 0.  0.
         13    1    3    3    0    0  0.51579264690E+02 -0.17705952324E+03 -0.26509979675E+03  0.32293714180E+03  0.00000000000E+00 0. -1.
        -13    1    3    3    0    0  0.94568021808E+02 -0.44021133335E+03 -0.92659315900E+03  0.10301961032E+04  0.00000000000E+00 0.  1.
         22    1    1    2    0    0 -0.14614728650E+03  0.61727085659E+03  0.19059887603E+04  0.20087746250E+04  0.00000000000E+00 0.  1.
<mgrwt>
<rscale>  0 0.32851493E+04</rscale>
<asrwt>0</asrwt>
<pdfrwt beam="1">  1        2 0.20366247E+00 0.32851493E+04</pdfrwt>
<pdfrwt beam="2">  1       -2 0.31355413E+00 0.32851493E+04</pdfrwt>
<totfact> 0.35127408E-01</totfact>
</mgrwt>
</event>
<event>
 6    1  0.1762360E-005  0.2169156E+04  0.7818608E-02  0.8531377E-01
          1   -1    0    0  501    0  0.00000000000E+00  0.00000000000E+00  0.22449475518E+04  0.22449475518E+04  0.00000000000E+00 0. -1.
         -1   -1    0    0    0  501 -0.00000000000E+00 -0.00000000000E+00 -0.52398077962E+03  0.52398077962E+03  0.00000000000E+00 0.  1.
         23    2    1    2    0    0 -0.13526915637E+03  0.40547942821E+03  0.21317234750E+04  0.21761110068E+04  0.92210785281E+02 0.  0.
         13    1    3    3    0    0 -0.59671927354E+02  0.65943027032E+02  0.47723202977E+03  0.48544786740E+03  0.00000000000E+00 0. -1.
        -13    1    3    3    0    0 -0.75597229019E+02  0.33953640118E+03  0.16544914452E+04  0.16906631394E+04  0.00000000000E+00 0.  1.
         22    1    1    2    0    0  0.13526915637E+03 -0.40547942821E+03 -0.41075670283E+03  0.59281732455E+03  0.00000000000E+00 0.  1.
<mgrwt>
<rscale>  0 0.21691559E+04</rscale>
<asrwt>0</asrwt>
<pdfrwt beam="1">  1        1 0.34537654E+00 0.21691559E+04</pdfrwt>
<pdfrwt beam="2">  1       -1 0.80612429E-01 0.21691559E+04</pdfrwt>
<totfact> 0.28475698E+00</totfact>
</mgrwt>
</event>
<event>
 6    1  0.1762360E-005  0.2557932E+04  0.7818608E-02  0.8382633E-01
          2   -1    0    0  501    0  0.00000000000E+00  0.00000000000E+00  0.25223859657E+04  0.25223859657E+04  0.00000000000E+00 0. -1.
         -2   -1    0    0    0  501 -0.00000000000E+00 -0.00000000000E+00 -0.64849468214E+03  0.64849468214E+03  0.00000000000E+00 0.  1.
         23    2    1    2    0    0  0.89739660177E+03  0.64414639209E+03  0.14313442969E+03  0.11176479473E+04  0.91674608624E+02 0.  0.
         13    1    3    3    0    0  0.59528609941E+03  0.39608886261E+03  0.56394988059E+02  0.71723937560E+03  0.00000000000E+00 0. -1.
        -13    1    3    3    0    0  0.30211050235E+03  0.24805752948E+03  0.86739441629E+02  0.40040857171E+03  0.00000000000E+00 0.  1.
         22    1    1    2    0    0 -0.89739660177E+03 -0.64414639209E+03  0.17307568539E+04  0.20532327005E+04  0.00000000000E+00 0. -1.
<mgrwt>
<rscale>  0 0.25579319E+04</rscale>
<asrwt>0</asrwt>
<pdfrwt beam="1">  1        2 0.38805937E+00 0.25579319E+04</pdfrwt>
<pdfrwt beam="2">  1       -2 0.99768414E-01 0.25579319E+04</pdfrwt>
<totfact> 0.24902103E+00</totfact>
</mgrwt>
</event>
<event>
 6    1  0.1762360E-005  0.8718282E+03  0.7818608E-02  0.9461499E-01
          2   -1    0    0  501    0  0.00000000000E+00  0.00000000000E+00  0.13099756067E+04  0.13099756067E+04  0.00000000000E+00 0. -1.
         -2   -1    0    0    0  501 -0.00000000000E+00 -0.00000000000E+00 -0.14505696796E+03  0.14505696796E+03  0.00000000000E+00 0.  1.
         23    2    1    2    0    0 -0.42138047310E+03  0.72817570968E+02  0.67222177588E+03  0.80264151064E+03  0.97403166671E+02 0.  0.
         11    1    3    3    0    0 -0.27029480052E+03  0.13245395077E+02  0.47968616727E+03  0.55075724122E+03  0.00000000000E+00 0. -1.
        -11    1    3    3    0    0 -0.15108567259E+03  0.59572175891E+02  0.19253560861E+03  0.25188426942E+03  0.00000000000E+00 0.  1.
         22    1    1    2    0    0  0.42138047310E+03 -0.72817570968E+02  0.49269686285E+03  0.65239106402E+03  0.00000000000E+00 0.  1.
<mgrwt>
<rscale>  0 0.87182817E+03</rscale>
<asrwt>0</asrwt>
<pdfrwt beam="1">  1        2 0.20153470E+00 0.87182817E+03</pdfrwt>
<pdfrwt beam="2">  1       -2 0.22316457E-01 0.87182817E+03</pdfrwt>
<totfact> 0.28782733E+02</totfact>
</mgrwt>
</event>
<event>
 6    1  0.1762360E-005  0.1790434E+04  0.7818608E-02  0.8711403E-01
          2   -1    0    0  501    0  0.00000000000E+00  0.00000000000E+00  0.13345246314E+04  0.13345246314E+04  0.00000000000E+00 0.  1.
         -2   -1    0    0    0  501 -0.00000000000E+00 -0.00000000000E+00 -0.60052371234E+03  0.60052371234E+03  0.00000000000E+00 0. -1.
         23    2    1    2    0    0  0.39018347960E+02  0.81645250554E+03 -0.20106890741E+02  0.82293516872E+03  0.93278505439E+02 0.  0.
         13    1    3    3    0    0  0.24730741748E+02  0.30345263395E+03 -0.51471064031E+02  0.30877885464E+03  0.00000000000E+00 0.  1.
        -13    1    3    3    0    0  0.14287606212E+02  0.51299987159E+03  0.31364173290E+02  0.51415631408E+03  0.00000000000E+00 0. -1.
         22    1    1    2    0    0 -0.39018347960E+02 -0.81645250554E+03  0.75410780983E+03  0.11121131751E+04  0.00000000000E+00 0.  1.
<mgrwt>
<rscale>  0 0.17904342E+04</rscale>
<asrwt>0</asrwt>
<pdfrwt beam="1">  1        2 0.20531148E+00 0.17904342E+04</pdfrwt>
<pdfrwt beam="2">  1       -2 0.92388263E-01 0.17904342E+04</pdfrwt>
<totfact> 0.14833904E+01</totfact>
</mgrwt>
</event>
<event>
 6    1  0.1762360E-005  0.8921135E+03  0.7818608E-02  0.9435494E-01
         -1   -1    0    0    0  501 -0.00000000000E+00  0.00000000000E+00  0.32509999004E+03  0.32509999004E+03  0.00000000000E+00 0.  1.
          1   -1    0    0  501    0  0.00000000000E+00 -0.00000000000E+00 -0.61201663935E+03  0.61201663935E+03  0.00000000000E+00 0. -1.
         23    2    1    2    0    0 -0.17760443499E+03 -0.24940583122E+03 -0.47901787687E+03  0.57566194952E+03  0.90454130887E+02 0.  0.
         11    1    3    3    0    0 -0.88609222939E+02 -0.17924712604E+03 -0.35667058354E+03  0.40889489083E+03  0.00000000000E+00 0.  1.
        -11    1    3    3    0    0 -0.88995212052E+02 -0.70158705178E+02 -0.12234729333E+03  0.16676705869E+03  0.00000000000E+00 0. -1.
         22    1    1    2    0    0  0.17760443499E+03  0.24940583122E+03  0.19210122756E+03  0.36145467987E+03  0.00000000000E+00 0.  1.
<mgrwt>
<rscale>  0 0.89211345E+03</rscale>
<asrwt>0</asrwt>
<pdfrwt beam="1">  1        1 0.94156405E-01 0.89211345E+03</pdfrwt>
<pdfrwt beam="2">  1       -1 0.50015384E-01 0.89211345E+03</pdfrwt>
<totfact> 0.13454217E+02</totfact>
</mgrwt>
</event>
<event>
 6    1  0.1762360E-005  0.2814075E+04  0.7818608E-02  0.8298912E-01
         -2   -1    0    0    0  501 -0.00000000000E+00  0.00000000000E+00  0.67073311242E+03  0.67073311242E+03  0.00000000000E+00 0.  1.
          2   -1    0    0  501    0  0.00000000000E+00 -0.00000000000E+00 -0.29516275887E+04  0.29516275887E+04  0.00000000000E+00 0. -1.
         23    2    1    2    0    0 -0.10299517985E+04  0.87240295995E+02  0.84129697534E+02  0.10413239096E+04  0.94159982165E+02 0.  0.
         13    1    3    3    0    0 -0.27630319870E+03 -0.12364181435E+02  0.44053687412E+02  0.28006616712E+03  0.00000000000E+00 0. -1.
        -13    1    3    3    0    0 -0.75364859980E+03  0.99604477431E+02  0.40076010122E+02  0.76125774248E+03  0.00000000000E+00 0.  1.
         22    1    1    2    0    0  0.10299517985E+04 -0.87240295995E+02 -0.23650241738E+04  0.25810367915E+04  0.00000000000E+00 0. -1.
<mgrwt>
<rscale>  0 0.28140749E+04</rscale>
<asrwt>0</asrwt>
<pdfrwt beam="1">  1        2 0.45409657E+00 0.28140749E+04</pdfrwt>
<pdfrwt beam="2">  1       -2 0.10318971E+00 0.28140749E+04</pdfrwt>
<totfact> 0.12428260E+00</totfact>
</mgrwt>
</event>
<event>
 6    1  0.1762360E-005  0.5130031E+04  0.7818608E-02  0.7808756E-01
          1   -1    0    0  501    0  0.00000000000E+00  0.00000000000E+00  0.42358685199E+04  0.42358685199E+04  0.00000000000E+00 0. -1.
         -1   -1    0    0    0  501 -0.00000000000E+00 -0.00000000000E+00 -0.15532360359E+04  0.15532360359E+04  0.00000000000E+00 0.  1.
         23    2    1    2    0    0  0.13173841077E+04 -0.54031313566E+03  0.37481839033E+04  0.40106673208E+04  0.95554242618E+02 0.  0.
         13    1    3    3    0    0  0.71576531538E+03 -0.25710876958E+03  0.20941650271E+04  0.22279928337E+04  0.00000000000E+00 0.  1.
        -13    1    3    3    0    0  0.60161879233E+03 -0.28320436608E+03  0.16540188762E+04  0.17826744872E+04  0.00000000000E+00 0. -1.
         22    1    1    2    0    0 -0.13173841077E+04  0.54031313566E+03 -0.10655514193E+04  0.17784372351E+04  0.00000000000E+00 0.  1.
<mgrwt>
<rscale>  0 0.51300307E+04</rscale>
<asrwt>0</asrwt>
<pdfrwt beam="1">  1        1 0.65167208E+00 0.51300307E+04</pdfrwt>
<pdfrwt beam="2">  1       -1 0.23895939E+00 0.51300307E+04</pdfrwt>
<totfact> 0.34276951E-03</totfact>
</mgrwt>
</event>
<event>
 6    1  0.1762360E-005  0.3197313E+04  0.7818608E-02  0.8189527E-01
         -2   -1    0    0    0  501 -0.00000000000E+00  0.00000000000E+00  0.16651151125E+04  0.16651151125E+04  0.00000000000E+00 0.  1.
          2   -1    0    0  501    0  0.00000000000E+00 -0.00000000000E+00 -0.15348507357E+04  0.15348507357E+04  0.00000000000E+00 0. -1.
         23    2    1    2    0    0  0.98581997049E+03 -0.64856364407E+03  0.11425361513E+04  0.16452408050E+04  0.94618363893E+02 0.  0.
         13    1    3    3    0    0  0.27448587431E+03 -0.15312990554E+03  0.35383770855E+03  0.47327834004E+03  0.00000000000E+00 0. -1.
        -13    1    3    3    0    0  0.71133409618E+03 -0.49543373853E+03  0.78869844273E+03  0.11719624649E+04  0.00000000000E+00 0.  1.
         22    1    1    2    0    0 -0.98581997049E+03  0.64856364407E+03 -0.10122717745E+04  0.15547250432E+04  0.00000000000E+00 0. -1.
<mgrwt>
<rscale>  0 0.31973133E+04</rscale>
<asrwt>0</asrwt>
<pdfrwt beam="1">  1        2 0.23613088E+00 0.31973133E+04</pdfrwt>
<pdfrwt beam="2">  1       -2 0.25617156E+00 0.31973133E+04</pdfrwt>
<totfact> 0.60174401E-01</totfact>
</mgrwt>
</event>
<event>
 6    1  0.1762360E-005  0.1024382E+04  0.7818608E-02  0.9282200E-01
         -1   -1    0    0    0  501 -0.00000000000E+00  0.00000000000E+00  0.27450996731E+03  0.27450996731E+03  0.00000000000E+00 0. -1.
          1   -1    0    0  501    0  0.00000000000E+00 -0.00000000000E+00 -0.95566593442E+03  0.95566593442E+03  0.00000000000E+00 0.  1.
         23    2    1    2    0    0  0.26077564019E+03 -0.33422282259E+03 -0.64765439171E+01  0.43336905328E+03  0.89766146558E+02 0.  0.
         11    1    3    3    0    0  0.17276375001E+03 -0.25081769866E+03 -0.40972397362E+02  0.30730370747E+03  0.00000000000E+00 0.  1.
        -11    1    3    3    0    0  0.88011890178E+02 -0.83405123925E+02  0.34495853445E+02  0.12606534581E+03  0.00000000000E+00 0. -1.
         22    1    1    2    0    0 -0.26077564019E+03  0.33422282259E+03 -0.67467942319E+03  0.79680684845E+03  0.00000000000E+00 0.  1.
<mgrwt>
<rscale>  0 0.10243824E+04</rscale>
<asrwt>0</asrwt>
<pdfrwt beam="1">  1        1 0.14702553E+00 0.10243824E+04</pdfrwt>
<pdfrwt beam="2">  1       -1 0.42232302E-01 0.10243824E+04</pdfrwt>
<totfact> 0.90434374E+01</totfact>
</mgrwt>
</event>
<event>
 6    1  0.1762360E-005  0.2367087E+04  0.7818608E-02  0.8451929E-01
         -2   -1    0    0    0  501 -0.00000000000E+00  0.00000000000E+00  0.69492481753E+03  0.69492481753E+03  0.00000000000E+00 0. -1.
          2   -1    0    0  501    0  0.00000000000E+00 -0.00000000000E+00 -0.20157222418E+04  0.20157222418E+04  0.00000000000E+00 0.  1.
         23    2    1    2    0    0  0.42006587264E+03 -0.65722412928E+03  0.35559165005E+03  0.86167999040E+03  0.87453363590E+02 0.  0.
         11    1    3    3    0    0  0.25360020120E+03 -0.46778739975E+03  0.22549087683E+03  0.57791370371E+03  0.00000000000E+00 0.  1.
        -11    1    3    3    0    0  0.16646567144E+03 -0.18943672953E+03  0.13010077322E+03  0.28376628668E+03  0.00000000000E+00 0. -1.
         22    1    1    2    0    0 -0.42006587264E+03  0.65722412928E+03 -0.16763890743E+04  0.18489670689E+04  0.00000000000E+00 0.  1.
<mgrwt>
<rscale>  0 0.23670872E+04</rscale>
<asrwt>0</asrwt>
<pdfrwt beam="1">  1        2 0.31011110E+00 0.23670872E+04</pdfrwt>
<pdfrwt beam="2">  1       -2 0.10691151E+00 0.23670872E+04</pdfrwt>
<totfact> 0.41552679E+00</totfact>
</mgrwt>
</event>
<event>
 6    1  0.1762360E-005  0.3101866E+04  0.7818608E-02  0.8215226E-01
         -2   -1    0    0    0  501 -0.00000000000E+00  0.00000000000E+00  0.53757585923E+03  0.53757585923E+03  0.00000000000E+00 0. -1.
          2   -1    0    0  501    0  0.00000000000E+00 -0.00000000000E+00 -0.44745187412E+04  0.44745187412E+04  0.00000000000E+00 0.  1.
         23    2    1    2    0    0  0.50438885273E+03  0.12140618218E+04 -0.32956607729E+04  0.35493584775E+04  0.90617052595E+02 0.  0.
         13    1    3    3    0    0  0.36702860273E+03  0.82228677772E+03 -0.23479297684E+04  0.25146848187E+04  0.00000000000E+00 0.  1.
        -13    1    3    3    0    0  0.13736025000E+03  0.39177504404E+03 -0.94773100451E+03  0.10346736589E+04  0.00000000000E+00 0. -1.
         22    1    1    2    0    0 -0.50438885273E+03 -0.12140618218E+04 -0.64128210909E+03  0.14627361229E+04  0.00000000000E+00 0. -1.
<mgrwt>
<rscale>  0 0.31018661E+04</rscale>
<asrwt>0</asrwt>
<pdfrwt beam="1">  1        2 0.68838751E+00 0.31018661E+04</pdfrwt>
<pdfrwt beam="2">  1       -2 0.82703977E-01 0.31018661E+04</pdfrwt>
<totfact> 0.14159917E-01</totfact>
</mgrwt>
</event>
<event>
 6    1  0.1762360E-005  0.2062566E+04  0.7818608E-02  0.8577915E-01
         -2   -1    0    0    0  501 -0.00000000000E+00  0.00000000000E+00  0.18932001997E+04  0.18932001997E+04  0.00000000000E+00 0. -1.
          2   -1    0    0  501    0  0.00000000000E+00 -0.00000000000E+00 -0.56177105312E+03  0.56177105312E+03  0.00000000000E+00 0.  1.
         23    2    1    2    0    0  0.45143897964E+03 -0.29595924706E+03 -0.37613001217E+03  0.66412025151E+03  0.90514607365E+02 0.  0.
         11    1    3    3    0    0  0.43085829844E+03 -0.26183377326E+03 -0.32733163531E+03  0.60111712472E+03  0.00000000000E+00 0.  1.
        -11    1    3    3    0    0  0.20580681197E+02 -0.34125473801E+02 -0.48798376862E+02  0.63003126787E+02  0.00000000000E+00 0. -1.
         22    1    1    2    0    0 -0.45143897964E+03  0.29595924706E+03  0.17075591587E+04  0.17908510013E+04  0.00000000000E+00 0. -1.
<mgrwt>
<rscale>  0 0.20625664E+04</rscale>
<asrwt>0</asrwt>
<pdfrwt beam="1">  1        2 0.86426316E-01 0.20625664E+04</pdfrwt>
<pdfrwt beam="2">  1       -2 0.29126157E+00 0.20625664E+04</pdfrwt>
<totfact> 0.17848485E+00</totfact>
</mgrwt>
</event>
<event>
 6    1  0.1762360E-005  0.2501870E+04  0.7818608E-02  0.8402320E-01
         -1   -1    0    0    0  501 -0.00000000000E+00  0.00000000000E+00  0.76553796117E+03  0.76553796117E+03  0.00000000000E+00 0.  1.
          1   -1    0    0  501    0  0.00000000000E+00 -0.00000000000E+00 -0.20441021143E+04  0.20441021143E+04  0.00000000000E+00 0. -1.
         23    2    1    2    0    0 -0.56541014272E+03 -0.86571067791E+03  0.14688902328E+03  0.10486572915E+04  0.94668487471E+02 0.  0.
         13    1    3    3    0    0 -0.41504678066E+03 -0.55490839624E+03  0.10487082649E+03  0.70084595212E+03  0.00000000000E+00 0. -1.
        -13    1    3    3    0    0 -0.15036336206E+03 -0.31080228167E+03  0.42018196786E+02  0.34781133938E+03  0.00000000000E+00 0.  1.
         22    1    1    2    0    0  0.56541014272E+03  0.86571067791E+03 -0.14254531764E+04  0.17609827840E+04  0.00000000000E+00 0. -1.
<mgrwt>
<rscale>  0 0.25018695E+04</rscale>
<asrwt>0</asrwt>
<pdfrwt beam="1">  1        1 0.31447725E+00 0.25018695E+04</pdfrwt>
<pdfrwt beam="2">  1       -1 0.11777507E+00 0.25018695E+04</pdfrwt>
<totfact> 0.16007316E+00</totfact>
</mgrwt>
</event>
<event>
 6    1  0.1762360E-005  0.1153565E+04  0.7818608E-02  0.9154501E-01
         -1   -1    0    0    0  501 -0.00000000000E+00  0.00000000000E+00  0.28597488617E+03  0.28597488617E+03  0.00000000000E+00 0.  1.
          1   -1    0    0  501    0  0.00000000000E+00 -0.00000000000E+00 -0.11633128196E+04  0.11633128196E+04  0.00000000000E+00 0. -1.
         23    2    1    2    0    0  0.28675805596E+03 -0.29962445640E+03 -0.93900256967E+03  0.10299936265E+04  0.84593423675E+02 0.  0.
         13    1    3    3    0    0  0.68403423509E+02 -0.96357180991E+02 -0.35597166359E+03  0.37507273955E+03  0.00000000000E+00 0. -1.
        -13    1    3    3    0    0  0.21835463245E+03 -0.20326727540E+03 -0.58303090608E+03  0.65492088698E+03  0.00000000000E+00 0.  1.
         22    1    1    2    0    0 -0.28675805596E+03  0.29962445640E+03  0.61664636241E+02  0.41929407924E+03  0.00000000000E+00 0.  1.
<mgrwt>
<rscale>  0 0.11535653E+04</rscale>
<asrwt>0</asrwt>
<pdfrwt beam="1">  1        1 0.17897121E+00 0.11535653E+04</pdfrwt>
<pdfrwt beam="2">  1       -1 0.43996135E-01 0.11535653E+04</pdfrwt>
<totfact> 0.57644195E+01</totfact>
</mgrwt>
</event>
<event>
 6    1  0.1762360E-005  0.1216444E+04  0.7818608E-02  0.9098583E-01
         -2   -1    0    0    0  501 -0.00000000000E+00  0.00000000000E+00  0.43060554784E+03  0.43060554784E+03  0.00000000000E+00 0.  1.
          2   -1    0    0  501    0  0.00000000000E+00 -0.00000000000E+00 -0.85910220063E+03  0.85910220063E+03  0.00000000000E+00 0. -1.
         23    2    1    2    0    0  0.76236526317E+02 -0.57333214102E+03 -0.27360723426E+02  0.58583859465E+03  0.89087024426E+02 0.  0.
         13    1    3    3    0    0  0.54559518123E+02 -0.26516524321E+03 -0.52959296528E+02  0.27585147147E+03  0.00000000000E+00 0.  1.
        -13    1    3    3    0    0  0.21677008194E+02 -0.30816689781E+03  0.25598573102E+02  0.30998712318E+03  0.00000000000E+00 0. -1.
         22    1    1    2    0    0 -0.76236526317E+02  0.57333214102E+03 -0.40113592936E+03  0.70386915382E+03  0.00000000000E+00 0. -1.
<mgrwt>
<rscale>  0 0.12164443E+04</rscale>
<asrwt>0</asrwt>
<pdfrwt beam="1">  1        2 0.13216957E+00 0.12164443E+04</pdfrwt>
<pdfrwt beam="2">  1       -2 0.66247008E-01 0.12164443E+04</pdfrwt>
<totfact> 0.64628247E+01</totfact>
</mgrwt>
</event>
<event>
 6    1  0.1762360E-005  0.2184869E+04  0.7818608E-02  0.8524753E-01
          1   -1    0    0  501    0  0.00000000000E+00  0.00000000000E+00  0.35653431844E+03  0.35653431844E+03  0.00000000000E+00 0. -1.
         -1   -1    0    0    0  501 -0.00000000000E+00 -0.00000000000E+00 -0.33472594991E+04  0.33472594991E+04  0.00000000000E+00 0.  1.
         23    2    1    2    0    0  0.78685844337E+01  0.10900836062E+04 -0.15509129764E+04  0.18978582244E+04  0.90501913111E+02 0.  0.
         11    1    3    3    0    0  0.39575523071E+02  0.87206950512E+03 -0.12129315815E+04  0.14944144222E+04  0.00000000000E+00 0. -1.
        -11    1    3    3    0    0 -0.31706938637E+02  0.21801410109E+03 -0.33798139492E+03  0.40344380221E+03  0.00000000000E+00 0.  1.
         22    1    1    2    0    0 -0.78685844337E+01 -0.10900836062E+04 -0.14398122042E+04  0.18059355931E+04  0.00000000000E+00 0.  1.
<mgrwt>
<rscale>  0 0.21848688E+04</rscale>
<asrwt>0</asrwt>
<pdfrwt beam="1">  1        1 0.54851434E-01 0.21848688E+04</pdfrwt>
<pdfrwt beam="2">  1       -1 0.51496299E+00 0.21848688E+04</pdfrwt>
<totfact> 0.75935423E-02</totfact>
</mgrwt>
</event>
<event>
 6    1  0.1762360E-005  0.4610010E+04  0.7818608E-02  0.7891655E-01
          1   -1    0    0  501    0  0.00000000000E+00  0.00000000000E+00  0.21726514935E+04  0.21726514935E+04  0.00000000000E+00 0.  1.
         -1   -1    0    0    0  501 -0.00000000000E+00 -0.00000000000E+00 -0.24454210751E+04  0.24454210751E+04  0.00000000000E+00 0. -1.
         23    2    1    2    0    0 -0.51076902601E+03 -0.32822480024E+03 -0.23630430053E+04  0.24414100998E+04  0.88851072568E+02 0.  0.
         13    1    3    3    0    0 -0.13353489701E+03 -0.11948126953E+03 -0.58399931370E+03  0.61087031430E+03  0.00000000000E+00 0. -1.
        -13    1    3    3    0    0 -0.37723412900E+03 -0.20874353071E+03 -0.17790436916E+04  0.18305397855E+04  0.00000000000E+00 0.  1.
         22    1    1    2    0    0  0.51076902601E+03  0.32822480024E+03  0.20902734237E+04  0.21766624688E+04  0.00000000000E+00 0.  1.
<mgrwt>
<rscale>  0 0.46100099E+04</rscale>
<asrwt>0</asrwt>
<pdfrwt beam="1">  1        1 0.33425408E+00 0.46100099E+04</pdfrwt>
<pdfrwt beam="2">  1       -1 0.37621863E+00 0.46100099E+04</pdfrwt>
<totfact> 0.17573402E-02</totfact>
</mgrwt>
</event>
<event>
 6    1  0.1762360E-005  0.2745827E+04  0.7818608E-02  0.8320287E-01
          2   -1    0    0  501    0  0.00000000000E+00  0.00000000000E+00  0.14941136622E+04  0.14941136622E+04  0.00000000000E+00 0. -1.
         -2   -1    0    0    0  501 -0.00000000000E+00 -0.00000000000E+00 -0.12615451226E+04  0.12615451226E+04  0.00000000000E+00 0.  1.
         23    2    1    2    0    0 -0.10491324694E+04 -0.30881694803E+03  0.94724685506E+03  0.14492086555E+04  0.82959490740E+02 0.  0.
         13    1    3    3    0    0 -0.39626089076E+03 -0.86089682402E+02  0.31493130337E+03  0.51343534433E+03  0.00000000000E+00 0. -1.
        -13    1    3    3    0    0 -0.65287157860E+03 -0.22272726563E+03  0.63231555168E+03  0.93577331117E+03  0.00000000000E+00 0.  1.
         22    1    1    2    0    0  0.10491324694E+04  0.30881694803E+03 -0.71467831545E+03  0.13064501293E+04  0.00000000000E+00 0.  1.
<mgrwt>
<rscale>  0 0.27458272E+04</rscale>
<asrwt>0</asrwt>
<pdfrwt beam="1">  1        2 0.22986364E+00 0.27458272E+04</pdfrwt>
<pdfrwt beam="2">  1       -2 0.19408386E+00 0.27458272E+04</pdfrwt>
<totfact> 0.16274177E+00</totfact>
</mgrwt>
</event>
<event>
 6    1  0.2918046E-005  0.3678825E+04  0.7818608E-02  0.8072671E-01
          2   -1    0    0  501    0  0.00000000000E+00  0.00000000000E+00  0.14456135971E+04  0.14456135971E+04  0.00000000000E+00 0. -1.
         -2   -1    0    0    0  501 -0.00000000000E+00 -0.00000000000E+00 -0.23404863573E+04  0.23404863573E+04  0.00000000000E+00 0.  1.
         23    2    1    2    0    0  0.12968728812E+03 -0.30820964004E+03 -0.23080233898E+04  0.23339268666E+04  0.91818714043E+02 0.  0.
         11    1    3    3    0    0  0.12323454803E+03 -0.18101812649E+03 -0.14031805153E+04  0.14201654392E+04  0.00000000000E+00 0. -1.
        -11    1    3    3    0    0  0.64527400908E+01 -0.12719151356E+03 -0.90484287442E+03  0.91376142749E+03  0.00000000000E+00 0.  1.
         22    1    1    2    0    0 -0.12968728812E+03  0.30820964004E+03  0.14131506296E+04  0.14521730877E+04  0.00000000000E+00 0. -1.
<mgrwt>
<rscale>  0 0.36788253E+04</rscale>
<asrwt>0</asrwt>
<pdfrwt beam="1">  1        2 0.22240209E+00 0.36788253E+04</pdfrwt>
<pdfrwt beam="2">  1       -2 0.36007482E+00 0.36788253E+04</pdfrwt>
<totfact> 0.14817613E-01</totfact>
</mgrwt>
</event>
<event>
 6    1  0.1762360E-005  0.1027575E+04  0.7818608E-02  0.9278808E-01
          2   -1    0    0  501    0  0.00000000000E+00  0.00000000000E+00  0.20170058535E+04  0.20170058535E+04  0.00000000000E+00 0. -1.
         -2   -1    0    0    0  501 -0.00000000000E+00 -0.00000000000E+00 -0.13087588631E+03  0.13087588631E+03  0.00000000000E+00 0.  1.
         23    2    1    2    0    0 -0.14324427348E+03 -0.38091305060E+03  0.15919448831E+04  0.16457278414E+04  0.92292703540E+02 0.  0.
         11    1    3    3    0    0 -0.76609729046E+02 -0.17223794119E+03  0.91522414719E+03  0.93443576482E+03  0.00000000000E+00 0.  1.
        -11    1    3    3    0    0 -0.66634544430E+02 -0.20867510941E+03  0.67672073594E+03  0.71129207661E+03  0.00000000000E+00 0. -1.
         22    1    1    2    0    0  0.14324427348E+03  0.38091305060E+03  0.29418508410E+03  0.50215389843E+03  0.00000000000E+00 0.  1.
<mgrwt>
<rscale>  0 0.10275747E+04</rscale>
<asrwt>0</asrwt>
<pdfrwt beam="1">  1        2 0.31030857E+00 0.10275747E+04</pdfrwt>
<pdfrwt beam="2">  1       -2 0.20134753E-01 0.10275747E+04</pdfrwt>
<totfact> 0.13813260E+02</totfact>
</mgrwt>
</event>
<event>
 6    1  0.1762360E-005  0.8637825E+03  0.7818608E-02  0.9472023E-01
          4   -1    0    0  501    0  0.00000000000E+00  0.00000000000E+00  0.14248419502E+03  0.14248419502E+03  0.00000000000E+00 0. -1.
         -4   -1    0    0    0  501 -0.00000000000E+00 -0.00000000000E+00 -0.13091279124E+04  0.13091279124E+04  0.00000000000E+00 0.  1.
         23    2    1    2    0    0 -0.37350171788E+03  0.66968352176E+02 -0.26050949820E+03  0.46923360775E+03  0.91250679683E+02 0.  0.
         11    1    3    3    0    0 -0.20085700529E+03  0.17789723535E+02 -0.18781009843E+03  0.27555878485E+03  0.00000000000E+00 0. -1.
        -11    1    3    3    0    0 -0.17264471258E+03  0.49178628641E+02 -0.72699399774E+02  0.19367482290E+03  0.00000000000E+00 0.  1.
         22    1    1    2    0    0  0.37350171788E+03 -0.66968352176E+02 -0.90613421914E+03  0.98237849964E+03  0.00000000000E+00 0.  1.
<mgrwt>
<rscale>  0 0.86378247E+03</rscale>
<asrwt>0</asrwt>
<pdfrwt beam="1">  1        4 0.21920646E-01 0.86378247E+03</pdfrwt>
<pdfrwt beam="2">  1       -4 0.20140429E+00 0.86378247E+03</pdfrwt>
<totfact> 0.50362526E+00</totfact>
</mgrwt>
</event>
<event>
 6    1  0.1762360E-005  0.1769250E+04  0.7818608E-02  0.8722825E-01
          1   -1    0    0  501    0  0.00000000000E+00  0.00000000000E+00  0.17241803886E+04  0.17241803886E+04  0.00000000000E+00 0. -1.
         -1   -1    0    0    0  501 -0.00000000000E+00 -0.00000000000E+00 -0.45387438602E+03  0.45387438602E+03  0.00000000000E+00 0.  1.
         23    2    1    2    0    0  0.64247664901E+03  0.28236353513E+03 -0.21430891793E+02  0.70799028121E+03  0.91024967288E+02 0.  0.
         11    1    3    3    0    0  0.10779060661E+03  0.17778177165E+02 -0.21903902563E+02  0.11142109048E+03  0.00000000000E+00 0.  1.
        -11    1    3    3    0    0  0.53468604240E+03  0.26458535796E+03  0.47301076993E+00  0.59656919073E+03  0.00000000000E+00 0. -1.
         22    1    1    2    0    0 -0.64247664901E+03 -0.28236353513E+03  0.12917368944E+04  0.14700644934E+04  0.00000000000E+00 0. -1.
<mgrwt>
<rscale>  0 0.17692499E+04</rscale>
<asrwt>0</asrwt>
<pdfrwt beam="1">  1        1 0.26525852E+00 0.17692499E+04</pdfrwt>
<pdfrwt beam="2">  1       -1 0.69826830E-01 0.17692499E+04</pdfrwt>
<totfact> 0.90015817E+00</totfact>
</mgrwt>
</event>
<event>
 6    1  0.1762360E-005  0.4627504E+04  0.7818608E-02  0.7888687E-01
         -2   -1    0    0    0  501 -0.00000000000E+00  0.00000000000E+00  0.24418581635E+04  0.24418581635E+04  0.00000000000E+00 0.  1.
          2   -1    0    0  501    0  0.00000000000E+00 -0.00000000000E+00 -0.21923668624E+04  0.21923668624E+04  0.00000000000E+00 0. -1.
         23    2    1    2    0    0 -0.18717187202E+04 -0.54474243467E+03  0.13712996419E+04  0.23851075898E+04  0.90555062531E+02 0.  0.
         11    1    3    3    0    0 -0.11649490924E+04 -0.38444210502E+03  0.86663053838E+03  0.15019822269E+04  0.00000000000E+00 0.  1.
        -11    1    3    3    0    0 -0.70676962785E+03 -0.16030032965E+03  0.50466910353E+03  0.88312536290E+03  0.00000000000E+00 0. -1.
         22    1    1    2    0    0  0.18717187202E+04  0.54474243467E+03 -0.11218083408E+04  0.22491174361E+04  0.00000000000E+00 0. -1.
<mgrwt>
<rscale>  0 0.46275043E+04</rscale>
<asrwt>0</asrwt>
<pdfrwt beam="1">  1        2 0.33728721E+00 0.46275043E+04</pdfrwt>
<pdfrwt beam="2">  1       -2 0.37567049E+00 0.46275043E+04</pdfrwt>
<totfact> 0.41761089E-02</totfact>
</mgrwt>
</event>
<event>
 6    1  0.1762360E-005  0.2949658E+04  0.7818608E-02  0.8258254E-01
          2   -1    0    0  501    0  0.00000000000E+00  0.00000000000E+00  0.33037967831E+04  0.33037967831E+04  0.00000000000E+00 0. -1.
         -2   -1    0    0    0  501 -0.00000000000E+00 -0.00000000000E+00 -0.65836991983E+03  0.65836991983E+03  0.00000000000E+00 0.  1.
         23    2    1    2    0    0 -0.78914361152E+03 -0.69802769164E+02  0.29927521547E+04  0.30971494058E+04  0.90271349110E+02 0.  0.
         13    1    3    3    0    0 -0.53006622574E+03 -0.60885918131E+01  0.20395061306E+04  0.21072713473E+04  0.00000000000E+00 0. -1.
        -13    1    3    3    0    0 -0.25907738578E+03 -0.63714177351E+02  0.95324602406E+03  0.98987805845E+03  0.00000000000E+00 0.  1.
         22    1    1    2    0    0  0.78914361152E+03  0.69802769164E+02 -0.34732529143E+03  0.86501729708E+03  0.00000000000E+00 0.  1.
<mgrwt>
<rscale>  0 0.29496579E+04</rscale>
<asrwt>0</asrwt>
<pdfrwt beam="1">  1        2 0.50827642E+00 0.29496579E+04</pdfrwt>
<pdfrwt beam="2">  1       -2 0.10128768E+00 0.29496579E+04</pdfrwt>
<totfact> 0.76214639E-01</totfact>
</mgrwt>
</event>
<event>
 6    1  0.1762360E-005  0.1692781E+04  0.7818608E-02  0.8765492E-01
          2   -1    0    0  501    0  0.00000000000E+00  0.00000000000E+00  0.15515823065E+04  0.15515823065E+04  0.00000000000E+00 0. -1.
         -2   -1    0    0    0  501 -0.00000000000E+00 -0.00000000000E+00 -0.46170743409E+03  0.46170743409E+03  0.00000000000E+00 0.  1.
         23    2    1    2    0    0 -0.25303229445E+03  0.58439317933E+03 -0.11217888222E+03  0.65296847004E+03  0.90790920102E+02 0.  0.
         13    1    3    3    0    0 -0.77018435109E+02  0.22804993372E+03 -0.82372491532E+02  0.25440880287E+03  0.00000000000E+00 0. -1.
        -13    1    3    3    0    0 -0.17601385934E+03  0.35634324560E+03 -0.29806390689E+02  0.39855966717E+03  0.00000000000E+00 0.  1.
         22    1    1    2    0    0  0.25303229445E+03 -0.58439317933E+03  0.12020537546E+04  0.13603212705E+04  0.00000000000E+00 0. -1.
<mgrwt>
<rscale>  0 0.16927812E+04</rscale>
<asrwt>0</asrwt>
<pdfrwt beam="1">  1        2 0.23870497E+00 0.16927812E+04</pdfrwt>
<pdfrwt beam="2">  1       -2 0.71031914E-01 0.16927812E+04</pdfrwt>
<totfact> 0.20347020E+01</totfact>
</mgrwt>
</event>
<event>
 6    1  0.1762360E-005  0.2159523E+04  0.7818608E-02  0.8535467E-01
         -2   -1    0    0    0  501 -0.00000000000E+00  0.00000000000E+00  0.10187323874E+04  0.10187323874E+04  0.00000000000E+00 0.  1.
          2   -1    0    0  501    0  0.00000000000E+00 -0.00000000000E+00 -0.11444462533E+04  0.11444462533E+04  0.00000000000E+00 0. -1.
         23    2    1    2    0    0  0.95591944205E+03  0.48488239699E+03  0.50898377608E+02  0.10768615585E+04  0.90262133072E+02 0.  0.
         11    1    3    3    0    0  0.64433574634E+03  0.36251282709E+03  0.62148568509E+02  0.74192085049E+03  0.00000000000E+00 0. -1.
        -11    1    3    3    0    0  0.31158369571E+03  0.12236956990E+03 -0.11250190901E+02  0.33494070798E+03  0.00000000000E+00 0.  1.
         22    1    1    2    0    0 -0.95591944205E+03 -0.48488239699E+03 -0.17661224348E+03  0.10863170822E+04  0.00000000000E+00 0.  1.
<mgrwt>
<rscale>  0 0.21595226E+04</rscale>
<asrwt>0</asrwt>
<pdfrwt beam="1">  1        2 0.17606865E+00 0.21595226E+04</pdfrwt>
<pdfrwt beam="2">  1       -2 0.15672806E+00 0.21595226E+04</pdfrwt>
<totfact> 0.49994519E+00</totfact>
</mgrwt>
</event>
<event>
 6    1  0.1762360E-005  0.2792007E+04  0.7818608E-02  0.8305754E-01
         -2   -1    0    0    0  501 -0.00000000000E+00  0.00000000000E+00  0.16515258881E+04  0.16515258881E+04  0.00000000000E+00 0.  1.
          2   -1    0    0  501    0  0.00000000000E+00 -0.00000000000E+00 -0.11800152526E+04  0.11800152526E+04  0.00000000000E+00 0. -1.
         23    2    1    2    0    0  0.90292855617E+02  0.69047345489E+03 -0.98926776048E+03  0.12132766649E+04  0.92104136771E+02 0.  0.
         13    1    3    3    0    0 -0.40155844532E+00  0.35206573902E+03 -0.49493710026E+03  0.60738223472E+03  0.00000000000E+00 0. -1.
        -13    1    3    3    0    0  0.90694414062E+02  0.33840771588E+03 -0.49433066022E+03  0.60589443020E+03  0.00000000000E+00 0.  1.
         22    1    1    2    0    0 -0.90292855617E+02 -0.69047345489E+03  0.14607783960E+04  0.16182644759E+04  0.00000000000E+00 0.  1.
<mgrwt>
<rscale>  0 0.27920070E+04</rscale>
<asrwt>0</asrwt>
<pdfrwt beam="1">  1        2 0.18154081E+00 0.27920070E+04</pdfrwt>
<pdfrwt beam="2">  1       -2 0.25408091E+00 0.27920070E+04</pdfrwt>
<totfact> 0.10283234E+00</totfact>
</mgrwt>
</event>
<event>
 6    1  0.1762360E-005  0.3624389E+04  0.7818608E-02  0.8084928E-01
          2   -1    0    0  501    0  0.00000000000E+00  0.00000000000E+00  0.19092389138E+04  0.19092389138E+04  0.00000000000E+00 0.  1.
         -2   -1    0    0    0  501 -0.00000000000E+00 -0.00000000000E+00 -0.17200823401E+04  0.17200823401E+04  0.00000000000E+00 0. -1.
         23    2    1    2    0    0  0.63656113727E+03 -0.16428310739E+04  0.51447851654E+03  0.18376911622E+04  0.91195639607E+02 0.  0.
         11    1    3    3    0    0  0.48601076581E+03 -0.12035334506E+04  0.34141130419E+03  0.13421106176E+04  0.00000000000E+00 0.  1.
        -11    1    3    3    0    0  0.15055037146E+03 -0.43929762327E+03  0.17306721235E+03  0.49558054456E+03  0.00000000000E+00 0. -1.
         22    1    1    2    0    0 -0.63656113727E+03  0.16428310739E+04 -0.32532194281E+03  0.17916300917E+04  0.00000000000E+00 0. -1.
<mgrwt>
<rscale>  0 0.36243886E+04</rscale>
<asrwt>0</asrwt>
<pdfrwt beam="1">  1        2 0.29372906E+00 0.36243886E+04</pdfrwt>
<pdfrwt beam="2">  1       -2 0.26462805E+00 0.36243886E+04</pdfrwt>
<totfact> 0.31909390E-01</totfact>
</mgrwt>
</event>
<event>
 6    1  0.1762360E-005  0.2682754E+04  0.7818608E-02  0.8340622E-01
          1   -1    0    0  501    0  0.00000000000E+00  0.00000000000E+00  0.28957842872E+04  0.28957842872E+04  0.00000000000E+00 0. -1.
         -1   -1    0    0    0  501 -0.00000000000E+00 -0.00000000000E+00 -0.62134908115E+03  0.62134908115E+03  0.00000000000E+00 0.  1.
         23    2    1    2    0    0 -0.69850357082E+03  0.28065956079E+03  0.25916257538E+04  0.27002570796E+04  0.90483262106E+02 0.  0.
         13    1    3    3    0    0 -0.39144700275E+03  0.14900728490E+03  0.15974264250E+04  0.16514251755E+04  0.00000000000E+00 0. -1.
        -13    1    3    3    0    0 -0.30705656807E+03  0.13165227589E+03  0.99419932882E+03  0.10488319041E+04  0.00000000000E+00 0.  1.
         22    1    1    2    0    0  0.69850357082E+03 -0.28065956079E+03 -0.31719054775E+03  0.81687628873E+03  0.00000000000E+00 0.  1.
<mgrwt>
<rscale>  0 0.26827545E+04</rscale>
<asrwt>0</asrwt>
<pdfrwt beam="1">  1        1 0.44550527E+00 0.26827545E+04</pdfrwt>
<pdfrwt beam="2">  1       -1 0.95592168E-01 0.26827545E+04</pdfrwt>
<totfact> 0.65657677E-01</totfact>
</mgrwt>
</event>
<event>
 6    1  0.1762360E-005  0.8827383E+03  0.7818608E-02  0.9447420E-01
          1   -1    0    0  501    0  0.00000000000E+00  0.00000000000E+00  0.84738670121E+03  0.84738670121E+03  0.00000000000E+00 0. -1.
         -1   -1    0    0    0  501 -0.00000000000E+00 -0.00000000000E+00 -0.22989118963E+03  0.22989118963E+03  0.00000000000E+00 0.  1.
         23    2    1    2    0    0  0.22594267712E+03 -0.85881460747E+00  0.76796540593E+03  0.80581514936E+03  0.92284122754E+02 0.  0.
         11    1    3    3    0    0  0.78365596547E+02  0.63970495218E+01  0.13870260587E+03  0.15943808152E+03  0.00000000000E+00 0.  1.
        -11    1    3    3    0    0  0.14757708058E+03 -0.72558641292E+01  0.62926280006E+03  0.64637706783E+03  0.00000000000E+00 0. -1.
         22    1    1    2    0    0 -0.22594267712E+03  0.85881460747E+00 -0.15046989436E+03  0.27146274149E+03  0.00000000000E+00 0.  1.
<mgrwt>
<rscale>  0 0.88273832E+03</rscale>
<asrwt>0</asrwt>
<pdfrwt beam="1">  1        1 0.13036718E+00 0.88273832E+03</pdfrwt>
<pdfrwt beam="2">  1       -1 0.35367876E-01 0.88273832E+03</pdfrwt>
<totfact> 0.15439221E+02</totfact>
</mgrwt>
</event>
<event>
 6    1  0.1762360E-005  0.1139019E+04  0.7818608E-02  0.9167975E-01
         -2   -1    0    0    0  501 -0.00000000000E+00  0.00000000000E+00  0.40103400000E+03  0.40103400000E+03  0.00000000000E+00 0.  1.
          2   -1    0    0  501    0  0.00000000000E+00 -0.00000000000E+00 -0.80876133350E+03  0.80876133350E+03  0.00000000000E+00 0. -1.
         23    2    1    2    0    0  0.23847996556E+03 -0.34112780994E+03  0.20198257534E+03  0.47156295165E+03  0.91289539073E+02 0.  0.
         13    1    3    3    0    0  0.13364763448E+03 -0.11467569521E+03  0.94541340435E+02  0.19987563715E+03  0.00000000000E+00 0.  1.
        -13    1    3    3    0    0  0.10483233108E+03 -0.22645211473E+03  0.10744123490E+03  0.27168731450E+03  0.00000000000E+00 0. -1.
         22    1    1    2    0    0 -0.23847996556E+03  0.34112780994E+03 -0.60970990883E+03  0.73823238185E+03  0.00000000000E+00 0. -1.
<mgrwt>
<rscale>  0 0.11390185E+04</rscale>
<asrwt>0</asrwt>
<pdfrwt beam="1">  1        2 0.12442482E+00 0.11390185E+04</pdfrwt>
<pdfrwt beam="2">  1       -2 0.61697539E-01 0.11390185E+04</pdfrwt>
<totfact> 0.82112778E+01</totfact>
</mgrwt>
</event>
<event>
 6    1  0.1762360E-005  0.3926862E+04  0.7818608E-02  0.8019465E-01
          2   -1    0    0  501    0  0.00000000000E+00  0.00000000000E+00  0.19587693770E+04  0.19587693770E+04  0.00000000000E+00 0. -1.
         -2   -1    0    0    0  501 -0.00000000000E+00 -0.00000000000E+00 -0.19681039773E+04  0.19681039773E+04  0.00000000000E+00 0.  1.
         23    2    1    2    0    0 -0.55061594255E+02 -0.51225417458E+03 -0.18981897311E+04  0.19690148753E+04  0.91973939799E+02 0.  0.
         11    1    3    3    0    0  0.97703946464E+01 -0.32483644556E+03 -0.11652724467E+04  0.12097413161E+04  0.00000000000E+00 0. -1.
        -11    1    3    3    0    0 -0.64831988901E+02 -0.18741772902E+03 -0.73291728441E+03  0.75927355921E+03  0.00000000000E+00 0.  1.
         22    1    1    2    0    0  0.55061594255E+02  0.51225417458E+03  0.18888551308E+04  0.19578584790E+04  0.00000000000E+00 0. -1.
<mgrwt>
<rscale>  0 0.39268623E+04</rscale>
<asrwt>0</asrwt>
<pdfrwt beam="1">  1        2 0.30134914E+00 0.39268623E+04</pdfrwt>
<pdfrwt beam="2">  1       -2 0.30278523E+00 0.39268623E+04</pdfrwt>
<totfact> 0.17080644E-01</totfact>
</mgrwt>
</event>
<event>
 6    1  0.1762360E-005  0.5444661E+04  0.7818608E-02  0.7763350E-01
         -2   -1    0    0    0  501 -0.00000000000E+00  0.00000000000E+00  0.17317173285E+04  0.17317173285E+04  0.00000000000E+00 0.  1.
          2   -1    0    0  501    0  0.00000000000E+00 -0.00000000000E+00 -0.42796152735E+04  0.42796152735E+04  0.00000000000E+00 0. -1.
         23    2    1    2    0    0  0.79552392682E+03  0.14464890761E+04  0.11145953353E+04  0.19939894510E+04  0.92098880139E+02 0.  0.
         13    1    3    3    0    0  0.29288702408E+03  0.45107852164E+03  0.34119483881E+03  0.63692115650E+03  0.00000000000E+00 0.  1.
        -13    1    3    3    0    0  0.50263690275E+03  0.99541055443E+03  0.77340049651E+03  0.13570682945E+04  0.00000000000E+00 0. -1.
         22    1    1    2    0    0 -0.79552392682E+03 -0.14464890761E+04 -0.36624932802E+04  0.40173431510E+04  0.00000000000E+00 0. -1.
<mgrwt>
<rscale>  0 0.54446612E+04</rscale>
<asrwt>0</asrwt>
<pdfrwt beam="1">  1        2 0.65840234E+00 0.54446612E+04</pdfrwt>
<pdfrwt beam="2">  1       -2 0.26641805E+00 0.54446612E+04</pdfrwt>
<totfact> 0.70329749E-03</totfact>
</mgrwt>
</event>
<event>
 6    1  0.1762360E-005  0.3974292E+04  0.7818608E-02  0.8009753E-01
          1   -1    0    0  501    0  0.00000000000E+00  0.00000000000E+00  0.18982021156E+04  0.18982021156E+04  0.00000000000E+00 0. -1.
         -1   -1    0    0    0  501 -0.00000000000E+00 -0.00000000000E+00 -0.20802578408E+04  0.20802578408E+04  0.00000000000E+00 0.  1.
         23    2    1    2    0    0 -0.13295061028E+04 -0.11096757614E+04 -0.10644621772E+04  0.20348530210E+04  0.92630004064E+02 0.  0.
         13    1    3    3    0    0 -0.87698944571E+03 -0.77728012149E+03 -0.68910465606E+03  0.13594631669E+04  0.00000000000E+00 0.  1.
        -13    1    3    3    0    0 -0.45251665710E+03 -0.33239563988E+03 -0.37535752112E+03  0.67538985410E+03  0.00000000000E+00 0. -1.
         22    1    1    2    0    0  0.13295061028E+04  0.11096757614E+04  0.88240645205E+03  0.19436069354E+04  0.00000000000E+00 0. -1.
<mgrwt>
<rscale>  0 0.39742923E+04</rscale>
<asrwt>0</asrwt>
<pdfrwt beam="1">  1        1 0.29203110E+00 0.39742923E+04</pdfrwt>
<pdfrwt beam="2">  1       -1 0.32003967E+00 0.39742923E+04</pdfrwt>
<totfact> 0.67019272E-02</totfact>
</mgrwt>
</event>
<event>
 6    1  0.1762360E-005  0.1841987E+04  0.7818608E-02  0.8684284E-01
         -2   -1    0    0    0  501 -0.00000000000E+00  0.00000000000E+00  0.41458310903E+03  0.41458310903E+03  0.00000000000E+00 0.  1.
          2   -1    0    0  501    0  0.00000000000E+00 -0.00000000000E+00 -0.20459814392E+04  0.20459814392E+04  0.00000000000E+00 0. -1.
         23    2    1    2    0    0 -0.57540260692E+03  0.60132429180E+03 -0.29819776173E+03  0.88890847273E+03  0.92505696216E+02 0.  0.
         11    1    3    3    0    0 -0.39558461396E+03  0.34985480714E+03 -0.19635932762E+03  0.56342041002E+03  0.00000000000E+00 0.  1.
        -11    1    3    3    0    0 -0.17981799296E+03  0.25146948465E+03 -0.10183843410E+03  0.32548806271E+03  0.00000000000E+00 0. -1.
         22    1    1    2    0    0  0.57540260692E+03 -0.60132429180E+03 -0.13332005684E+04  0.15716560755E+04  0.00000000000E+00 0. -1.
<mgrwt>
<rscale>  0 0.18419873E+04</rscale>
<asrwt>0</asrwt>
<pdfrwt beam="1">  1        2 0.31476637E+00 0.18419873E+04</pdfrwt>
<pdfrwt beam="2">  1       -2 0.63782018E-01 0.18419873E+04</pdfrwt>
<totfact> 0.13474565E+01</totfact>
</mgrwt>
</event>
<event>
 6    1  0.1762360E-005  0.2518650E+04  0.7818608E-02  0.8396371E-01
          2   -1    0    0  501    0  0.00000000000E+00  0.00000000000E+00  0.40159321177E+04  0.40159321177E+04  0.00000000000E+00 0. -1.
         -2   -1    0    0    0  501 -0.00000000000E+00 -0.00000000000E+00 -0.39490192264E+03  0.39490192264E+03  0.00000000000E+00 0.  1.
         23    2    1    2    0    0  0.63061041044E+03 -0.89663459407E+03  0.28928283101E+04  0.30948169165E+04  0.88391343650E+02 0.  0.
         11    1    3    3    0    0  0.55913058128E+03 -0.82072897431E+03  0.25528103368E+04  0.27391720779E+04  0.00000000000E+00 0. -1.
        -11    1    3    3    0    0  0.71479829159E+02 -0.75905619765E+02  0.34001797328E+03  0.35564483863E+03  0.00000000000E+00 0.  1.
         22    1    1    2    0    0 -0.63061041044E+03  0.89663459407E+03  0.72820188491E+03  0.13160171238E+04  0.00000000000E+00 0.  1.
<mgrwt>
<rscale>  0 0.25186499E+04</rscale>
<asrwt>0</asrwt>
<pdfrwt beam="1">  1        2 0.61783568E+00 0.25186499E+04</pdfrwt>
<pdfrwt beam="2">  1       -2 0.60754145E-01 0.25186499E+04</pdfrwt>
<totfact> 0.74836166E-01</totfact>
</mgrwt>
</event>
<event>
 6    1  0.1762360E-005  0.1787585E+04  0.7818608E-02  0.8712929E-01
          1   -1    0    0  501    0  0.00000000000E+00  0.00000000000E+00  0.56761487940E+03  0.56761487940E+03  0.00000000000E+00 0. -1.
         -1   -1    0    0    0  501 -0.00000000000E+00 -0.00000000000E+00 -0.14074072647E+04  0.14074072647E+04  0.00000000000E+00 0.  1.
         23    2    1    2    0    0  0.60299666100E+03  0.43324273855E+03  0.12348192215E+03  0.75879780826E+03  0.96031687654E+02 0.  0.
         13    1    3    3    0    0  0.22853755471E+03  0.11487341188E+03  0.20382694246E+02  0.25659456131E+03  0.00000000000E+00 0. -1.
        -13    1    3    3    0    0  0.37445910629E+03  0.31836932667E+03  0.10309922791E+03  0.50220324695E+03  0.00000000000E+00 0.  1.
         22    1    1    2    0    0 -0.60299666100E+03 -0.43324273855E+03 -0.96327430745E+03  0.12162243358E+04  0.00000000000E+00 0.  1.
<mgrwt>
<rscale>  0 0.17875853E+04</rscale>
<asrwt>0</asrwt>
<pdfrwt beam="1">  1        1 0.87325366E-01 0.17875853E+04</pdfrwt>
<pdfrwt beam="2">  1       -1 0.21652419E+00 0.17875853E+04</pdfrwt>
<totfact> 0.40682582E+00</totfact>
</mgrwt>
</event>
<event>
 6    1  0.3267374E-005  0.2941667E+04  0.7818608E-02  0.8260587E-01
          2   -1    0    0  501    0  0.00000000000E+00  0.00000000000E+00  0.15323214172E+04  0.15323214172E+04  0.00000000000E+00 0. -1.
         -2   -1    0    0    0  501 -0.00000000000E+00 -0.00000000000E+00 -0.14118130817E+04  0.14118130817E+04  0.00000000000E+00 0.  1.
         23    2    1    2    0    0  0.76029310506E+03  0.11475165966E+04 -0.45422068536E+03  0.14524396935E+04  0.91786095084E+02 0.  0.
         11    1    3    3    0    0  0.39980040004E+03  0.53859101075E+03 -0.25123867027E+03  0.71626915763E+03  0.00000000000E+00 0.  1.
        -11    1    3    3    0    0  0.36049270502E+03  0.60892558582E+03 -0.20298201510E+03  0.73617053588E+03  0.00000000000E+00 0. -1.
         22    1    1    2    0    0 -0.76029310506E+03 -0.11475165966E+04  0.57472902093E+03  0.14916948054E+04  0.00000000000E+00 0. -1.
<mgrwt>
<rscale>  0 0.29416672E+04</rscale>
<asrwt>0</asrwt>
<pdfrwt beam="1">  1        2 0.23574176E+00 0.29416672E+04</pdfrwt>
<pdfrwt beam="2">  1       -2 0.21720201E+00 0.29416672E+04</pdfrwt>
<totfact> 0.10780520E+00</totfact>
</mgrwt>
</event>
<event>
 6    1  0.1762360E-005  0.2423685E+04  0.7818608E-02  0.8430689E-01
          1   -1    0    0  501    0  0.00000000000E+00  0.00000000000E+00  0.32819632612E+04  0.32819632612E+04  0.00000000000E+00 0. -1.
         -1   -1    0    0    0  501 -0.00000000000E+00 -0.00000000000E+00 -0.44746446989E+03  0.44746446989E+03  0.00000000000E+00 0.  1.
         23    2    1    2    0    0 -0.11883036616E+04 -0.22431127352E+03  0.14937707183E+04  0.19238993028E+04  0.87501021737E+02 0.  0.
         13    1    3    3    0    0 -0.10547628478E+04 -0.20749793925E+03  0.13666033418E+04  0.17387307881E+04  0.00000000000E+00 0. -1.
        -13    1    3    3    0    0 -0.13354081383E+03 -0.16813334269E+02  0.12716737650E+03  0.18516851463E+03  0.00000000000E+00 0.  1.
         22    1    1    2    0    0  0.11883036616E+04  0.22431127352E+03  0.13407280730E+04  0.18055284283E+04  0.00000000000E+00 0. -1.
<mgrwt>
<rscale>  0 0.24236848E+04</rscale>
<asrwt>0</asrwt>
<pdfrwt beam="1">  1        1 0.50491741E+00 0.24236848E+04</pdfrwt>
<pdfrwt beam="2">  1       -1 0.68840690E-01 0.24236848E+04</pdfrwt>
<totfact> 0.70435098E-01</totfact>
</mgrwt>
</event>
<event>
 6    1  0.1762360E-005  0.3757326E+04  0.7818608E-02  0.8055375E-01
          2   -1    0    0  501    0  0.00000000000E+00  0.00000000000E+00  0.20229878106E+04  0.20229878106E+04  0.00000000000E+00 0. -1.
         -2   -1    0    0    0  501 -0.00000000000E+00 -0.00000000000E+00 -0.17446344675E+04  0.17446344675E+04  0.00000000000E+00 0.  1.
         23    2    1    2    0    0  0.18092691832E+04  0.40688354479E+03 -0.15501051617E+03  0.18632028309E+04  0.92126719577E+02 0.  0.
         13    1    3    3    0    0  0.60711579612E+03  0.16844122292E+03 -0.21990958890E+02  0.63043289710E+03  0.00000000000E+00 0.  1.
        -13    1    3    3    0    0  0.12021533871E+04  0.23844232187E+03 -0.13301955728E+03  0.12327699338E+04  0.00000000000E+00 0. -1.
         22    1    1    2    0    0 -0.18092691832E+04 -0.40688354479E+03  0.43336385924E+03  0.19044194472E+04  0.00000000000E+00 0. -1.
<mgrwt>
<rscale>  0 0.37573258E+04</rscale>
<asrwt>0</asrwt>
<pdfrwt beam="1">  1        2 0.31122889E+00 0.37573258E+04</pdfrwt>
<pdfrwt beam="2">  1       -2 0.26840531E+00 0.37573258E+04</pdfrwt>
<totfact> 0.25873847E-01</totfact>
</mgrwt>
</event>
<event>
 6    1  0.1762360E-005  0.2984536E+04  0.7818608E-02  0.8248161E-01
         -2   -1    0    0    0  501 -0.00000000000E+00  0.00000000000E+00  0.28779155600E+04  0.28779155600E+04  0.00000000000E+00 0.  1.
          2   -1    0    0  501    0  0.00000000000E+00 -0.00000000000E+00 -0.77377665114E+03  0.77377665114E+03  0.00000000000E+00 0. -1.
         23    2    1    2    0    0  0.16754635002E+03  0.14802484541E+04  0.11258798498E+04  0.18695030933E+04  0.90714467195E+02 0.  0.
         11    1    3    3    0    0  0.14275323439E+02  0.12479745490E+03  0.64958707572E+02  0.14141366023E+03  0.00000000000E+00 0.  1.
        -11    1    3    3    0    0  0.15327102658E+03  0.13554509992E+04  0.10609211422E+04  0.17280894331E+04  0.00000000000E+00 0. -1.
         22    1    1    2    0    0 -0.16754635002E+03 -0.14802484541E+04  0.97825905911E+03  0.17821891179E+04  0.00000000000E+00 0. -1.
<mgrwt>
<rscale>  0 0.29845361E+04</rscale>
<asrwt>0</asrwt>
<pdfrwt beam="1">  1        2 0.11904256E+00 0.29845361E+04</pdfrwt>
<pdfrwt beam="2">  1       -2 0.44275623E+00 0.29845361E+04</pdfrwt>
<totfact> 0.11943470E-01</totfact>
</mgrwt>
</event>
<event>
 6    1  0.2105613E-005  0.4307316E+04  0.7818608E-02  0.7945267E-01
          2   -1    0    0  501    0  0.00000000000E+00  0.00000000000E+00  0.23806401946E+04  0.23806401946E+04  0.00000000000E+00 0. -1.
         -2   -1    0    0    0  501 -0.00000000000E+00 -0.00000000000E+00 -0.19483176992E+04  0.19483176992E+04  0.00000000000E+00 0.  1.
         23    2    1    2    0    0  0.19389331965E+04 -0.25402159288E+03  0.11208386305E+04  0.22557855955E+04  0.91107119351E+02 0.  0.
         11    1    3    3    0    0  0.79516936307E+03 -0.14269636252E+03  0.43564167442E+03  0.91784543161E+03  0.00000000000E+00 0.  1.
        -11    1    3    3    0    0  0.11437638334E+04 -0.11132523036E+03  0.68519695603E+03  0.13379401639E+04  0.00000000000E+00 0. -1.
         22    1    1    2    0    0 -0.19389331965E+04  0.25402159288E+03 -0.68851613513E+03  0.20731722983E+04  0.00000000000E+00 0.  1.
<mgrwt>
<rscale>  0 0.43073163E+04</rscale>
<asrwt>0</asrwt>
<pdfrwt beam="1">  1        2 0.36625234E+00 0.43073163E+04</pdfrwt>
<pdfrwt beam="2">  1       -2 0.29974118E+00 0.43073163E+04</pdfrwt>
<totfact> 0.10012368E-01</totfact>
</mgrwt>
</event>
<event>
 6    1  0.1762360E-005  0.3609044E+04  0.7818608E-02  0.8088423E-01
         -2   -1    0    0    0  501 -0.00000000000E+00  0.00000000000E+00  0.18770110868E+04  0.18770110868E+04  0.00000000000E+00 0. -1.
          2   -1    0    0  501    0  0.00000000000E+00 -0.00000000000E+00 -0.17348321862E+04  0.17348321862E+04  0.00000000000E+00 0.  1.
         23    2    1    2    0    0 -0.65644058558E+03 -0.17476619424E+03  0.17432470488E+04  0.18726260122E+04  0.79752387363E+02 0.  0.
         11    1    3    3    0    0 -0.14019130185E+03 -0.70625203612E+02  0.37566223859E+03  0.40714080857E+03  0.00000000000E+00 0. -1.
        -11    1    3    3    0    0 -0.51624928373E+03 -0.10414099063E+03  0.13675848102E+04  0.14654852036E+04  0.00000000000E+00 0.  1.
         22    1    1    2    0    0  0.65644058558E+03  0.17476619424E+03 -0.16010681483E+04  0.17392172608E+04  0.00000000000E+00 0.  1.
<mgrwt>
<rscale>  0 0.36090438E+04</rscale>
<asrwt>0</asrwt>
<pdfrwt beam="1">  1        2 0.26689726E+00 0.36090438E+04</pdfrwt>
<pdfrwt beam="2">  1       -2 0.28877094E+00 0.36090438E+04</pdfrwt>
<totfact> 0.28435881E-01</totfact>
</mgrwt>
</event>
<event>
 6    1  0.1762360E-005  0.1785895E+04  0.7818608E-02  0.8713837E-01
          1   -1    0    0  501    0  0.00000000000E+00  0.00000000000E+00  0.80991222248E+03  0.80991222248E+03  0.00000000000E+00 0. -1.
         -1   -1    0    0    0  501 -0.00000000000E+00 -0.00000000000E+00 -0.98449532283E+03  0.98449532283E+03  0.00000000000E+00 0.  1.
         23    2    1    2    0    0 -0.16407736929E+03 -0.65896022277E+03 -0.66628186772E+03  0.95600571079E+03  0.94156431031E+02 0.  0.
         11    1    3    3    0    0 -0.20078396765E+02 -0.25244277366E+03 -0.22100363896E+03  0.33611471914E+03  0.00000000000E+00 0.  1.
        -11    1    3    3    0    0 -0.14399897253E+03 -0.40651744910E+03 -0.44527822876E+03  0.61989099164E+03  0.00000000000E+00 0. -1.
         22    1    1    2    0    0  0.16407736929E+03  0.65896022277E+03  0.49169876737E+03  0.83840183452E+03  0.00000000000E+00 0. -1.
<mgrwt>
<rscale>  0 0.17858945E+04</rscale>
<asrwt>0</asrwt>
<pdfrwt beam="1">  1        1 0.12460188E+00 0.17858945E+04</pdfrwt>
<pdfrwt beam="2">  1       -1 0.15146082E+00 0.17858945E+04</pdfrwt>
<totfact> 0.69599830E+00</totfact>
</mgrwt>
</event>
<event>
 6    1  0.1762360E-005  0.8463850E+03  0.7818608E-02  0.9495202E-01
          2   -1    0    0  501    0  0.00000000000E+00  0.00000000000E+00  0.79347559255E+03  0.79347559255E+03  0.00000000000E+00 0. -1.
         -2   -1    0    0    0  501 -0.00000000000E+00 -0.00000000000E+00 -0.22570558852E+03  0.22570558852E+03  0.00000000000E+00 0.  1.
         23    2    1    2    0    0  0.32270589254E+03 -0.97322980533E+02  0.58512698465E+03  0.68167248430E+03  0.93235894666E+02 0.  0.
         13    1    3    3    0    0  0.21905175754E+03 -0.96771701158E+02  0.34336562373E+03  0.41862678628E+03  0.00000000000E+00 0. -1.
        -13    1    3    3    0    0  0.10365413500E+03 -0.55127937530E+00  0.24176136092E+03  0.26304569802E+03  0.00000000000E+00 0.  1.
         22    1    1    2    0    0 -0.32270589254E+03  0.97322980533E+02 -0.17356980624E+02  0.33750869677E+03  0.00000000000E+00 0.  1.
<mgrwt>
<rscale>  0 0.84638496E+03</rscale>
<asrwt>0</asrwt>
<pdfrwt beam="1">  1        2 0.12207317E+00 0.84638496E+03</pdfrwt>
<pdfrwt beam="2">  1       -2 0.34723937E-01 0.84638496E+03</pdfrwt>
<totfact> 0.27183427E+02</totfact>
</mgrwt>
</event>
<event>
 6    1  0.2726631E-005  0.2857404E+04  0.7818608E-02  0.8285665E-01
          2   -1    0    0  501    0  0.00000000000E+00  0.00000000000E+00  0.17060287072E+04  0.17060287072E+04  0.00000000000E+00 0. -1.
         -2   -1    0    0    0  501 -0.00000000000E+00 -0.00000000000E+00 -0.11964569893E+04  0.11964569893E+04  0.00000000000E+00 0.  1.
         23    2    1    2    0    0 -0.49390491075E+03 -0.12796421569E+04  0.65602065135E+03  0.15230389230E+04  0.88647365463E+02 0.  0.
         13    1    3    3    0    0 -0.28289182894E+03 -0.83738982317E+03  0.40013193281E+03  0.97023454200E+03  0.00000000000E+00 0.  1.
        -13    1    3    3    0    0 -0.21101308181E+03 -0.44225233378E+03  0.25588871854E+03  0.55280438105E+03  0.00000000000E+00 0. -1.
         22    1    1    2    0    0  0.49390491075E+03  0.12796421569E+04 -0.14644893340E+03  0.13794467735E+04  0.00000000000E+00 0.  1.
<mgrwt>
<rscale>  0 0.28574044E+04</rscale>
<asrwt>0</asrwt>
<pdfrwt beam="1">  1        2 0.26246595E+00 0.28574044E+04</pdfrwt>
<pdfrwt beam="2">  1       -2 0.18407031E+00 0.28574044E+04</pdfrwt>
<totfact> 0.14331306E+00</totfact>
</mgrwt>
</event>
<event>
 6    1  0.1762360E-005  0.7727595E+03  0.7818608E-02  0.9600306E-01
         -1   -1    0    0    0  501 -0.00000000000E+00  0.00000000000E+00  0.14820706272E+04  0.14820706272E+04  0.00000000000E+00 0.  1.
          1   -1    0    0  501    0  0.00000000000E+00 -0.00000000000E+00 -0.10073023052E+03  0.10073023052E+03  0.00000000000E+00 0. -1.
         23    2    1    2    0    0 -0.69773186480E+02  0.11234282657E+03  0.14321601671E+04  0.14411256753E+04  0.90946465674E+02 0.  0.
         13    1    3    3    0    0 -0.52271644369E+02  0.10489970227E+03  0.78641600134E+03  0.79510150265E+03  0.00000000000E+00 0. -1.
        -13    1    3    3    0    0 -0.17501542111E+02  0.74431242966E+01  0.64574416575E+03  0.64602417267E+03  0.00000000000E+00 0.  1.
         22    1    1    2    0    0  0.69773186480E+02 -0.11234282657E+03 -0.50819770436E+02  0.14167518237E+03  0.00000000000E+00 0. -1.
<mgrwt>
<rscale>  0 0.77275951E+03</rscale>
<asrwt>0</asrwt>
<pdfrwt beam="1">  1        1 0.15496960E-01 0.77275951E+03</pdfrwt>
<pdfrwt beam="2">  1       -1 0.22801085E+00 0.77275951E+03</pdfrwt>
<totfact> 0.36826469E+01</totfact>
</mgrwt>
</event>
<event>
 6    1  0.1762360E-005  0.3926288E+04  0.7818608E-02  0.8019584E-01
         -1   -1    0    0    0  501 -0.00000000000E+00  0.00000000000E+00  0.20208501319E+04  0.20208501319E+04  0.00000000000E+00 0.  1.
          1   -1    0    0  501    0  0.00000000000E+00 -0.00000000000E+00 -0.19070855093E+04  0.19070855093E+04  0.00000000000E+00 0. -1.
         23    2    1    2    0    0 -0.17582589850E+04 -0.29118876979E+03  0.87777401960E+03  0.19888699082E+04  0.94078288052E+02 0.  0.
         11    1    3    3    0    0 -0.81411112432E+03 -0.17589090390E+03  0.43622465810E+03  0.94021619065E+03  0.00000000000E+00 0.  1.
        -11    1    3    3    0    0 -0.94414786067E+03 -0.11529786588E+03  0.44154936150E+03  0.10486537175E+04  0.00000000000E+00 0. -1.
         22    1    1    2    0    0  0.17582589850E+04  0.29118876979E+03 -0.76400939706E+03  0.19390657330E+04  0.00000000000E+00 0. -1.
<mgrwt>
<rscale>  0 0.39262878E+04</rscale>
<asrwt>0</asrwt>
<pdfrwt beam="1">  1        1 0.29339777E+00 0.39262878E+04</pdfrwt>
<pdfrwt beam="2">  1       -1 0.31090002E+00 0.39262878E+04</pdfrwt>
<totfact> 0.76110310E-02</totfact>
</mgrwt>
</event>
<event>
 6    1  0.1762360E-005  0.2560990E+04  0.7818608E-02  0.8381574E-01
          4   -1    0    0  501    0  0.00000000000E+00  0.00000000000E+00  0.29366177172E+04  0.29366177172E+04  0.00000000000E+00 0. -1.
         -4   -1    0    0    0  501 -0.00000000000E+00 -0.00000000000E+00 -0.55835254793E+03  0.55835254793E+03  0.00000000000E+00 0.  1.
         23    2    1    2    0    0  0.10478995917E+04 -0.41866514965E+03  0.36867594242E+03  0.11902310342E+04  0.85754898351E+02 0.  0.
         11    1    3    3    0    0  0.24142657702E+03 -0.12213710196E+03  0.11780957599E+03  0.29509889862E+03  0.00000000000E+00 0.  1.
        -11    1    3    3    0    0  0.80647301464E+03 -0.29652804769E+03  0.25086636642E+03  0.89513213562E+03  0.00000000000E+00 0. -1.
         22    1    1    2    0    0 -0.10478995917E+04  0.41866514965E+03  0.20095892269E+04  0.23047392309E+04  0.00000000000E+00 0. -1.
<mgrwt>
<rscale>  0 0.25609904E+04</rscale>
<asrwt>0</asrwt>
<pdfrwt beam="1">  1        4 0.45178733E+00 0.25609904E+04</pdfrwt>
<pdfrwt beam="2">  1       -4 0.85900394E-01 0.25609904E+04</pdfrwt>
<totfact> 0.59909800E-03</totfact>
</mgrwt>
</event>
<event>
 6    1  0.1762360E-005  0.1844712E+04  0.7818608E-02  0.8682877E-01
         -2   -1    0    0    0  501 -0.00000000000E+00  0.00000000000E+00  0.34806172621E+03  0.34806172621E+03  0.00000000000E+00 0.  1.
          2   -1    0    0  501    0  0.00000000000E+00 -0.00000000000E+00 -0.24442231628E+04  0.24442231628E+04  0.00000000000E+00 0. -1.
         23    2    1    2    0    0  0.62790599069E+03 -0.45552876870E+03 -0.17997187495E+04  0.19618328079E+04  0.89599088519E+02 0.  0.
         13    1    3    3    0    0  0.39993546909E+03 -0.24435789935E+03 -0.10225488762E+04  0.11248401515E+04  0.00000000000E+00 0.  1.
        -13    1    3    3    0    0  0.22797052160E+03 -0.21117086936E+03 -0.77716987332E+03  0.83699265635E+03  0.00000000000E+00 0. -1.
         22    1    1    2    0    0 -0.62790599069E+03  0.45552876870E+03 -0.29644268710E+03  0.83045208109E+03  0.00000000000E+00 0.  1.
<mgrwt>
<rscale>  0 0.18447119E+04</rscale>
<asrwt>0</asrwt>
<pdfrwt beam="1">  1        2 0.37603435E+00 0.18447119E+04</pdfrwt>
<pdfrwt beam="2">  1       -2 0.53547956E-01 0.18447119E+04</pdfrwt>
<totfact> 0.11601509E+01</totfact>
</mgrwt>
</event>
<event>
 6    1  0.1762360E-005  0.2053536E+04  0.7818608E-02  0.8581992E-01
         -1   -1    0    0    0  501 -0.00000000000E+00  0.00000000000E+00  0.85414057940E+03  0.85414057940E+03  0.00000000000E+00 0.  1.
          1   -1    0    0  501    0  0.00000000000E+00 -0.00000000000E+00 -0.12342849713E+04  0.12342849713E+04  0.00000000000E+00 0. -1.
         23    2    1    2    0    0 -0.44431128322E+03 -0.88530340704E+02 -0.11250382534E+04  0.12165786591E+04  0.95406627625E+02 0.  0.
         11    1    3    3    0    0 -0.21853517598E+03 -0.34254362937E+02 -0.42641797493E+03  0.48037826123E+03  0.00000000000E+00 0.  1.
        -11    1    3    3    0    0 -0.22577610724E+03 -0.54275977767E+02 -0.69862027847E+03  0.73620039789E+03  0.00000000000E+00 0. -1.
         22    1    1    2    0    0  0.44431128322E+03  0.88530340704E+02  0.74489386145E+03  0.87184689163E+03  0.00000000000E+00 0.  1.
<mgrwt>
<rscale>  0 0.20535363E+04</rscale>
<asrwt>0</asrwt>
<pdfrwt beam="1">  1        1 0.18989000E+00 0.20535363E+04</pdfrwt>
<pdfrwt beam="2">  1       -1 0.13140624E+00 0.20535363E+04</pdfrwt>
<totfact> 0.45973412E+00</totfact>
</mgrwt>
</event>
<event>
 6    1  0.1762360E-005  0.2131124E+04  0.7818608E-02  0.8547656E-01
         -1   -1    0    0    0  501 -0.00000000000E+00  0.00000000000E+00  0.11045585400E+04  0.11045585400E+04  0.00000000000E+00 0.  1.
          1   -1    0    0  501    0  0.00000000000E+00 -0.00000000000E+00 -0.10279423422E+04  0.10279423422E+04  0.00000000000E+00 0. -1.
         23    2    1    2    0    0  0.64981289337E+03 -0.55134265315E+03  0.67517844399E+03  0.10911016888E+04  0.91659404615E+02 0.  0.
         13    1    3    3    0    0  0.31246138425E+03 -0.32434701020E+03  0.34540548148E+03  0.56757206266E+03  0.00000000000E+00 0. -1.
        -13    1    3    3    0    0  0.33735150913E+03 -0.22699564295E+03  0.32977296250E+03  0.52352962612E+03  0.00000000000E+00 0.  1.
         22    1    1    2    0    0 -0.64981289337E+03  0.55134265315E+03 -0.59856224622E+03  0.10413991935E+04  0.00000000000E+00 0. -1.
<mgrwt>
<rscale>  0 0.21311241E+04</rscale>
<asrwt>0</asrwt>
<pdfrwt beam="1">  1        1 0.15814498E+00 0.21311241E+04</pdfrwt>
<pdfrwt beam="2">  1       -1 0.16993208E+00 0.21311241E+04</pdfrwt>
<totfact> 0.32519389E+00</totfact>
</mgrwt>
</event>
<event>
 6    1  0.1762360E-005  0.2513577E+04  0.7818608E-02  0.8398164E-01
         -2   -1    0    0    0  501 -0.00000000000E+00  0.00000000000E+00  0.81455039159E+03  0.81455039159E+03  0.00000000000E+00 0.  1.
          2   -1    0    0  501    0  0.00000000000E+00 -0.00000000000E+00 -0.19391285038E+04  0.19391285038E+04  0.00000000000E+00 0. -1.
         23    2    1    2    0    0 -0.89401784279E+03  0.70153063303E+03 -0.11468706797E+04  0.16170566667E+04  0.90259486813E+02 0.  0.
         13    1    3    3    0    0 -0.50153419719E+03  0.44087569356E+03 -0.70668915109E+03  0.97227438740E+03  0.00000000000E+00 0. -1.
        -13    1    3    3    0    0 -0.39248364560E+03  0.26065493947E+03 -0.44018152863E+03  0.64478227928E+03  0.00000000000E+00 0.  1.
         22    1    1    2    0    0  0.89401784279E+03 -0.70153063303E+03  0.22292567472E+02  0.11366222287E+04  0.00000000000E+00 0.  1.
<mgrwt>
<rscale>  0 0.25135774E+04</rscale>
<asrwt>0</asrwt>
<pdfrwt beam="1">  1        2 0.29832746E+00 0.25135774E+04</pdfrwt>
<pdfrwt beam="2">  1       -2 0.12531545E+00 0.25135774E+04</pdfrwt>
<totfact> 0.30659595E+00</totfact>
</mgrwt>
</event>
<event>
 6    1  0.1762360E-005  0.4864903E+03  0.7818608E-02  0.1017367E+00
         -1   -1    0    0    0  501 -0.00000000000E+00  0.00000000000E+00  0.73979624833E+02  0.73979624833E+02  0.00000000000E+00 0.  1.
          1   -1    0    0  501    0  0.00000000000E+00 -0.00000000000E+00 -0.79979039221E+03  0.79979039221E+03  0.00000000000E+00 0. -1.
         23    2    1    2    0    0  0.19029060225E+03 -0.18340076231E+02 -0.13010046674E+03  0.24813623120E+03  0.89992144590E+02 0.  0.
         13    1    3    3    0    0  0.73077096114E+02  0.36583647919E+02 -0.46155514611E+02  0.93856042962E+02  0.00000000000E+00 0. -1.
        -13    1    3    3    0    0  0.11721350614E+03 -0.54923724149E+02 -0.83944952129E+02  0.15428018824E+03  0.00000000000E+00 0.  1.
         22    1    1    2    0    0 -0.19029060225E+03  0.18340076231E+02 -0.59571030064E+03  0.62563378584E+03  0.00000000000E+00 0.  1.
<mgrwt>
<rscale>  0 0.48649026E+03</rscale>
<asrwt>0</asrwt>
<pdfrwt beam="1">  1        1 0.12304467E+00 0.48649026E+03</pdfrwt>
<pdfrwt beam="2">  1       -1 0.11381481E-01 0.48649026E+03</pdfrwt>
<totfact> 0.11457131E+03</totfact>
</mgrwt>
</event>
<event>
 6    1  0.1762360E-005  0.1750330E+04  0.7818608E-02  0.8733168E-01
          1   -1    0    0  501    0  0.00000000000E+00  0.00000000000E+00  0.23664293032E+04  0.23664293032E+04  0.00000000000E+00 0. -1.
         -1   -1    0    0    0  501 -0.00000000000E+00 -0.00000000000E+00 -0.32365814857E+03  0.32365814857E+03  0.00000000000E+00 0.  1.
         23    2    1    2    0    0  0.13034904656E+03  0.69509699325E+02  0.23462115229E+04  0.23525988899E+04  0.90501681721E+02 0.  0.
         11    1    3    3    0    0  0.13647556650E+03  0.71808892836E+02  0.18717243494E+04  0.18780665956E+04  0.00000000000E+00 0.  1.
        -11    1    3    3    0    0 -0.61265199490E+01 -0.22991935113E+01  0.47448717349E+03  0.47453229431E+03  0.00000000000E+00 0. -1.
         22    1    1    2    0    0 -0.13034904656E+03 -0.69509699325E+02 -0.30344036831E+03  0.33748856182E+03  0.00000000000E+00 0.  1.
<mgrwt>
<rscale>  0 0.17503304E+04</rscale>
<asrwt>0</asrwt>
<pdfrwt beam="1">  1        1 0.36406604E+00 0.17503304E+04</pdfrwt>
<pdfrwt beam="2">  1       -1 0.49793563E-01 0.17503304E+04</pdfrwt>
<totfact> 0.64293876E+00</totfact>
</mgrwt>
</event>
<event>
 6    1  0.1762360E-005  0.1514048E+04  0.7818608E-02  0.8875164E-01
         -1   -1    0    0    0  501 -0.00000000000E+00  0.00000000000E+00  0.23617299052E+03  0.23617299052E+03  0.00000000000E+00 0.  1.
          1   -1    0    0  501    0  0.00000000000E+00 -0.00000000000E+00 -0.24265504541E+04  0.24265504541E+04  0.00000000000E+00 0. -1.
         23    2    1    2    0    0 -0.62861594440E+02  0.44593110383E+03 -0.36555733271E+02  0.46232480451E+03  0.97988641259E+02 0.  0.
         11    1    3    3    0    0  0.36257083361E+01  0.26139326264E+03 -0.48219952482E+02  0.26582841709E+03  0.00000000000E+00 0.  1.
        -11    1    3    3    0    0 -0.66487302776E+02  0.18453784119E+03  0.11664219211E+02  0.19649638742E+03  0.00000000000E+00 0. -1.
         22    1    1    2    0    0  0.62861594440E+02 -0.44593110383E+03 -0.21538217303E+04  0.22003986401E+04  0.00000000000E+00 0. -1.
<mgrwt>
<rscale>  0 0.15140485E+04</rscale>
<asrwt>0</asrwt>
<pdfrwt beam="1">  1        1 0.37331547E+00 0.15140485E+04</pdfrwt>
<pdfrwt beam="2">  1       -1 0.36334305E-01 0.15140485E+04</pdfrwt>
<totfact> 0.10699087E+01</totfact>
</mgrwt>
</event>
<event>
 6    1  0.1762360E-005  0.3041559E+04  0.7818608E-02  0.8231962E-01
          1   -1    0    0  501    0  0.00000000000E+00  0.00000000000E+00  0.23674253540E+04  0.23674253540E+04  0.00000000000E+00 0. -1.
         -1   -1    0    0    0  501 -0.00000000000E+00 -0.00000000000E+00 -0.97691376338E+03  0.97691376338E+03  0.00000000000E+00 0.  1.
         23    2    1    2    0    0 -0.14729168640E+04 -0.30125614020E+03  0.93772964420E+03  0.17742273885E+04  0.91140497814E+02 0.  0.
         11    1    3    3    0    0 -0.13144394996E+03 -0.10881041962E+02  0.10723959638E+03  0.16998894107E+03  0.00000000000E+00 0. -1.
        -11    1    3    3    0    0 -0.13414729140E+04 -0.29037509823E+03  0.83049004783E+03  0.16042384475E+04  0.00000000000E+00 0.  1.
         22    1    1    2    0    0  0.14729168640E+04  0.30125614020E+03  0.45278194645E+03  0.15701117289E+04  0.00000000000E+00 0. -1.
<mgrwt>
<rscale>  0 0.30415591E+04</rscale>
<asrwt>0</asrwt>
<pdfrwt beam="1">  1        1 0.36421928E+00 0.30415591E+04</pdfrwt>
<pdfrwt beam="2">  1       -1 0.15029443E+00 0.30415591E+04</pdfrwt>
<totfact> 0.49224460E-01</totfact>
</mgrwt>
</event>
<event>
 6    1  0.1762360E-005  0.9284719E+03  0.7818608E-02  0.9390674E-01
         -1   -1    0    0    0  501 -0.00000000000E+00  0.00000000000E+00  0.57628939633E+03  0.57628939633E+03  0.00000000000E+00 0.  1.
          1   -1    0    0  501    0  0.00000000000E+00 -0.00000000000E+00 -0.37397009037E+03  0.37397009037E+03  0.00000000000E+00 0. -1.
         23    2    1    2    0    0 -0.33153512849E+03 -0.29806988971E+03  0.21681866651E+03  0.50419734749E+03  0.91888141229E+02 0.  0.
         11    1    3    3    0    0 -0.23761486705E+02 -0.49733207279E+02  0.51937812836E+02  0.75733325286E+02  0.00000000000E+00 0.  1.
        -11    1    3    3    0    0 -0.30777364179E+03 -0.24833668243E+03  0.16488085367E+03  0.42846402221E+03  0.00000000000E+00 0. -1.
         22    1    1    2    0    0  0.33153512849E+03  0.29806988971E+03 -0.14499360545E+02  0.44606213921E+03  0.00000000000E+00 0.  1.
<mgrwt>
<rscale>  0 0.92847186E+03</rscale>
<asrwt>0</asrwt>
<pdfrwt beam="1">  1        1 0.57533860E-01 0.92847186E+03</pdfrwt>
<pdfrwt beam="2">  1       -1 0.88659907E-01 0.92847186E+03</pdfrwt>
<totfact> 0.82507944E+01</totfact>
</mgrwt>
</event>
<event>
 6    1  0.1762360E-005  0.2879052E+04  0.7818608E-02  0.8279137E-01
         -2   -1    0    0    0  501 -0.00000000000E+00  0.00000000000E+00  0.14299952932E+04  0.14299952932E+04  0.00000000000E+00 0.  1.
          2   -1    0    0  501    0  0.00000000000E+00 -0.00000000000E+00 -0.14491206610E+04  0.14491206610E+04  0.00000000000E+00 0. -1.
         23    2    1    2    0    0  0.17573677338E+02  0.28749093163E+03  0.13993679166E+04  0.14316757766E+04  0.92223063207E+02 0.  0.
         13    1    3    3    0    0 -0.22679374818E+02  0.59858354484E+02  0.19234858570E+03  0.20271989312E+03  0.00000000000E+00 0.  1.
        -13    1    3    3    0    0  0.40253052157E+02  0.22763257715E+03  0.12070193309E+04  0.12289558834E+04  0.00000000000E+00 0. -1.
         22    1    1    2    0    0 -0.17573677338E+02 -0.28749093163E+03 -0.14184932844E+04  0.14474401777E+04  0.00000000000E+00 0. -1.
<mgrwt>
<rscale>  0 0.28790524E+04</rscale>
<asrwt>0</asrwt>
<pdfrwt beam="1">  1        2 0.22294164E+00 0.28790524E+04</pdfrwt>
<pdfrwt beam="2">  1       -2 0.21999928E+00 0.28790524E+04</pdfrwt>
<totfact> 0.11592430E+00</totfact>
</mgrwt>
</event>
<event>
 6    1  0.1762360E-005  0.1294788E+04  0.7818608E-02  0.9033708E-01
          1   -1    0    0  501    0  0.00000000000E+00  0.00000000000E+00  0.19831912386E+04  0.19831912386E+04  0.00000000000E+00 0. -1.
         -1   -1    0    0    0  501 -0.00000000000E+00 -0.00000000000E+00 -0.21133569711E+03  0.21133569711E+03  0.00000000000E+00 0.  1.
         23    2    1    2    0    0  0.12414338066E+03  0.63014086076E+03  0.96978416586E+03  0.11670019604E+04  0.94462499307E+02 0.  0.
         11    1    3    3    0    0  0.10798716081E+02  0.19719928120E+03  0.23863196507E+03  0.30975697495E+03  0.00000000000E+00 0.  1.
        -11    1    3    3    0    0  0.11334466458E+03  0.43294157956E+03  0.73115220079E+03  0.85724498541E+03  0.00000000000E+00 0. -1.
         22    1    1    2    0    0 -0.12414338066E+03 -0.63014086076E+03  0.80207137563E+03  0.10275249754E+04  0.00000000000E+00 0.  1.
<mgrwt>
<rscale>  0 0.12947882E+04</rscale>
<asrwt>0</asrwt>
<pdfrwt beam="1">  1        1 0.30510633E+00 0.12947882E+04</pdfrwt>
<pdfrwt beam="2">  1       -1 0.32513186E-01 0.12947882E+04</pdfrwt>
<totfact> 0.26649628E+01</totfact>
</mgrwt>
</event>
<event>
 6    1  0.1762360E-005  0.2129576E+04  0.7818608E-02  0.8548326E-01
         -2   -1    0    0    0  501 -0.00000000000E+00  0.00000000000E+00  0.84826226775E+03  0.84826226775E+03  0.00000000000E+00 0.  1.
          2   -1    0    0  501    0  0.00000000000E+00 -0.00000000000E+00 -0.13365839397E+04  0.13365839397E+04  0.00000000000E+00 0. -1.
         23    2    1    2    0    0  0.29075536665E+03 -0.39772809789E+03 -0.12107752624E+04  0.13103946575E+04  0.91821017691E+02 0.  0.
         13    1    3    3    0    0  0.32426015631E+02 -0.88619433364E+02 -0.30037484185E+03  0.31484900520E+03  0.00000000000E+00 0. -1.
        -13    1    3    3    0    0  0.25832935102E+03 -0.30910866453E+03 -0.91040042052E+03  0.99554565228E+03  0.00000000000E+00 0.  1.
         22    1    1    2    0    0 -0.29075536665E+03  0.39772809789E+03  0.72245359038E+03  0.87445155002E+03  0.00000000000E+00 0.  1.
<mgrwt>
<rscale>  0 0.21295762E+04</rscale>
<asrwt>0</asrwt>
<pdfrwt beam="1">  1        2 0.20562830E+00 0.21295762E+04</pdfrwt>
<pdfrwt beam="2">  1       -2 0.13050189E+00 0.21295762E+04</pdfrwt>
<totfact> 0.62247728E+00</totfact>
</mgrwt>
</event>
<event>
 6    1  0.1762360E-005  0.2035622E+04  0.7818608E-02  0.8590145E-01
         -2   -1    0    0    0  501 -0.00000000000E+00  0.00000000000E+00  0.39916292120E+03  0.39916292120E+03  0.00000000000E+00 0.  1.
          2   -1    0    0  501    0  0.00000000000E+00 -0.00000000000E+00 -0.25952784499E+04  0.25952784499E+04  0.00000000000E+00 0. -1.
         23    2    1    2    0    0  0.69881001280E+03 -0.54856491327E+03 -0.37550524460E+03  0.96863765291E+03  0.89419325959E+02 0.  0.
         11    1    3    3    0    0  0.31333077024E+03 -0.29333654090E+03 -0.15405987533E+03  0.45602296323E+03  0.00000000000E+00 0.  1.
        -11    1    3    3    0    0  0.38547924255E+03 -0.25522837237E+03 -0.22144536927E+03  0.51261468968E+03  0.00000000000E+00 0. -1.
         22    1    1    2    0    0 -0.69881001280E+03  0.54856491327E+03 -0.18206102841E+04  0.20258037182E+04  0.00000000000E+00 0. -1.
<mgrwt>
<rscale>  0 0.20356217E+04</rscale>
<asrwt>0</asrwt>
<pdfrwt beam="1">  1        2 0.39927362E+00 0.20356217E+04</pdfrwt>
<pdfrwt beam="2">  1       -2 0.61409678E-01 0.20356217E+04</pdfrwt>
<totfact> 0.69998427E+00</totfact>
</mgrwt>
</event>
<event>
 6    1  0.1762360E-005  0.3134640E+04  0.7818608E-02  0.8206295E-01
         -2   -1    0    0    0  501 -0.00000000000E+00  0.00000000000E+00  0.12979502485E+04  0.12979502485E+04  0.00000000000E+00 0.  1.
          2   -1    0    0  501    0  0.00000000000E+00 -0.00000000000E+00 -0.18925931246E+04  0.18925931246E+04  0.00000000000E+00 0. -1.
         23    2    1    2    0    0 -0.62595285515E+03 -0.12358337074E+04 -0.10411348326E+04  0.17350513613E+04  0.85671216954E+02 0.  0.
         13    1    3    3    0    0 -0.10317160607E+03 -0.21442309550E+03 -0.14010628696E+03  0.27613658908E+03  0.00000000000E+00 0.  1.
        -13    1    3    3    0    0 -0.52278124907E+03 -0.10214106119E+04 -0.90102854563E+03  0.14589147722E+04  0.00000000000E+00 0. -1.
         22    1    1    2    0    0  0.62595285515E+03  0.12358337074E+04  0.44649195657E+03  0.14554920118E+04  0.00000000000E+00 0.  1.
<mgrwt>
<rscale>  0 0.31346398E+04</rscale>
<asrwt>0</asrwt>
<pdfrwt beam="1">  1        2 0.29116817E+00 0.31346398E+04</pdfrwt>
<pdfrwt beam="2">  1       -2 0.19968465E+00 0.31346398E+04</pdfrwt>
<totfact> 0.86735676E-01</totfact>
</mgrwt>
</event>
<event>
 6    1  0.1762360E-005  0.1565044E+04  0.7818608E-02  0.8842316E-01
         -2   -1    0    0    0  501 -0.00000000000E+00  0.00000000000E+00  0.35201444262E+03  0.35201444262E+03  0.00000000000E+00 0.  1.
          2   -1    0    0  501    0  0.00000000000E+00 -0.00000000000E+00 -0.17395319166E+04  0.17395319166E+04  0.00000000000E+00 0. -1.
         23    2    1    2    0    0  0.57536908472E+03 -0.69900187388E+02 -0.13935043772E+04  0.15119159055E+04  0.89997978367E+02 0.  0.
         11    1    3    3    0    0  0.48988601826E+03 -0.85532819963E+02 -0.12305811579E+04  0.13272656706E+04  0.00000000000E+00 0. -1.
        -11    1    3    3    0    0  0.85483066455E+02  0.15632632574E+02 -0.16292321928E+03  0.18465023486E+03  0.00000000000E+00 0.  1.
         22    1    1    2    0    0 -0.57536908472E+03  0.69900187388E+02  0.59869032706E+01  0.57963045370E+03  0.00000000000E+00 0.  1.
<mgrwt>
<rscale>  0 0.15650436E+04</rscale>
<asrwt>0</asrwt>
<pdfrwt beam="1">  1        2 0.26762029E+00 0.15650436E+04</pdfrwt>
<pdfrwt beam="2">  1       -2 0.54156068E-01 0.15650436E+04</pdfrwt>
<totfact> 0.28774909E+01</totfact>
</mgrwt>
</event>
<event>
 6    1  0.1762360E-005  0.3373160E+04  0.7818608E-02  0.8144525E-01
         -1   -1    0    0    0  501 -0.00000000000E+00  0.00000000000E+00  0.15401285238E+04  0.15401285238E+04  0.00000000000E+00 0.  1.
          1   -1    0    0  501    0  0.00000000000E+00 -0.00000000000E+00 -0.18469573734E+04  0.18469573734E+04  0.00000000000E+00 0. -1.
         23    2    1    2    0    0 -0.11456257789E+04  0.72039105378E+03  0.85490982380E+03  0.16035336998E+04  0.95014862231E+02 0.  0.
         11    1    3    3    0    0 -0.19187715524E+03  0.15768084144E+03  0.13434477350E+03  0.28236254821E+03  0.00000000000E+00 0.  1.
        -11    1    3    3    0    0 -0.95374862364E+03  0.56271021233E+03  0.72056505030E+03  0.13211711516E+04  0.00000000000E+00 0. -1.
         22    1    1    2    0    0  0.11456257789E+04 -0.72039105378E+03 -0.11617386734E+04  0.17835521974E+04  0.00000000000E+00 0. -1.
<mgrwt>
<rscale>  0 0.33731598E+04</rscale>
<asrwt>0</asrwt>
<pdfrwt beam="1">  1        1 0.28414729E+00 0.33731598E+04</pdfrwt>
<pdfrwt beam="2">  1       -1 0.23694285E+00 0.33731598E+04</pdfrwt>
<totfact> 0.26507130E-01</totfact>
</mgrwt>
</event>
<event>
 6    1  0.1762360E-005  0.2242971E+04  0.7818608E-02  0.8500752E-01
          2   -1    0    0  501    0  0.00000000000E+00  0.00000000000E+00  0.12632043552E+04  0.12632043552E+04  0.00000000000E+00 0. -1.
         -2   -1    0    0    0  501 -0.00000000000E+00 -0.00000000000E+00 -0.99566643514E+03  0.99566643514E+03  0.00000000000E+00 0.  1.
         23    2    1    2    0    0  0.67240097290E+03 -0.89195391796E+03  0.21102992428E+03  0.11404352698E+04  0.91400850626E+02 0.  0.
         11    1    3    3    0    0  0.56304760954E+03 -0.76960912391E+03  0.14973109897E+03  0.96526691449E+03  0.00000000000E+00 0.  1.
        -11    1    3    3    0    0  0.10935336337E+03 -0.12234479405E+03  0.61298825317E+02  0.17516835529E+03  0.00000000000E+00 0. -1.
         22    1    1    2    0    0 -0.67240097290E+03  0.89195391796E+03  0.56507995803E+02  0.11184355206E+04  0.00000000000E+00 0.  1.
<mgrwt>
<rscale>  0 0.22429714E+04</rscale>
<asrwt>0</asrwt>
<pdfrwt beam="1">  1        2 0.19433913E+00 0.22429714E+04</pdfrwt>
<pdfrwt beam="2">  1       -2 0.15317945E+00 0.22429714E+04</pdfrwt>
<totfact> 0.44842198E+00</totfact>
</mgrwt>
</event>
<event>
 6    1  0.1762360E-005  0.3653970E+04  0.7818608E-02  0.8078240E-01
          1   -1    0    0  501    0  0.00000000000E+00  0.00000000000E+00  0.14419742265E+04  0.14419742265E+04  0.00000000000E+00 0. -1.
         -1   -1    0    0    0  501 -0.00000000000E+00 -0.00000000000E+00 -0.23147942880E+04  0.23147942880E+04  0.00000000000E+00 0.  1.
         23    2    1    2    0    0 -0.66503187226E+03  0.48199397484E+03 -0.21132079427E+04  0.22691033375E+04  0.92717658684E+02 0.  0.
         11    1    3    3    0    0 -0.14804306714E+03  0.62363121688E+02 -0.42045395436E+03  0.45009714109E+03  0.00000000000E+00 0.  1.
        -11    1    3    3    0    0 -0.51698880511E+03  0.41963085315E+03 -0.16927539884E+04  0.18190061965E+04  0.00000000000E+00 0. -1.
         22    1    1    2    0    0  0.66503187226E+03 -0.48199397484E+03  0.12403878812E+04  0.14876651770E+04  0.00000000000E+00 0. -1.
<mgrwt>
<rscale>  0 0.36539697E+04</rscale>
<asrwt>0</asrwt>
<pdfrwt beam="1">  1        1 0.22184219E+00 0.36539697E+04</pdfrwt>
<pdfrwt beam="2">  1       -1 0.35612219E+00 0.36539697E+04</pdfrwt>
<totfact> 0.81773511E-02</totfact>
</mgrwt>
</event>
<event>
 6    1  0.1762360E-005  0.9846102E+03  0.7818608E-02  0.9325587E-01
         -1   -1    0    0    0  501 -0.00000000000E+00  0.00000000000E+00  0.11654900546E+04  0.11654900546E+04  0.00000000000E+00 0.  1.
          1   -1    0    0  501    0  0.00000000000E+00 -0.00000000000E+00 -0.20795055286E+03  0.20795055286E+03  0.00000000000E+00 0. -1.
         23    2    1    2    0    0 -0.36012826048E+03 -0.29670430147E+03  0.28415762656E+03  0.55419158773E+03  0.93042746467E+02 0.  0.
         11    1    3    3    0    0 -0.28021441663E+03 -0.17920718556E+03  0.18174149465E+03  0.37903206397E+03  0.00000000000E+00 0. -1.
        -11    1    3    3    0    0 -0.79913843853E+02 -0.11749711591E+03  0.10241613191E+03  0.17515952376E+03  0.00000000000E+00 0.  1.
         22    1    1    2    0    0  0.36012826048E+03  0.29670430147E+03  0.67338187522E+03  0.81924901976E+03  0.00000000000E+00 0.  1.
<mgrwt>
<rscale>  0 0.98461018E+03</rscale>
<asrwt>0</asrwt>
<pdfrwt beam="1">  1        1 0.31992393E-01 0.98461018E+03</pdfrwt>
<pdfrwt beam="2">  1       -1 0.17930616E+00 0.98461018E+03</pdfrwt>
<totfact> 0.29903135E+01</totfact>
</mgrwt>
</event>
<event>
 6    1  0.1762360E-005  0.1703417E+04  0.7818608E-02  0.8759418E-01
         -1   -1    0    0    0  501 -0.00000000000E+00  0.00000000000E+00  0.44812765281E+03  0.44812765281E+03  0.00000000000E+00 0.  1.
          1   -1    0    0  501    0  0.00000000000E+00 -0.00000000000E+00 -0.16187516565E+04  0.16187516565E+04  0.00000000000E+00 0. -1.
         23    2    1    2    0    0 -0.80541300679E+03 -0.25882615316E+03 -0.49674102467E+03  0.98530667724E+03  0.91632491765E+02 0.  0.
         11    1    3    3    0    0 -0.63132040571E+03 -0.24117674259E+03 -0.40131315337E+03  0.78599231733E+03  0.00000000000E+00 0. -1.
        -11    1    3    3    0    0 -0.17409260108E+03 -0.17649410576E+02 -0.95427871303E+02  0.19931435991E+03  0.00000000000E+00 0.  1.
         22    1    1    2    0    0  0.80541300679E+03  0.25882615316E+03 -0.67388297904E+03  0.10815726321E+04  0.00000000000E+00 0.  1.
<mgrwt>
<rscale>  0 0.17034170E+04</rscale>
<asrwt>0</asrwt>
<pdfrwt beam="1">  1        1 0.24903872E+00 0.17034170E+04</pdfrwt>
<pdfrwt beam="2">  1       -1 0.68942715E-01 0.17034170E+04</pdfrwt>
<totfact> 0.10969846E+01</totfact>
</mgrwt>
</event>
<event>
 6    1  0.1762360E-005  0.2545128E+04  0.7818608E-02  0.8387083E-01
          1   -1    0    0  501    0  0.00000000000E+00  0.00000000000E+00  0.16128000915E+04  0.16128000915E+04  0.00000000000E+00 0. -1.
         -1   -1    0    0    0  501 -0.00000000000E+00 -0.00000000000E+00 -0.10041037757E+04  0.10041037757E+04  0.00000000000E+00 0.  1.
         23    2    1    2    0    0  0.87818402845E+03 -0.78315132771E+03 -0.18902399904E+03  0.11953234472E+04  0.92384421327E+02 0.  0.
         11    1    3    3    0    0  0.45913703722E+03 -0.35027553533E+03 -0.78841574520E+02  0.58285140771E+03  0.00000000000E+00 0.  1.
        -11    1    3    3    0    0  0.41904699123E+03 -0.43287579238E+03 -0.11018242452E+03  0.61247203950E+03  0.00000000000E+00 0. -1.
         22    1    1    2    0    0 -0.87818402845E+03  0.78315132771E+03  0.79772031478E+03  0.14215804200E+04  0.00000000000E+00 0.  1.
<mgrwt>
<rscale>  0 0.25451276E+04</rscale>
<asrwt>0</asrwt>
<pdfrwt beam="1">  1        1 0.24812309E+00 0.25451276E+04</pdfrwt>
<pdfrwt beam="2">  1       -1 0.15447750E+00 0.25451276E+04</pdfrwt>
<totfact> 0.15586651E+00</totfact>
</mgrwt>
</event>
<event>
 6    1  0.1762360E-005  0.3108282E+04  0.7818608E-02  0.8213469E-01
          1   -1    0    0  501    0  0.00000000000E+00  0.00000000000E+00  0.14728813745E+04  0.14728813745E+04  0.00000000000E+00 0. -1.
         -1   -1    0    0    0  501 -0.00000000000E+00 -0.00000000000E+00 -0.16398838614E+04  0.16398838614E+04  0.00000000000E+00 0.  1.
         23    2    1    2    0    0  0.53159890943E+03  0.11150398043E+04  0.85867944211E+03  0.15071704597E+04  0.91220857079E+02 0.  0.
         13    1    3    3    0    0  0.52600643543E+02  0.91791029592E+02  0.45605271718E+02  0.11520530206E+03  0.00000000000E+00 0. -1.
        -13    1    3    3    0    0  0.47899826589E+03  0.10232487747E+04  0.81307417039E+03  0.13919651577E+04  0.00000000000E+00 0.  1.
         22    1    1    2    0    0 -0.53159890943E+03 -0.11150398043E+04 -0.10256819290E+04  0.16055947761E+04  0.00000000000E+00 0.  1.
<mgrwt>
<rscale>  0 0.31082821E+04</rscale>
<asrwt>0</asrwt>
<pdfrwt beam="1">  1        1 0.22659713E+00 0.31082821E+04</pdfrwt>
<pdfrwt beam="2">  1       -1 0.25228982E+00 0.31082821E+04</pdfrwt>
<totfact> 0.38803405E-01</totfact>
</mgrwt>
</event>
<event>
 6    1  0.1762360E-005  0.1721221E+04  0.7818608E-02  0.8749353E-01
         -2   -1    0    0    0  501 -0.00000000000E+00  0.00000000000E+00  0.10179315620E+04  0.10179315620E+04  0.00000000000E+00 0. -1.
          2   -1    0    0  501    0  0.00000000000E+00 -0.00000000000E+00 -0.72760309844E+03  0.72760309844E+03  0.00000000000E+00 0.  1.
         23    2    1    2    0    0  0.25317641035E+03  0.81601510956E+03  0.22657324666E+03  0.88877116831E+03  0.92735105126E+02 0.  0.
         11    1    3    3    0    0 -0.22989724581E+01  0.82145460227E+02  0.16628187753E+02  0.83843058975E+02  0.00000000000E+00 0.  1.
        -11    1    3    3    0    0  0.25547538281E+03  0.73386964934E+03  0.20994505890E+03  0.80492810933E+03  0.00000000000E+00 0. -1.
         22    1    1    2    0    0 -0.25317641035E+03 -0.81601510956E+03  0.63755216923E+02  0.85676349215E+03  0.00000000000E+00 0. -1.
<mgrwt>
<rscale>  0 0.17212207E+04</rscale>
<asrwt>0</asrwt>
<pdfrwt beam="1">  1        2 0.11193894E+00 0.17212207E+04</pdfrwt>
<pdfrwt beam="2">  1       -2 0.15660486E+00 0.17212207E+04</pdfrwt>
<totfact> 0.98859480E+00</totfact>
</mgrwt>
</event>
<event>
 6    1  0.1762360E-005  0.1604340E+04  0.7818608E-02  0.8817886E-01
          2   -1    0    0  501    0  0.00000000000E+00  0.00000000000E+00  0.11957700018E+04  0.11957700018E+04  0.00000000000E+00 0.  1.
         -2   -1    0    0    0  501 -0.00000000000E+00 -0.00000000000E+00 -0.53812726231E+03  0.53812726231E+03  0.00000000000E+00 0. -1.
         23    2    1    2    0    0  0.68945467626E+02  0.79660450333E+03  0.34063190433E+03  0.87376466862E+03  0.90013274814E+02 0.  0.
         11    1    3    3    0    0  0.75674510362E+02  0.55182175131E+03  0.26954603901E+03  0.61878020644E+03  0.00000000000E+00 0.  1.
        -11    1    3    3    0    0 -0.67290427355E+01  0.24478275202E+03  0.71085865323E+02  0.25498446218E+03  0.00000000000E+00 0. -1.
         22    1    1    2    0    0 -0.68945467626E+02 -0.79660450333E+03  0.31701083516E+03  0.86013259550E+03  0.00000000000E+00 0.  1.
<mgrwt>
<rscale>  0 0.16043397E+04</rscale>
<asrwt>0</asrwt>
<pdfrwt beam="1">  1        2 0.18396461E+00 0.16043397E+04</pdfrwt>
<pdfrwt beam="2">  1       -2 0.82788810E-01 0.16043397E+04</pdfrwt>
<totfact> 0.23367508E+01</totfact>
</mgrwt>
</event>
<event>
 6    1  0.1762360E-005  0.1032242E+04  0.7818608E-02  0.9273872E-01
         -2   -1    0    0    0  501 -0.00000000000E+00  0.00000000000E+00  0.11991110697E+03  0.11991110697E+03  0.00000000000E+00 0.  1.
          2   -1    0    0  501    0  0.00000000000E+00 -0.00000000000E+00 -0.22214874499E+04  0.22214874499E+04  0.00000000000E+00 0. -1.
         23    2    1    2    0    0 -0.20931069715E+03 -0.34682328786E+03 -0.35360505846E+03  0.54710176641E+03  0.10092791732E+03 0.  0.
         13    1    3    3    0    0 -0.11216589951E+02 -0.91671159542E+02 -0.56788787710E+02  0.10841761753E+03  0.00000000000E+00 0. -1.
        -13    1    3    3    0    0 -0.19809410720E+03 -0.25515212831E+03 -0.29681627075E+03  0.43868414887E+03  0.00000000000E+00 0.  1.
         22    1    1    2    0    0  0.20931069715E+03  0.34682328786E+03 -0.17479712845E+04  0.17942967905E+04  0.00000000000E+00 0. -1.
<mgrwt>
<rscale>  0 0.10322423E+04</rscale>
<asrwt>0</asrwt>
<pdfrwt beam="1">  1        2 0.34176729E+00 0.10322423E+04</pdfrwt>
<pdfrwt beam="2">  1       -2 0.18447863E-01 0.10322423E+04</pdfrwt>
<totfact> 0.12398401E+02</totfact>
</mgrwt>
</event>
<event>
 6    1  0.1762360E-005  0.1063794E+04  0.7818608E-02  0.9241217E-01
         -2   -1    0    0    0  501 -0.00000000000E+00  0.00000000000E+00  0.10086846588E+03  0.10086846588E+03  0.00000000000E+00 0. -1.
          2   -1    0    0  501    0  0.00000000000E+00 -0.00000000000E+00 -0.28047873716E+04  0.28047873716E+04  0.00000000000E+00 0.  1.
         23    2    1    2    0    0  0.53118854760E+02  0.24942642810E+03 -0.26246782618E+04  0.26386085843E+04  0.91017183639E+02 0.  0.
         13    1    3    3    0    0  0.37903709155E+02  0.15080089644E+03 -0.19972865193E+04  0.20033299882E+04  0.00000000000E+00 0. -1.
        -13    1    3    3    0    0  0.15215145604E+02  0.98625531653E+02 -0.62739174246E+03  0.63527859610E+03  0.00000000000E+00 0.  1.
         22    1    1    2    0    0 -0.53118854760E+02 -0.24942642810E+03 -0.79240643968E+02  0.26704725316E+03  0.00000000000E+00 0. -1.
<mgrwt>
<rscale>  0 0.10637943E+04</rscale>
<asrwt>0</asrwt>
<pdfrwt beam="1">  1        2 0.43150576E+00 0.10637943E+04</pdfrwt>
<pdfrwt beam="2">  1       -2 0.15518225E-01 0.10637943E+04</pdfrwt>
<totfact> 0.76979831E+01</totfact>
</mgrwt>
</event>
<event>
 6    1  0.1762360E-005  0.2735477E+04  0.7818608E-02  0.8323585E-01
          2   -1    0    0  501    0  0.00000000000E+00  0.00000000000E+00  0.93267257438E+03  0.93267257438E+03  0.00000000000E+00 0. -1.
         -2   -1    0    0    0  501 -0.00000000000E+00 -0.00000000000E+00 -0.20057510657E+04  0.20057510657E+04  0.00000000000E+00 0.  1.
         23    2    1    2    0    0 -0.24588788059E+03 -0.18288189820E+02 -0.19806619511E+04  0.19979434202E+04  0.89223528472E+02 0.  0.
         13    1    3    3    0    0 -0.12936846833E+03 -0.53748909518E+02 -0.11091867767E+04  0.11179984130E+04  0.00000000000E+00 0.  1.
        -13    1    3    3    0    0 -0.11651941226E+03  0.35460719698E+02 -0.87147517444E+03  0.87994500722E+03  0.00000000000E+00 0. -1.
         22    1    1    2    0    0  0.24588788059E+03  0.18288189820E+02  0.90758345974E+03  0.94048021994E+03  0.00000000000E+00 0. -1.
<mgrwt>
<rscale>  0 0.27354773E+04</rscale>
<asrwt>0</asrwt>
<pdfrwt beam="1">  1        2 0.14348809E+00 0.27354773E+04</pdfrwt>
<pdfrwt beam="2">  1       -2 0.30857708E+00 0.27354773E+04</pdfrwt>
<totfact> 0.68663958E-01</totfact>
</mgrwt>
</event>
<event>
 6    1  0.1762360E-005  0.1932696E+04  0.7818608E-02  0.8638751E-01
         -2   -1    0    0    0  501 -0.00000000000E+00  0.00000000000E+00  0.43091897743E+03  0.43091897743E+03  0.00000000000E+00 0.  1.
          2   -1    0    0  501    0  0.00000000000E+00 -0.00000000000E+00 -0.21670626619E+04  0.21670626619E+04  0.00000000000E+00 0. -1.
         23    2    1    2    0    0 -0.41799535126E+03  0.79047770395E+03 -0.38529353328E+03  0.97799051433E+03  0.91865255689E+02 0.  0.
         13    1    3    3    0    0 -0.15862673671E+03  0.27911827923E+03 -0.18561290423E+03  0.37083905622E+03  0.00000000000E+00 0. -1.
        -13    1    3    3    0    0 -0.25936861455E+03  0.51135942472E+03 -0.19968062905E+03  0.60715145811E+03  0.00000000000E+00 0.  1.
         22    1    1    2    0    0  0.41799535126E+03 -0.79047770395E+03 -0.13508501512E+04  0.16199911250E+04  0.00000000000E+00 0.  1.
<mgrwt>
<rscale>  0 0.19326960E+04</rscale>
<asrwt>0</asrwt>
<pdfrwt beam="1">  1        2 0.33339425E+00 0.19326960E+04</pdfrwt>
<pdfrwt beam="2">  1       -2 0.66295228E-01 0.19326960E+04</pdfrwt>
<totfact> 0.10532124E+01</totfact>
</mgrwt>
</event>
<event>
 6    1  0.1762360E-005  0.5825077E+04  0.7818608E-02  0.7712476E-01
         -2   -1    0    0    0  501 -0.00000000000E+00  0.00000000000E+00  0.30084166906E+04  0.30084166906E+04  0.00000000000E+00 0.  1.
          2   -1    0    0  501    0  0.00000000000E+00 -0.00000000000E+00 -0.28197164144E+04  0.28197164144E+04  0.00000000000E+00 0. -1.
         23    2    1    2    0    0  0.11712891982E+04  0.21257148764E+04 -0.15152660500E+04  0.28626511270E+04  0.90322482430E+02 0.  0.
         13    1    3    3    0    0  0.28482647198E+03  0.45770714301E+03 -0.36536943963E+03  0.65124248581E+03  0.00000000000E+00 0.  1.
        -13    1    3    3    0    0  0.88646272623E+03  0.16680077334E+04 -0.11498966103E+04  0.22114086412E+04  0.00000000000E+00 0. -1.
         22    1    1    2    0    0 -0.11712891982E+04 -0.21257148764E+04  0.17039663261E+04  0.29654819780E+04  0.00000000000E+00 0.  1.
<mgrwt>
<rscale>  0 0.58250775E+04</rscale>
<asrwt>0</asrwt>
<pdfrwt beam="1">  1        2 0.43380253E+00 0.58250775E+04</pdfrwt>
<pdfrwt beam="2">  1       -2 0.46283333E+00 0.58250775E+04</pdfrwt>
<totfact> 0.44091083E-03</totfact>
</mgrwt>
</event>
<event>
 6    1  0.1762360E-005  0.1979059E+04  0.7818608E-02  0.8616474E-01
         -2   -1    0    0    0  501 -0.00000000000E+00  0.00000000000E+00  0.73554536491E+03  0.73554536491E+03  0.00000000000E+00 0.  1.
          2   -1    0    0  501    0  0.00000000000E+00 -0.00000000000E+00 -0.13312144610E+04  0.13312144610E+04  0.00000000000E+00 0. -1.
         23    2    1    2    0    0  0.58562886058E+02  0.33091020424E+03 -0.12681235882E+04  0.13150110520E+04  0.90473515802E+02 0.  0.
         11    1    3    3    0    0 -0.84567935423E+01  0.10016690959E+03 -0.50670021355E+03  0.51657529320E+03  0.00000000000E+00 0. -1.
        -11    1    3    3    0    0  0.67019679601E+02  0.23074329466E+03 -0.76142337469E+03  0.79843575885E+03  0.00000000000E+00 0.  1.
         22    1    1    2    0    0 -0.58562886058E+02 -0.33091020424E+03  0.67245449218E+03  0.75174877383E+03  0.00000000000E+00 0.  1.
<mgrwt>
<rscale>  0 0.19790590E+04</rscale>
<asrwt>0</asrwt>
<pdfrwt beam="1">  1        2 0.20480222E+00 0.19790590E+04</pdfrwt>
<pdfrwt beam="2">  1       -2 0.11316083E+00 0.19790590E+04</pdfrwt>
<totfact> 0.90505860E+00</totfact>
</mgrwt>
</event>
<event>
 6    1  0.1762360E-005  0.1866295E+04  0.7818608E-02  0.8671818E-01
         -1   -1    0    0    0  501 -0.00000000000E+00  0.00000000000E+00  0.86937757412E+03  0.86937757412E+03  0.00000000000E+00 0.  1.
          1   -1    0    0  501    0  0.00000000000E+00 -0.00000000000E+00 -0.10015955454E+04  0.10015955454E+04  0.00000000000E+00 0. -1.
         23    2    1    2    0    0  0.59067760499E+03 -0.71566691404E+03  0.17381946532E+02  0.93104796276E+03  0.73952768777E+02 0.  0.
         11    1    3    3    0    0  0.53074124266E+03 -0.60476236504E+03  0.85023598264E+01  0.80467140806E+03  0.00000000000E+00 0. -1.
        -11    1    3    3    0    0  0.59936362334E+02 -0.11090454900E+03  0.88795867054E+01  0.12637655470E+03  0.00000000000E+00 0.  1.
         22    1    1    2    0    0 -0.59067760499E+03  0.71566691404E+03 -0.14959991781E+03  0.93992515675E+03  0.00000000000E+00 0.  1.
<mgrwt>
<rscale>  0 0.18662955E+04</rscale>
<asrwt>0</asrwt>
<pdfrwt beam="1">  1        1 0.15409162E+00 0.18662955E+04</pdfrwt>
<pdfrwt beam="2">  1       -1 0.13375040E+00 0.18662955E+04</pdfrwt>
<totfact> 0.66793058E+00</totfact>
</mgrwt>
</event>
<event>
 6    1  0.1771882E-005  0.3824853E+04  0.7818608E-02  0.8040842E-01
          2   -1    0    0  501    0  0.00000000000E+00  0.00000000000E+00  0.23402871483E+04  0.23402871483E+04  0.00000000000E+00 0. -1.
         -2   -1    0    0    0  501 -0.00000000000E+00 -0.00000000000E+00 -0.15627889642E+04  0.15627889642E+04  0.00000000000E+00 0.  1.
         23    2    1    2    0    0  0.12913884520E+04  0.55180973289E+03  0.17120781580E+04  0.22161801932E+04  0.89804870280E+02 0.  0.
         11    1    3    3    0    0  0.55151509643E+03  0.25370991704E+03  0.67529240440E+03  0.90805146056E+03  0.00000000000E+00 0. -1.
        -11    1    3    3    0    0  0.73987335552E+03  0.29809981586E+03  0.10367857536E+04  0.13081287327E+04  0.00000000000E+00 0.  1.
         22    1    1    2    0    0 -0.12913884520E+04 -0.55180973289E+03 -0.93457997385E+03  0.16868959193E+04  0.00000000000E+00 0.  1.
<mgrwt>
<rscale>  0 0.38248529E+04</rscale>
<asrwt>0</asrwt>
<pdfrwt beam="1">  1        2 0.36004418E+00 0.38248529E+04</pdfrwt>
<pdfrwt beam="2">  1       -2 0.24042907E+00 0.38248529E+04</pdfrwt>
<totfact> 0.25336851E-01</totfact>
</mgrwt>
</event>
<event>
 6    1  0.1762360E-005  0.1788996E+04  0.7818608E-02  0.8712173E-01
          2   -1    0    0  501    0  0.00000000000E+00  0.00000000000E+00  0.10508512235E+04  0.10508512235E+04  0.00000000000E+00 0. -1.
         -2   -1    0    0    0  501 -0.00000000000E+00 -0.00000000000E+00 -0.76140840761E+03  0.76140840761E+03  0.00000000000E+00 0.  1.
         23    2    1    2    0    0  0.10647225044E+02 -0.82147867280E+03 -0.20751669453E+03  0.85209853613E+03  0.89822956372E+02 0.  0.
         11    1    3    3    0    0  0.38274474871E+02 -0.16493749765E+03 -0.41959883652E+02  0.17444181091E+03  0.00000000000E+00 0. -1.
        -11    1    3    3    0    0 -0.27627249826E+02 -0.65654117516E+03 -0.16555681087E+03  0.67765672522E+03  0.00000000000E+00 0.  1.
         22    1    1    2    0    0 -0.10647225044E+02  0.82147867280E+03  0.49695951037E+03  0.96016109493E+03  0.00000000000E+00 0. -1.
<mgrwt>
<rscale>  0 0.17889963E+04</rscale>
<asrwt>0</asrwt>
<pdfrwt beam="1">  1        2 0.16166942E+00 0.17889963E+04</pdfrwt>
<pdfrwt beam="2">  1       -2 0.11713976E+00 0.17889963E+04</pdfrwt>
<totfact> 0.12452524E+01</totfact>
</mgrwt>
</event>
<event>
 6    1  0.1762360E-005  0.1682830E+04  0.7818608E-02  0.8771218E-01
         -1   -1    0    0    0  501 -0.00000000000E+00  0.00000000000E+00  0.33750492477E+03  0.33750492477E+03  0.00000000000E+00 0.  1.
          1   -1    0    0  501    0  0.00000000000E+00 -0.00000000000E+00 -0.20976851826E+04  0.20976851826E+04  0.00000000000E+00 0. -1.
         23    2    1    2    0    0  0.81110800822E+03  0.21389728579E+03 -0.86529338935E+03  0.12086214149E+04  0.91568690872E+02 0.  0.
         13    1    3    3    0    0  0.32624289951E+03  0.13240943901E+03 -0.36857161722E+03  0.50971730012E+03  0.00000000000E+00 0.  1.
        -13    1    3    3    0    0  0.48486510871E+03  0.81487846786E+02 -0.49672177213E+03  0.69890411483E+03  0.00000000000E+00 0. -1.
         22    1    1    2    0    0 -0.81110800822E+03 -0.21389728579E+03 -0.89488686851E+03  0.12265686925E+04  0.00000000000E+00 0.  1.
<mgrwt>
<rscale>  0 0.16828299E+04</rscale>
<asrwt>0</asrwt>
<pdfrwt beam="1">  1        1 0.32272079E+00 0.16828299E+04</pdfrwt>
<pdfrwt beam="2">  1       -1 0.51923836E-01 0.16828299E+04</pdfrwt>
<totfact> 0.91058524E+00</totfact>
</mgrwt>
</event>
<event>
 6    1  0.1762360E-005  0.4441845E+04  0.7818608E-02  0.7920898E-01
         -2   -1    0    0    0  501 -0.00000000000E+00  0.00000000000E+00  0.16699703043E+04  0.16699703043E+04  0.00000000000E+00 0.  1.
          2   -1    0    0  501    0  0.00000000000E+00 -0.00000000000E+00 -0.29536428924E+04  0.29536428924E+04  0.00000000000E+00 0. -1.
         23    2    1    2    0    0 -0.72606498514E+02  0.20651021214E+04 -0.14866965965E+04  0.25472853750E+04  0.92073537686E+02 0.  0.
         11    1    3    3    0    0  0.14662738234E+02  0.72582856942E+03 -0.54393350503E+03  0.90714153579E+03  0.00000000000E+00 0.  1.
        -11    1    3    3    0    0 -0.87269236748E+02  0.13392735519E+04 -0.94276309145E+03  0.16401438392E+04  0.00000000000E+00 0. -1.
         22    1    1    2    0    0  0.72606498514E+02 -0.20651021214E+04  0.20302400846E+03  0.20763278217E+04  0.00000000000E+00 0.  1.
<mgrwt>
<rscale>  0 0.44418446E+04</rscale>
<asrwt>0</asrwt>
<pdfrwt beam="1">  1        2 0.45440660E+00 0.44418446E+04</pdfrwt>
<pdfrwt beam="2">  1       -2 0.25691851E+00 0.44418446E+04</pdfrwt>
<totfact> 0.82525520E-02</totfact>
</mgrwt>
</event>
<event>
 6    1  0.1762360E-005  0.1959854E+04  0.7818608E-02  0.8625624E-01
          1   -1    0    0  501    0  0.00000000000E+00  0.00000000000E+00  0.21726301095E+04  0.21726301095E+04  0.00000000000E+00 0. -1.
         -1   -1    0    0    0  501 -0.00000000000E+00 -0.00000000000E+00 -0.44197879894E+03  0.44197879894E+03  0.00000000000E+00 0.  1.
         23    2    1    2    0    0  0.69345883184E+03  0.10436860497E+03 -0.41505325193E+02  0.70874503638E+03  0.93908878183E+02 0.  0.
         11    1    3    3    0    0  0.31551445373E+03  0.39275251586E+02  0.27274774593E+02  0.31911726564E+03  0.00000000000E+00 0. -1.
        -11    1    3    3    0    0  0.37794437811E+03  0.65093353379E+02 -0.68780099785E+02  0.38962777073E+03  0.00000000000E+00 0.  1.
         22    1    1    2    0    0 -0.69345883184E+03 -0.10436860497E+03  0.17721566357E+04  0.19058638720E+04  0.00000000000E+00 0. -1.
<mgrwt>
<rscale>  0 0.19598535E+04</rscale>
<asrwt>0</asrwt>
<pdfrwt beam="1">  1        1 0.33425078E+00 0.19598535E+04</pdfrwt>
<pdfrwt beam="2">  1       -1 0.67996740E-01 0.19598535E+04</pdfrwt>
<totfact> 0.46360219E+00</totfact>
</mgrwt>
</event>
<event>
 6    1  0.1762360E-005  0.3456685E+04  0.7818608E-02  0.8124133E-01
          2   -1    0    0  501    0  0.00000000000E+00  0.00000000000E+00  0.17045523356E+04  0.17045523356E+04  0.00000000000E+00 0. -1.
         -2   -1    0    0    0  501 -0.00000000000E+00 -0.00000000000E+00 -0.17524643683E+04  0.17524643683E+04  0.00000000000E+00 0.  1.
         23    2    1    2    0    0 -0.11812403633E+04  0.52341669851E+03 -0.11702912887E+04  0.17455760738E+04  0.90334339319E+02 0.  0.
         13    1    3    3    0    0 -0.94795766982E+02  0.33746728483E+02 -0.12445349265E+03  0.16004296596E+03  0.00000000000E+00 0.  1.
        -13    1    3    3    0    0 -0.10864445963E+04  0.48966997003E+03 -0.10458377960E+04  0.15855331078E+04  0.00000000000E+00 0. -1.
         22    1    1    2    0    0  0.11812403633E+04 -0.52341669851E+03  0.11223792560E+04  0.17114406302E+04  0.00000000000E+00 0. -1.
<mgrwt>
<rscale>  0 0.34566847E+04</rscale>
<asrwt>0</asrwt>
<pdfrwt beam="1">  1        2 0.26223882E+00 0.34566847E+04</pdfrwt>
<pdfrwt beam="2">  1       -2 0.26960990E+00 0.34566847E+04</pdfrwt>
<totfact> 0.39181832E-01</totfact>
</mgrwt>
</event>
<event>
 6    1  0.1762360E-005  0.2103603E+04  0.7818608E-02  0.8559658E-01
          2   -1    0    0  501    0  0.00000000000E+00  0.00000000000E+00  0.30082809171E+04  0.30082809171E+04  0.00000000000E+00 0. -1.
         -2   -1    0    0    0  501 -0.00000000000E+00 -0.00000000000E+00 -0.36774712588E+03  0.36774712588E+03  0.00000000000E+00 0.  1.
         23    2    1    2    0    0 -0.99352482179E+03 -0.44215877569E+02  0.18625144677E+04  0.21133480823E+04  0.90737859753E+02 0.  0.
         13    1    3    3    0    0 -0.55482090040E+03 -0.55603278003E+02  0.97234981918E+03  0.11208845288E+04  0.00000000000E+00 0.  1.
        -13    1    3    3    0    0 -0.43870392139E+03  0.11387400434E+02  0.89016464857E+03  0.99246355354E+03  0.00000000000E+00 0. -1.
         22    1    1    2    0    0  0.99352482179E+03  0.44215877569E+02  0.77801932347E+03  0.12626799607E+04  0.00000000000E+00 0.  1.
<mgrwt>
<rscale>  0 0.21036033E+04</rscale>
<asrwt>0</asrwt>
<pdfrwt beam="1">  1        2 0.46281243E+00 0.21036033E+04</pdfrwt>
<pdfrwt beam="2">  1       -2 0.56576483E-01 0.21036033E+04</pdfrwt>
<totfact> 0.46537976E+00</totfact>
</mgrwt>
</event>
<event>
 6    1  0.1762360E-005  0.1464851E+04  0.7818608E-02  0.8908169E-01
          2   -1    0    0  501    0  0.00000000000E+00  0.00000000000E+00  0.82906680197E+03  0.82906680197E+03  0.00000000000E+00 0. -1.
         -2   -1    0    0    0  501 -0.00000000000E+00 -0.00000000000E+00 -0.64704927048E+03  0.64704927048E+03  0.00000000000E+00 0.  1.
         23    2    1    2    0    0 -0.27864062952E+03 -0.48073204090E+03 -0.38472240521E+03  0.68242970402E+03  0.94631264844E+02 0.  0.
         13    1    3    3    0    0 -0.96269489783E+02 -0.23638140470E+03 -0.13763907626E+03  0.28998016908E+03  0.00000000000E+00 0. -1.
        -13    1    3    3    0    0 -0.18237113974E+03 -0.24435063621E+03 -0.24708332896E+03  0.39244953494E+03  0.00000000000E+00 0.  1.
         22    1    1    2    0    0  0.27864062952E+03  0.48073204090E+03  0.56673993671E+03  0.79368636843E+03  0.00000000000E+00 0. -1.
<mgrwt>
<rscale>  0 0.14648509E+04</rscale>
<asrwt>0</asrwt>
<pdfrwt beam="1">  1        2 0.12754874E+00 0.14648509E+04</pdfrwt>
<pdfrwt beam="2">  1       -2 0.99546042E-01 0.14648509E+04</pdfrwt>
<totfact> 0.26563416E+01</totfact>
</mgrwt>
</event>
<event>
 6    1  0.1762360E-005  0.2753673E+04  0.7818608E-02  0.8317797E-01
         -2   -1    0    0    0  501 -0.00000000000E+00  0.00000000000E+00  0.19770561339E+04  0.19770561339E+04  0.00000000000E+00 0.  1.
          2   -1    0    0  501    0  0.00000000000E+00 -0.00000000000E+00 -0.95883924009E+03  0.95883924009E+03  0.00000000000E+00 0. -1.
         23    2    1    2    0    0  0.65403003751E+02 -0.55203675303E+03 -0.83205236890E+03  0.10039226842E+04  0.80792831542E+02 0.  0.
         11    1    3    3    0    0 -0.18921245957E+02 -0.12198295727E+03 -0.17717209726E+03  0.21593472963E+03  0.00000000000E+00 0. -1.
        -11    1    3    3    0    0  0.84324249708E+02 -0.43005379576E+03 -0.65488027164E+03  0.78798795455E+03  0.00000000000E+00 0.  1.
         22    1    1    2    0    0 -0.65403003751E+02  0.55203675303E+03  0.18502692627E+04  0.19319726898E+04  0.00000000000E+00 0.  1.
<mgrwt>
<rscale>  0 0.27536732E+04</rscale>
<asrwt>0</asrwt>
<pdfrwt beam="1">  1        2 0.14751373E+00 0.27536732E+04</pdfrwt>
<pdfrwt beam="2">  1       -2 0.30416248E+00 0.27536732E+04</pdfrwt>
<totfact> 0.70128005E-01</totfact>
</mgrwt>
</event>
<event>
 6    1  0.1762360E-005  0.2277569E+04  0.7818608E-02  0.8486818E-01
         -2   -1    0    0    0  501 -0.00000000000E+00  0.00000000000E+00  0.72875533552E+03  0.72875533552E+03  0.00000000000E+00 0. -1.
          2   -1    0    0  501    0  0.00000000000E+00 -0.00000000000E+00 -0.17795137204E+04  0.17795137204E+04  0.00000000000E+00 0.  1.
         23    2    1    2    0    0  0.92185642149E+03 -0.24195371885E+03 -0.12089368373E+04  0.15421524549E+04  0.91351264585E+02 0.  0.
         11    1    3    3    0    0  0.47705402155E+03 -0.12632756948E+03 -0.55227783252E+03  0.74064161278E+03  0.00000000000E+00 0.  1.
        -11    1    3    3    0    0  0.44480239994E+03 -0.11562614937E+03 -0.65665900482E+03  0.80151084211E+03  0.00000000000E+00 0. -1.
         22    1    1    2    0    0 -0.92185642149E+03  0.24195371885E+03  0.15817845247E+03  0.96611660101E+03  0.00000000000E+00 0. -1.
<mgrwt>
<rscale>  0 0.22775690E+04</rscale>
<asrwt>0</asrwt>
<pdfrwt beam="1">  1        2 0.27377134E+00 0.22775690E+04</pdfrwt>
<pdfrwt beam="2">  1       -2 0.11211621E+00 0.22775690E+04</pdfrwt>
<totfact> 0.50472117E+00</totfact>
</mgrwt>
</event>
<event>
 6    1  0.1762360E-005  0.7681420E+03  0.7818608E-02  0.9607311E-01
         -1   -1    0    0    0  501 -0.00000000000E+00  0.00000000000E+00  0.18125037894E+03  0.18125037894E+03  0.00000000000E+00 0.  1.
          1   -1    0    0  501    0  0.00000000000E+00 -0.00000000000E+00 -0.81384947059E+03  0.81384947059E+03  0.00000000000E+00 0. -1.
         23    2    1    2    0    0  0.35496678283E+03  0.12945032277E+03 -0.28636828680E+03  0.48262099806E+03  0.90318487049E+02 0.  0.
         11    1    3    3    0    0  0.67999552683E+02  0.42505863930E+02 -0.22723254334E+02  0.83348868745E+02  0.00000000000E+00 0. -1.
        -11    1    3    3    0    0  0.28696723015E+03  0.86944458838E+02 -0.26364503247E+03  0.39927212931E+03  0.00000000000E+00 0.  1.
         22    1    1    2    0    0 -0.35496678283E+03 -0.12945032277E+03 -0.34623080485E+03  0.51247885148E+03  0.00000000000E+00 0. -1.
<mgrwt>
<rscale>  0 0.76814198E+03</rscale>
<asrwt>0</asrwt>
<pdfrwt beam="1">  1        1 0.12520761E+00 0.76814198E+03</pdfrwt>
<pdfrwt beam="2">  1       -1 0.27884673E-01 0.76814198E+03</pdfrwt>
<totfact> 0.25195846E+02</totfact>
</mgrwt>
</event>
<event>
 6    1  0.1762360E-005  0.8083446E+03  0.7818608E-02  0.9548017E-01
          1   -1    0    0  501    0  0.00000000000E+00  0.00000000000E+00  0.12120766481E+04  0.12120766481E+04  0.00000000000E+00 0. -1.
         -1   -1    0    0    0  501 -0.00000000000E+00 -0.00000000000E+00 -0.13477301887E+03  0.13477301887E+03  0.00000000000E+00 0.  1.
         23    2    1    2    0    0  0.18847669804E+03 -0.20705769792E+03  0.71489751679E+02  0.30279128151E+03  0.90418026930E+02 0.  0.
         11    1    3    3    0    0  0.71345727760E+02 -0.13646592065E+03  0.60995052423E+02  0.16563078454E+03  0.00000000000E+00 0. -1.
        -11    1    3    3    0    0  0.11713097028E+03 -0.70591777271E+02  0.10494699256E+02  0.13716049697E+03  0.00000000000E+00 0.  1.
         22    1    1    2    0    0 -0.18847669804E+03  0.20705769792E+03  0.10058138775E+04  0.10440583854E+04  0.00000000000E+00 0. -1.
<mgrwt>
<rscale>  0 0.80834455E+03</rscale>
<asrwt>0</asrwt>
<pdfrwt beam="1">  1        1 0.18647332E+00 0.80834455E+03</pdfrwt>
<pdfrwt beam="2">  1       -1 0.20734311E-01 0.80834455E+03</pdfrwt>
<totfact> 0.20376924E+02</totfact>
</mgrwt>
</event>
<event>
 6    1  0.1762360E-005  0.3997920E+04  0.7818608E-02  0.8004966E-01
          2   -1    0    0  501    0  0.00000000000E+00  0.00000000000E+00  0.22918389926E+04  0.22918389926E+04  0.00000000000E+00 0.  1.
         -2   -1    0    0    0  501 -0.00000000000E+00 -0.00000000000E+00 -0.17435082617E+04  0.17435082617E+04  0.00000000000E+00 0. -1.
         23    2    1    2    0    0 -0.19555263400E+04  0.42040728558E+02  0.68530269949E+03  0.20745790351E+04  0.91584354045E+02 0.  0.
         13    1    3    3    0    0 -0.83642709700E+03  0.29227666753E+02  0.33982152163E+03  0.90329574984E+03  0.00000000000E+00 0.  1.
        -13    1    3    3    0    0 -0.11190992430E+04  0.12813061805E+02  0.34548117785E+03  0.11712832853E+04  0.00000000000E+00 0. -1.
         22    1    1    2    0    0  0.19555263400E+04 -0.42040728558E+02 -0.13697196861E+03  0.19607682192E+04  0.00000000000E+00 0. -1.
<mgrwt>
<rscale>  0 0.39979196E+04</rscale>
<asrwt>0</asrwt>
<pdfrwt beam="1">  1        2 0.35259062E+00 0.39979196E+04</pdfrwt>
<pdfrwt beam="2">  1       -2 0.26823204E+00 0.39979196E+04</pdfrwt>
<totfact> 0.17965394E-01</totfact>
</mgrwt>
</event>
<event>
 6    1  0.1762360E-005  0.3990894E+03  0.7818608E-02  0.1044095E+00
          2   -1    0    0  501    0  0.00000000000E+00  0.00000000000E+00  0.65291802860E+03  0.65291802860E+03  0.00000000000E+00 0. -1.
         -2   -1    0    0    0  501 -0.00000000000E+00 -0.00000000000E+00 -0.60984807845E+02  0.60984807845E+02  0.00000000000E+00 0.  1.
         23    2    1    2    0    0  0.14790355824E+03  0.31316688525E+02  0.51521760503E+03  0.54436970335E+03  0.89626981858E+02 0.  0.
         13    1    3    3    0    0  0.12426435700E+03  0.57732174361E+02  0.36096427519E+03  0.38609563886E+03  0.00000000000E+00 0. -1.
        -13    1    3    3    0    0  0.23639201234E+02 -0.26415485835E+02  0.15425332984E+03  0.15827406450E+03  0.00000000000E+00 0.  1.
         22    1    1    2    0    0 -0.14790355824E+03 -0.31316688525E+02  0.76715615722E+02  0.16953313309E+03  0.00000000000E+00 0.  1.
<mgrwt>
<rscale>  0 0.39908937E+03</rscale>
<asrwt>0</asrwt>
<pdfrwt beam="1">  1        2 0.10044892E+00 0.39908937E+03</pdfrwt>
<pdfrwt beam="2">  1       -2 0.93822786E-02 0.39908937E+03</pdfrwt>
<totfact> 0.33719579E+03</totfact>
</mgrwt>
</event>
<event>
 6    1  0.1762360E-005  0.2668741E+04  0.7818608E-02  0.8345219E-01
         -1   -1    0    0    0  501 -0.00000000000E+00  0.00000000000E+00  0.73472333658E+03  0.73472333658E+03  0.00000000000E+00 0.  1.
          1   -1    0    0  501    0  0.00000000000E+00 -0.00000000000E+00 -0.24234215308E+04  0.24234215308E+04  0.00000000000E+00 0. -1.
         23    2    1    2    0    0 -0.10737767967E+04  0.35367697826E+03 -0.16807621972E+04  0.20275932347E+04  0.89937467275E+02 0.  0.
         13    1    3    3    0    0 -0.47191910161E+03  0.12545398291E+03 -0.78669975141E+03  0.92592809611E+03  0.00000000000E+00 0.  1.
        -13    1    3    3    0    0 -0.60185769507E+03  0.22822299536E+03 -0.89406244574E+03  0.11016651386E+04  0.00000000000E+00 0. -1.
         22    1    1    2    0    0  0.10737767967E+04 -0.35367697826E+03 -0.79359970377E+01  0.11305516326E+04  0.00000000000E+00 0.  1.
<mgrwt>
<rscale>  0 0.26687408E+04</rscale>
<asrwt>0</asrwt>
<pdfrwt beam="1">  1        1 0.37283408E+00 0.26687408E+04</pdfrwt>
<pdfrwt beam="2">  1       -1 0.11303436E+00 0.26687408E+04</pdfrwt>
<totfact> 0.95826228E-01</totfact>
</mgrwt>
</event>
<event>
 6    1  0.1762360E-005  0.5229565E+04  0.7818608E-02  0.7794038E-01
          1   -1    0    0  501    0  0.00000000000E+00  0.00000000000E+00  0.38748634383E+04  0.38748634383E+04  0.00000000000E+00 0. -1.
         -1   -1    0    0    0  501 -0.00000000000E+00 -0.00000000000E+00 -0.17644716156E+04  0.17644716156E+04  0.00000000000E+00 0.  1.
         23    2    1    2    0    0  0.27923823512E+03  0.54853720880E+03  0.37951101903E+04  0.38456954470E+04  0.87435997880E+02 0.  0.
         13    1    3    3    0    0  0.48257195777E+02  0.84665676813E+02  0.82286890117E+03  0.82861949186E+03  0.00000000000E+00 0.  1.
        -13    1    3    3    0    0  0.23098103934E+03  0.46387153199E+03  0.29722412891E+04  0.30170759552E+04  0.00000000000E+00 0. -1.
         22    1    1    2    0    0 -0.27923823512E+03 -0.54853720880E+03 -0.16847183676E+04  0.17936396069E+04  0.00000000000E+00 0.  1.
<mgrwt>
<rscale>  0 0.52295646E+04</rscale>
<asrwt>0</asrwt>
<pdfrwt beam="1">  1        1 0.59613284E+00 0.52295646E+04</pdfrwt>
<pdfrwt beam="2">  1       -1 0.27145717E+00 0.52295646E+04</pdfrwt>
<totfact> 0.44033856E-03</totfact>
</mgrwt>
</event>
<event>
 6    1  0.1762360E-005  0.2665575E+04  0.7818608E-02  0.8346262E-01
          2   -1    0    0  501    0  0.00000000000E+00  0.00000000000E+00  0.19698549731E+04  0.19698549731E+04  0.00000000000E+00 0. -1.
         -2   -1    0    0    0  501 -0.00000000000E+00 -0.00000000000E+00 -0.90175269685E+03  0.90175269685E+03  0.00000000000E+00 0.  1.
         23    2    1    2    0    0  0.71779250184E+03  0.60324589324E+03 -0.48328775197E+03  0.10588907304E+04  0.92470775017E+02 0.  0.
         13    1    3    3    0    0  0.48200328511E+03  0.45821990019E+03 -0.35332858444E+03  0.75308281907E+03  0.00000000000E+00 0. -1.
        -13    1    3    3    0    0  0.23578921673E+03  0.14502599304E+03 -0.12995916752E+03  0.30580791129E+03  0.00000000000E+00 0.  1.
         22    1    1    2    0    0 -0.71779250184E+03 -0.60324589324E+03  0.15513900282E+04  0.18127169396E+04  0.00000000000E+00 0. -1.
<mgrwt>
<rscale>  0 0.26655746E+04</rscale>
<asrwt>0</asrwt>
<pdfrwt beam="1">  1        2 0.30305461E+00 0.26655746E+04</pdfrwt>
<pdfrwt beam="2">  1       -2 0.13873118E+00 0.26655746E+04</pdfrwt>
<totfact> 0.22469335E+00</totfact>
</mgrwt>
</event>
<event>
 6    1  0.1762360E-005  0.1785086E+04  0.7818608E-02  0.8714271E-01
         -1   -1    0    0    0  501 -0.00000000000E+00  0.00000000000E+00  0.76213338923E+03  0.76213338923E+03  0.00000000000E+00 0.  1.
          1   -1    0    0  501    0  0.00000000000E+00 -0.00000000000E+00 -0.10452669183E+04  0.10452669183E+04  0.00000000000E+00 0. -1.
         23    2    1    2    0    0  0.42311911746E+03  0.77186438789E+03 -0.27667389958E+03  0.92714685106E+03  0.90820789903E+02 0.  0.
         11    1    3    3    0    0  0.21536481393E+03  0.30902036472E+03 -0.97184984667E+02  0.38899937035E+03  0.00000000000E+00 0.  1.
        -11    1    3    3    0    0  0.20775430353E+03  0.46284402317E+03 -0.17948891491E+03  0.53814748071E+03  0.00000000000E+00 0. -1.
         22    1    1    2    0    0 -0.42311911746E+03 -0.77186438789E+03 -0.64596295036E+01  0.88025345649E+03  0.00000000000E+00 0.  1.
<mgrwt>
<rscale>  0 0.17850858E+04</rscale>
<asrwt>0</asrwt>
<pdfrwt beam="1">  1        1 0.16081029E+00 0.17850858E+04</pdfrwt>
<pdfrwt beam="2">  1       -1 0.11725129E+00 0.17850858E+04</pdfrwt>
<totfact> 0.86386121E+00</totfact>
</mgrwt>
</event>
<event>
 6    1  0.1762360E-005  0.1040688E+04  0.7818608E-02  0.9265011E-01
          1   -1    0    0  501    0  0.00000000000E+00  0.00000000000E+00  0.34486970790E+03  0.34486970790E+03  0.00000000000E+00 0. -1.
         -1   -1    0    0    0  501 -0.00000000000E+00 -0.00000000000E+00 -0.78510177243E+03  0.78510177243E+03  0.00000000000E+00 0.  1.
         23    2    1    2    0    0  0.50763495169E+01  0.10100007939E+03 -0.77162753542E+03  0.78348952771E+03  0.90664222545E+02 0.  0.
         13    1    3    3    0    0  0.30102223060E+02  0.59893536290E+02 -0.63702973159E+03  0.64054684329E+03  0.00000000000E+00 0.  1.
        -13    1    3    3    0    0 -0.25025873543E+02  0.41106543100E+02 -0.13459780383E+03  0.14294268442E+03  0.00000000000E+00 0. -1.
         22    1    1    2    0    0 -0.50763495169E+01 -0.10100007939E+03  0.33139547089E+03  0.34648195262E+03  0.00000000000E+00 0. -1.
<mgrwt>
<rscale>  0 0.10406879E+04</rscale>
<asrwt>0</asrwt>
<pdfrwt beam="1">  1        1 0.53056879E-01 0.10406879E+04</pdfrwt>
<pdfrwt beam="2">  1       -1 0.12078489E+00 0.10406879E+04</pdfrwt>
<totfact> 0.44516571E+01</totfact>
</mgrwt>
</event>
<event>
 6    1  0.1762360E-005  0.1096171E+04  0.7818608E-02  0.9208931E-01
         -2   -1    0    0    0  501 -0.00000000000E+00  0.00000000000E+00  0.11737149172E+04  0.11737149172E+04  0.00000000000E+00 0.  1.
          2   -1    0    0  501    0  0.00000000000E+00 -0.00000000000E+00 -0.25593777413E+03  0.25593777413E+03  0.00000000000E+00 0. -1.
         23    2    1    2    0    0 -0.17877354104E+03  0.16179370860E+03  0.10984845373E+04  0.11283350094E+04  0.91293108949E+02 0.  0.
         13    1    3    3    0    0 -0.87887093074E+02  0.59629898363E+02  0.67547450537E+03  0.68377311538E+03  0.00000000000E+00 0. -1.
        -13    1    3    3    0    0 -0.90886447969E+02  0.10216381024E+03  0.42301003189E+03  0.44456189403E+03  0.00000000000E+00 0.  1.
         22    1    1    2    0    0  0.17877354104E+03 -0.16179370860E+03 -0.18070739420E+03  0.30131768192E+03  0.00000000000E+00 0. -1.
<mgrwt>
<rscale>  0 0.10961715E+04</rscale>
<asrwt>0</asrwt>
<pdfrwt beam="1">  1        2 0.39375043E-01 0.10961715E+04</pdfrwt>
<pdfrwt beam="2">  1       -2 0.18057152E+00 0.10961715E+04</pdfrwt>
<totfact> 0.23374935E+01</totfact>
</mgrwt>
</event>
<event>
 6    1  0.1762360E-005  0.3515712E+04  0.7818608E-02  0.8110076E-01
          2   -1    0    0  501    0  0.00000000000E+00  0.00000000000E+00  0.20767926866E+04  0.20767926866E+04  0.00000000000E+00 0. -1.
         -2   -1    0    0    0  501 -0.00000000000E+00 -0.00000000000E+00 -0.14878992368E+04  0.14878992368E+04  0.00000000000E+00 0.  1.
         23    2    1    2    0    0  0.43551253011E+02  0.15642795129E+04 -0.51453184826E+03  0.16499035553E+04  0.92583006229E+02 0.  0.
         11    1    3    3    0    0 -0.93038676939E+01  0.10447590765E+04 -0.36485641481E+03  0.11066744297E+04  0.00000000000E+00 0. -1.
        -11    1    3    3    0    0  0.52855120705E+02  0.51952043634E+03 -0.14967543345E+03  0.54322912564E+03  0.00000000000E+00 0.  1.
         22    1    1    2    0    0 -0.43551253011E+02 -0.15642795129E+04  0.11034252981E+04  0.19147883680E+04  0.00000000000E+00 0.  1.
<mgrwt>
<rscale>  0 0.35157123E+04</rscale>
<asrwt>0</asrwt>
<pdfrwt beam="1">  1        2 0.31950657E+00 0.35157123E+04</pdfrwt>
<pdfrwt beam="2">  1       -2 0.22890758E+00 0.35157123E+04</pdfrwt>
<totfact> 0.43155737E-01</totfact>
</mgrwt>
</event>
<event>
 6    1  0.1762360E-005  0.2245963E+04  0.7818608E-02  0.8499537E-01
         -2   -1    0    0    0  501 -0.00000000000E+00  0.00000000000E+00  0.42830519165E+03  0.42830519165E+03  0.00000000000E+00 0.  1.
          2   -1    0    0  501    0  0.00000000000E+00 -0.00000000000E+00 -0.29443668886E+04  0.29443668886E+04  0.00000000000E+00 0. -1.
         23    2    1    2    0    0 -0.35968403805E+03 -0.61886354993E+03  0.35578229594E+02  0.72253415641E+03  0.91788322216E+02 0.  0.
         11    1    3    3    0    0 -0.95534299452E+02 -0.25257147623E+03  0.10740491283E+02  0.27024897989E+03  0.00000000000E+00 0. -1.
        -11    1    3    3    0    0 -0.26414973860E+03 -0.36629207370E+03  0.24837738311E+02  0.45228517652E+03  0.00000000000E+00 0.  1.
         22    1    1    2    0    0  0.35968403805E+03  0.61886354993E+03 -0.25516399265E+04  0.26501379238E+04  0.00000000000E+00 0. -1.
<mgrwt>
<rscale>  0 0.22459632E+04</rscale>
<asrwt>0</asrwt>
<pdfrwt beam="1">  1        2 0.45297951E+00 0.22459632E+04</pdfrwt>
<pdfrwt beam="2">  1       -2 0.65893108E-01 0.22459632E+04</pdfrwt>
<totfact> 0.36439496E+00</totfact>
</mgrwt>
</event>
<event>
 6    1  0.1762360E-005  0.3976325E+04  0.7818608E-02  0.8009340E-01
          2   -1    0    0  501    0  0.00000000000E+00  0.00000000000E+00  0.25662965922E+04  0.25662965922E+04  0.00000000000E+00 0. -1.
         -2   -1    0    0    0  501 -0.00000000000E+00 -0.00000000000E+00 -0.15402698834E+04  0.15402698834E+04  0.00000000000E+00 0.  1.
         23    2    1    2    0    0 -0.12044510425E+04 -0.13959516299E+04  0.12786698418E+04  0.22455958096E+04  0.91217921120E+02 0.  0.
         13    1    3    3    0    0 -0.79656928697E+03 -0.85937027428E+03  0.79498880047E+03  0.14159968539E+04  0.00000000000E+00 0. -1.
        -13    1    3    3    0    0 -0.40788175555E+03 -0.53658135561E+03  0.48368104129E+03  0.82959895576E+03  0.00000000000E+00 0.  1.
         22    1    1    2    0    0  0.12044510425E+04  0.13959516299E+04 -0.25264313299E+03  0.18609706659E+04  0.00000000000E+00 0.  1.
<mgrwt>
<rscale>  0 0.39763246E+04</rscale>
<asrwt>0</asrwt>
<pdfrwt beam="1">  1        2 0.39481486E+00 0.39763246E+04</pdfrwt>
<pdfrwt beam="2">  1       -2 0.23696460E+00 0.39763246E+04</pdfrwt>
<totfact> 0.19472805E-01</totfact>
</mgrwt>
</event>
<event>
 6    1  0.1762360E-005  0.1769978E+04  0.7818608E-02  0.8722430E-01
          1   -1    0    0  501    0  0.00000000000E+00  0.00000000000E+00  0.54840265660E+03  0.54840265660E+03  0.00000000000E+00 0. -1.
         -1   -1    0    0    0  501 -0.00000000000E+00 -0.00000000000E+00 -0.14281580669E+04  0.14281580669E+04  0.00000000000E+00 0.  1.
         23    2    1    2    0    0 -0.65659672945E+03  0.20039408425E+03  0.17852727140E+03  0.71511738805E+03  0.90795583236E+02 0.  0.
         11    1    3    3    0    0 -0.36009219455E+03  0.15025454807E+03  0.76852131612E+02  0.39767960462E+03  0.00000000000E+00 0. -1.
        -11    1    3    3    0    0 -0.29650453490E+03  0.50139536181E+02  0.10167513979E+03  0.31743778344E+03  0.00000000000E+00 0.  1.
         22    1    1    2    0    0  0.65659672945E+03 -0.20039408425E+03 -0.10582826817E+04  0.12614433354E+04  0.00000000000E+00 0.  1.
<mgrwt>
<rscale>  0 0.17699782E+04</rscale>
<asrwt>0</asrwt>
<pdfrwt beam="1">  1        1 0.84369639E-01 0.17699782E+04</pdfrwt>
<pdfrwt beam="2">  1       -1 0.21971663E+00 0.17699782E+04</pdfrwt>
<totfact> 0.40723519E+00</totfact>
</mgrwt>
</event>
<event>
 6    1  0.1762360E-005  0.2532013E+04  0.7818608E-02  0.8391669E-01
         -2   -1    0    0    0  501 -0.00000000000E+00  0.00000000000E+00  0.68662771795E+03  0.68662771795E+03  0.00000000000E+00 0.  1.
          2   -1    0    0  501    0  0.00000000000E+00 -0.00000000000E+00 -0.23342664054E+04  0.23342664054E+04  0.00000000000E+00 0. -1.
         23    2    1    2    0    0 -0.67640683577E+03  0.88194566603E+03 -0.15439742391E+04  0.19046053241E+04  0.91162626315E+02 0.  0.
         13    1    3    3    0    0 -0.12043678781E+03  0.12435500534E+03 -0.19733017487E+03  0.26250406687E+03  0.00000000000E+00 0.  1.
        -13    1    3    3    0    0 -0.55597004796E+03  0.75759066070E+03 -0.13466440642E+04  0.16421012573E+04  0.00000000000E+00 0. -1.
         22    1    1    2    0    0  0.67640683577E+03 -0.88194566603E+03 -0.10366444832E+03  0.11162887992E+04  0.00000000000E+00 0.  1.
<mgrwt>
<rscale>  0 0.25320127E+04</rscale>
<asrwt>0</asrwt>
<pdfrwt beam="1">  1        2 0.35911791E+00 0.25320127E+04</pdfrwt>
<pdfrwt beam="2">  1       -2 0.10563503E+00 0.25320127E+04</pdfrwt>
<totfact> 0.27931064E+00</totfact>
</mgrwt>
</event>
<event>
 6    1  0.1762360E-005  0.3413189E+04  0.7818608E-02  0.8134677E-01
          2   -1    0    0  501    0  0.00000000000E+00  0.00000000000E+00  0.18429249104E+04  0.18429249104E+04  0.00000000000E+00 0. -1.
         -2   -1    0    0    0  501 -0.00000000000E+00 -0.00000000000E+00 -0.15803493520E+04  0.15803493520E+04  0.00000000000E+00 0.  1.
         23    2    1    2    0    0 -0.22049632561E+03  0.91906195559E+03  0.15552088883E+04  0.18219640385E+04  0.87090547314E+02 0.  0.
         13    1    3    3    0    0 -0.28346532074E+02  0.21407527791E+03  0.41248748172E+03  0.46559389286E+03  0.00000000000E+00 0.  1.
        -13    1    3    3    0    0 -0.19214979353E+03  0.70498667768E+03  0.11427214066E+04  0.13563701456E+04  0.00000000000E+00 0. -1.
         22    1    1    2    0    0  0.22049632561E+03 -0.91906195559E+03 -0.12926333299E+04  0.16013102240E+04  0.00000000000E+00 0.  1.
<mgrwt>
<rscale>  0 0.34131892E+04</rscale>
<asrwt>0</asrwt>
<pdfrwt beam="1">  1        2 0.28352691E+00 0.34131892E+04</pdfrwt>
<pdfrwt beam="2">  1       -2 0.24313067E+00 0.34131892E+04</pdfrwt>
<totfact> 0.47890139E-01</totfact>
</mgrwt>
</event>
<event>
 6    1  0.1762360E-005  0.3142607E+04  0.7818608E-02  0.8204141E-01
         -2   -1    0    0    0  501 -0.00000000000E+00  0.00000000000E+00  0.11723456971E+04  0.11723456971E+04  0.00000000000E+00 0.  1.
          2   -1    0    0  501    0  0.00000000000E+00 -0.00000000000E+00 -0.21060302171E+04  0.21060302171E+04  0.00000000000E+00 0. -1.
         23    2    1    2    0    0  0.11423724582E+04  0.97647533403E+03 -0.94095767258E+03  0.17755213603E+04  0.92497826700E+02 0.  0.
         11    1    3    3    0    0  0.21641204769E+02  0.24373707832E+02 -0.37168245831E+02  0.49435795488E+02  0.00000000000E+00 0.  1.
        -11    1    3    3    0    0  0.11207312535E+04  0.95210162620E+03 -0.90378942675E+03  0.17260855648E+04  0.00000000000E+00 0. -1.
         22    1    1    2    0    0 -0.11423724582E+04 -0.97647533403E+03  0.72731525492E+01  0.15028545539E+04  0.00000000000E+00 0. -1.
<mgrwt>
<rscale>  0 0.31426075E+04</rscale>
<asrwt>0</asrwt>
<pdfrwt beam="1">  1        2 0.32400465E+00 0.31426075E+04</pdfrwt>
<pdfrwt beam="2">  1       -2 0.18036088E+00 0.31426075E+04</pdfrwt>
<totfact> 0.88937006E-01</totfact>
</mgrwt>
</event>
<event>
 6    1  0.1762360E-005  0.2038021E+04  0.7818608E-02  0.8589048E-01
         -2   -1    0    0    0  501 -0.00000000000E+00  0.00000000000E+00  0.15197546881E+04  0.15197546881E+04  0.00000000000E+00 0.  1.
          2   -1    0    0  501    0  0.00000000000E+00 -0.00000000000E+00 -0.68325628027E+03  0.68325628027E+03  0.00000000000E+00 0. -1.
         23    2    1    2    0    0  0.27047408193E+02 -0.57097412055E+03  0.13282894124E+04  0.14489543387E+04  0.91503573424E+02 0.  0.
         13    1    3    3    0    0  0.59686916907E+02 -0.34868251019E+03  0.84034584436E+03  0.91176924662E+03  0.00000000000E+00 0. -1.
        -13    1    3    3    0    0 -0.32639508714E+02 -0.22229161036E+03  0.48794356801E+03  0.53718509206E+03  0.00000000000E+00 0.  1.
         22    1    1    2    0    0 -0.27047408193E+02  0.57097412055E+03 -0.49179100455E+03  0.75405662969E+03  0.00000000000E+00 0. -1.
<mgrwt>
<rscale>  0 0.20380205E+04</rscale>
<asrwt>0</asrwt>
<pdfrwt beam="1">  1        2 0.10511635E+00 0.20380205E+04</pdfrwt>
<pdfrwt beam="2">  1       -2 0.23380841E+00 0.20380205E+04</pdfrwt>
<totfact> 0.31657311E+00</totfact>
</mgrwt>
</event>
<event>
 6    1  0.1762360E-005  0.1103196E+04  0.7818608E-02  0.9202082E-01
          1   -1    0    0  501    0  0.00000000000E+00  0.00000000000E+00  0.39207184644E+03  0.39207184644E+03  0.00000000000E+00 0. -1.
         -1   -1    0    0    0  501 -0.00000000000E+00 -0.00000000000E+00 -0.77603237854E+03  0.77603237854E+03  0.00000000000E+00 0.  1.
         23    2    1    2    0    0 -0.22342899312E+03 -0.16257577148E+03 -0.69427316533E+03  0.75259811578E+03  0.89650986230E+02 0.  0.
         11    1    3    3    0    0 -0.10255626694E+03 -0.74493094473E+02 -0.20544231880E+03  0.24139916190E+03  0.00000000000E+00 0. -1.
        -11    1    3    3    0    0 -0.12087272618E+03 -0.88082677010E+02 -0.48883084653E+03  0.51119895387E+03  0.00000000000E+00 0.  1.
         22    1    1    2    0    0  0.22342899312E+03  0.16257577148E+03  0.31031263323E+03  0.41550610920E+03  0.00000000000E+00 0. -1.
<mgrwt>
<rscale>  0 0.11031962E+04</rscale>
<asrwt>0</asrwt>
<pdfrwt beam="1">  1        1 0.60318746E-01 0.11031962E+04</pdfrwt>
<pdfrwt beam="2">  1       -1 0.11938960E+00 0.11031962E+04</pdfrwt>
<totfact> 0.38498444E+01</totfact>
</mgrwt>
</event>
<event>
 6    1  0.1762360E-005  0.2349832E+04  0.7818608E-02  0.8458528E-01
         -1   -1    0    0    0  501 -0.00000000000E+00  0.00000000000E+00  0.64574783223E+03  0.64574783223E+03  0.00000000000E+00 0.  1.
          1   -1    0    0  501    0  0.00000000000E+00 -0.00000000000E+00 -0.21377201931E+04  0.21377201931E+04  0.00000000000E+00 0. -1.
         23    2    1    2    0    0  0.46889398631E+03 -0.72142447113E+03  0.19759468570E+03  0.88743225488E+03  0.90429581627E+02 0.  0.
         13    1    3    3    0    0  0.13683386553E+03 -0.23444519162E+03  0.10367216913E+03  0.29057868690E+03  0.00000000000E+00 0. -1.
        -13    1    3    3    0    0  0.33206012078E+03 -0.48697927952E+03  0.93922516578E+02  0.59685356798E+03  0.00000000000E+00 0.  1.
         22    1    1    2    0    0 -0.46889398631E+03  0.72142447113E+03 -0.16895670466E+04  0.18960357704E+04  0.00000000000E+00 0. -1.
<mgrwt>
<rscale>  0 0.23498325E+04</rscale>
<asrwt>0</asrwt>
<pdfrwt beam="1">  1        1 0.32888003E+00 0.23498325E+04</pdfrwt>
<pdfrwt beam="2">  1       -1 0.99345821E-01 0.23498325E+04</pdfrwt>
<totfact> 0.20913701E+00</totfact>
</mgrwt>
</event>
<event>
 6    1  0.1762360E-005  0.4067538E+04  0.7818608E-02  0.7991059E-01
         -2   -1    0    0    0  501 -0.00000000000E+00  0.00000000000E+00  0.25435684080E+04  0.25435684080E+04  0.00000000000E+00 0.  1.
          2   -1    0    0  501    0  0.00000000000E+00 -0.00000000000E+00 -0.16261473822E+04  0.16261473822E+04  0.00000000000E+00 0. -1.
         23    2    1    2    0    0  0.15998108046E+04 -0.21030590400E+03  0.17262403082E+04  0.23647748451E+04  0.92904696306E+02 0.  0.
         11    1    3    3    0    0  0.31662306743E+03 -0.78562639721E+02  0.33849467577E+03  0.47010732893E+03  0.00000000000E+00 0.  1.
        -11    1    3    3    0    0  0.12831877372E+04 -0.13174326428E+03  0.13877456324E+04  0.18946675162E+04  0.00000000000E+00 0. -1.
         22    1    1    2    0    0 -0.15998108046E+04  0.21030590400E+03 -0.80881928235E+03  0.18049409451E+04  0.00000000000E+00 0. -1.
<mgrwt>
<rscale>  0 0.40675384E+04</rscale>
<asrwt>0</asrwt>
<pdfrwt beam="1">  1        2 0.25017652E+00 0.40675384E+04</pdfrwt>
<pdfrwt beam="2">  1       -2 0.39131822E+00 0.40675384E+04</pdfrwt>
<totfact> 0.71512575E-02</totfact>
</mgrwt>
</event>
<event>
 6    1  0.1762360E-005  0.2573706E+04  0.7818608E-02  0.8377188E-01
          2   -1    0    0  501    0  0.00000000000E+00  0.00000000000E+00  0.94085776560E+03  0.94085776560E+03  0.00000000000E+00 0.  1.
         -2   -1    0    0    0  501 -0.00000000000E+00 -0.00000000000E+00 -0.17600854906E+04  0.17600854906E+04  0.00000000000E+00 0. -1.
         23    2    1    2    0    0  0.65960106555E+03  0.67374650309E+03 -0.13267121902E+04  0.16301732535E+04  0.91058688215E+02 0.  0.
         13    1    3    3    0    0  0.31814737744E+03  0.33192476387E+03 -0.72494218734E+03  0.85844800520E+03  0.00000000000E+00 0. -1.
        -13    1    3    3    0    0  0.34145368811E+03  0.34182173922E+03 -0.60177000290E+03  0.77172524834E+03  0.00000000000E+00 0.  1.
         22    1    1    2    0    0 -0.65960106555E+03 -0.67374650309E+03  0.50748446527E+03  0.10707700027E+04  0.00000000000E+00 0.  1.
<mgrwt>
<rscale>  0 0.25737056E+04</rscale>
<asrwt>0</asrwt>
<pdfrwt beam="1">  1        2 0.14474735E+00 0.25737056E+04</pdfrwt>
<pdfrwt beam="2">  1       -2 0.27078238E+00 0.25737056E+04</pdfrwt>
<totfact> 0.11698520E+00</totfact>
</mgrwt>
</event>
<event>
 6    1  0.1762360E-005  0.1396048E+04  0.7818608E-02  0.8956684E-01
         -1   -1    0    0    0  501 -0.00000000000E+00  0.00000000000E+00  0.11123408784E+04  0.11123408784E+04  0.00000000000E+00 0.  1.
          1   -1    0    0  501    0  0.00000000000E+00 -0.00000000000E+00 -0.43802889541E+03  0.43802889541E+03  0.00000000000E+00 0. -1.
         23    2    1    2    0    0  0.16614444154E+03 -0.57398977440E+03 -0.55755422887E+02  0.60693633488E+03  0.90525194501E+02 0.  0.
         13    1    3    3    0    0  0.35298350841E+02 -0.36463069291E+02  0.13981359783E+01  0.50768925323E+02  0.00000000000E+00 0. -1.
        -13    1    3    3    0    0  0.13084609070E+03 -0.53752670511E+03 -0.57153558865E+02  0.55616740956E+03  0.00000000000E+00 0.  1.
         22    1    1    2    0    0 -0.16614444154E+03  0.57398977440E+03  0.73006740585E+03  0.94343343891E+03  0.00000000000E+00 0.  1.
<mgrwt>
<rscale>  0 0.13960479E+04</rscale>
<asrwt>0</asrwt>
<pdfrwt beam="1">  1        1 0.67389061E-01 0.13960479E+04</pdfrwt>
<pdfrwt beam="2">  1       -1 0.17112936E+00 0.13960479E+04</pdfrwt>
<totfact> 0.12503599E+01</totfact>
</mgrwt>
</event>
<event>
 6    1  0.1762360E-005  0.1328964E+04  0.7818608E-02  0.9006907E-01
          1   -1    0    0  501    0  0.00000000000E+00  0.00000000000E+00  0.43862596622E+03  0.43862596622E+03  0.00000000000E+00 0. -1.
         -1   -1    0    0    0  501 -0.00000000000E+00 -0.00000000000E+00 -0.10066347235E+04  0.10066347235E+04  0.00000000000E+00 0.  1.
         23    2    1    2    0    0 -0.25749684870E+02 -0.88365687179E+02 -0.99836479650E+03  0.10051722197E+04  0.71884514401E+02 0.  0.
         13    1    3    3    0    0 -0.44674039023E+02 -0.76375577564E+02 -0.63729055163E+03  0.64340364144E+03  0.00000000000E+00 0. -1.
        -13    1    3    3    0    0  0.18924354153E+02 -0.11990109614E+02 -0.36107424487E+03  0.36176857826E+03  0.00000000000E+00 0.  1.
         22    1    1    2    0    0  0.25749684870E+02  0.88365687179E+02  0.43035603923E+03  0.44008847001E+03  0.00000000000E+00 0. -1.
<mgrwt>
<rscale>  0 0.13289637E+04</rscale>
<asrwt>0</asrwt>
<pdfrwt beam="1">  1        1 0.67480918E-01 0.13289637E+04</pdfrwt>
<pdfrwt beam="2">  1       -1 0.15486688E+00 0.13289637E+04</pdfrwt>
<totfact> 0.16624827E+01</totfact>
</mgrwt>
</event>
<event>
 6    1  0.1762360E-005  0.2585856E+04  0.7818608E-02  0.8373022E-01
          2   -1    0    0  501    0  0.00000000000E+00  0.00000000000E+00  0.12191678292E+04  0.12191678292E+04  0.00000000000E+00 0. -1.
         -2   -1    0    0    0  501 -0.00000000000E+00 -0.00000000000E+00 -0.13711503639E+04  0.13711503639E+04  0.00000000000E+00 0.  1.
         23    2    1    2    0    0  0.67850251097E+03  0.14079009493E+03  0.10155037093E+04  0.12326688871E+04  0.89650952490E+02 0.  0.
         13    1    3    3    0    0  0.66292198088E+02  0.27097143188E+02  0.15248623130E+03  0.16846649944E+03  0.00000000000E+00 0.  1.
        -13    1    3    3    0    0  0.61221031288E+03  0.11369295174E+03  0.86301747801E+03  0.10642023876E+04  0.00000000000E+00 0. -1.
         22    1    1    2    0    0 -0.67850251097E+03 -0.14079009493E+03 -0.11674862441E+04  0.13576493061E+04  0.00000000000E+00 0.  1.
<mgrwt>
<rscale>  0 0.25858557E+04</rscale>
<asrwt>0</asrwt>
<pdfrwt beam="1">  1        2 0.18756428E+00 0.25858557E+04</pdfrwt>
<pdfrwt beam="2">  1       -2 0.21094621E+00 0.25858557E+04</pdfrwt>
<totfact> 0.18447168E+00</totfact>
</mgrwt>
</event>
<event>
 6    1  0.1762360E-005  0.3184933E+04  0.7818608E-02  0.8192808E-01
         -1   -1    0    0    0  501 -0.00000000000E+00  0.00000000000E+00  0.10148666811E+04  0.10148666811E+04  0.00000000000E+00 0.  1.
          1   -1    0    0  501    0  0.00000000000E+00 -0.00000000000E+00 -0.24988001509E+04  0.24988001509E+04  0.00000000000E+00 0. -1.
         23    2    1    2    0    0  0.99200494246E+03 -0.35418480190E+03 -0.20582760061E+04  0.23139210136E+04  0.90607174333E+02 0.  0.
         13    1    3    3    0    0  0.83976057324E+03 -0.33208086136E+03 -0.17791972233E+04  0.19952489264E+04  0.00000000000E+00 0.  1.
        -13    1    3    3    0    0  0.15224436922E+03 -0.22103940532E+02 -0.27907878279E+03  0.31867208718E+03  0.00000000000E+00 0. -1.
         22    1    1    2    0    0 -0.99200494246E+03  0.35418480190E+03  0.57434253636E+03  0.11997458184E+04  0.00000000000E+00 0.  1.
<mgrwt>
<rscale>  0 0.31849327E+04</rscale>
<asrwt>0</asrwt>
<pdfrwt beam="1">  1        1 0.38443079E+00 0.31849327E+04</pdfrwt>
<pdfrwt beam="2">  1       -1 0.15613334E+00 0.31849327E+04</pdfrwt>
<totfact> 0.35554711E-01</totfact>
</mgrwt>
</event>
<event>
 6    1  0.1762360E-005  0.3916460E+04  0.7818608E-02  0.8021614E-01
         -2   -1    0    0    0  501 -0.00000000000E+00  0.00000000000E+00  0.33738947776E+04  0.33738947776E+04  0.00000000000E+00 0.  1.
          2   -1    0    0  501    0  0.00000000000E+00 -0.00000000000E+00 -0.11365694171E+04  0.11365694171E+04  0.00000000000E+00 0. -1.
         23    2    1    2    0    0 -0.10551223858E+03 -0.90884725555E+03  0.31118259212E+04  0.32448072914E+04  0.90430238345E+02 0.  0.
         11    1    3    3    0    0  0.47580837076E+01 -0.23168588934E+03  0.87137120961E+03  0.90165890203E+03  0.00000000000E+00 0. -1.
        -11    1    3    3    0    0 -0.11027032229E+03 -0.67716136621E+03  0.22404547116E+04  0.23431483893E+04  0.00000000000E+00 0.  1.
         22    1    1    2    0    0  0.10551223858E+03  0.90884725555E+03 -0.87450056060E+03  0.12656569033E+04  0.00000000000E+00 0. -1.
<mgrwt>
<rscale>  0 0.39164605E+04</rscale>
<asrwt>0</asrwt>
<pdfrwt beam="1">  1        2 0.17485684E+00 0.39164605E+04</pdfrwt>
<pdfrwt beam="2">  1       -2 0.51906073E+00 0.39164605E+04</pdfrwt>
<totfact> 0.20805695E-02</totfact>
</mgrwt>
</event>
<event>
 6    1  0.1762360E-005  0.1371566E+04  0.7818608E-02  0.8974662E-01
          2   -1    0    0  501    0  0.00000000000E+00  0.00000000000E+00  0.93805190005E+03  0.93805190005E+03  0.00000000000E+00 0. -1.
         -2   -1    0    0    0  501 -0.00000000000E+00 -0.00000000000E+00 -0.50135606049E+03  0.50135606049E+03  0.00000000000E+00 0.  1.
         23    2    1    2    0    0  0.28739973694E+03  0.61869498177E+03  0.19195702176E+03  0.71464649758E+03  0.92141353578E+02 0.  0.
         11    1    3    3    0    0  0.12992276948E+03  0.20825745082E+03  0.10262502835E+03  0.26605072504E+03  0.00000000000E+00 0.  1.
        -11    1    3    3    0    0  0.15747696746E+03  0.41043753095E+03  0.89331993414E+02  0.44859577254E+03  0.00000000000E+00 0. -1.
         22    1    1    2    0    0 -0.28739973694E+03 -0.61869498177E+03  0.24473881779E+03  0.72476146296E+03  0.00000000000E+00 0. -1.
<mgrwt>
<rscale>  0 0.13715655E+04</rscale>
<asrwt>0</asrwt>
<pdfrwt beam="1">  1        2 0.14431568E+00 0.13715655E+04</pdfrwt>
<pdfrwt beam="2">  1       -2 0.77131702E-01 0.13715655E+04</pdfrwt>
<totfact> 0.40466304E+01</totfact>
</mgrwt>
</event>
<event>
 6    1  0.1762360E-005  0.1155859E+04  0.7818608E-02  0.9152395E-01
         -4   -1    0    0    0  501 -0.00000000000E+00  0.00000000000E+00  0.99610557564E+03  0.99610557564E+03  0.00000000000E+00 0.  1.
          4   -1    0    0  501    0  0.00000000000E+00 -0.00000000000E+00 -0.33530857995E+03  0.33530857995E+03  0.00000000000E+00 0. -1.
         23    2    1    2    0    0  0.24749356662E+03 -0.45910389713E+03  0.55680292989E+02  0.53254265293E+03  0.92043078400E+02 0.  0.
         11    1    3    3    0    0  0.22184452089E+03 -0.42469574787E+03  0.75867282668E+02  0.48511577411E+03  0.00000000000E+00 0.  1.
        -11    1    3    3    0    0  0.25649045733E+02 -0.34408149261E+02 -0.20186989679E+02  0.47426878823E+02  0.00000000000E+00 0. -1.
         22    1    1    2    0    0 -0.24749356662E+03  0.45910389713E+03  0.60511670270E+03  0.79887150266E+03  0.00000000000E+00 0.  1.
<mgrwt>
<rscale>  0 0.11558594E+04</rscale>
<asrwt>0</asrwt>
<pdfrwt beam="1">  1        4 0.51585936E-01 0.11558594E+04</pdfrwt>
<pdfrwt beam="2">  1       -4 0.15324701E+00 0.11558594E+04</pdfrwt>
<totfact> 0.20056394E+00</totfact>
</mgrwt>
</event>
<event>
 6    1  0.1762360E-005  0.4848222E+04  0.7818608E-02  0.7852357E-01
          1   -1    0    0  501    0  0.00000000000E+00  0.00000000000E+00  0.19568492035E+04  0.19568492035E+04  0.00000000000E+00 0. -1.
         -1   -1    0    0    0  501 -0.00000000000E+00 -0.00000000000E+00 -0.30029468082E+04  0.30029468082E+04  0.00000000000E+00 0.  1.
         23    2    1    2    0    0 -0.86440683072E+03 -0.11622184655E+04  0.14642744787E+04  0.20615346488E+04  0.88737977060E+02 0.  0.
         13    1    3    3    0    0 -0.50161352235E+03 -0.71298027662E+03  0.82806956633E+03  0.12023544433E+04  0.00000000000E+00 0. -1.
        -13    1    3    3    0    0 -0.36279330837E+03 -0.44923818892E+03  0.63620491237E+03  0.85918020549E+03  0.00000000000E+00 0.  1.
         22    1    1    2    0    0  0.86440683072E+03  0.11622184655E+04 -0.25103720833E+04  0.28982613629E+04  0.00000000000E+00 0.  1.
<mgrwt>
<rscale>  0 0.48482220E+04</rscale>
<asrwt>0</asrwt>
<pdfrwt beam="1">  1        1 0.30105373E+00 0.48482220E+04</pdfrwt>
<pdfrwt beam="2">  1       -1 0.46199181E+00 0.48482220E+04</pdfrwt>
<totfact> 0.62497907E-03</totfact>
</mgrwt>
</event>
<event>
 6    1  0.1762360E-005  0.1709302E+04  0.7818608E-02  0.8756077E-01
          2   -1    0    0  501    0  0.00000000000E+00  0.00000000000E+00  0.20478352066E+04  0.20478352066E+04  0.00000000000E+00 0. -1.
         -2   -1    0    0    0  501 -0.00000000000E+00 -0.00000000000E+00 -0.35668321379E+03  0.35668321379E+03  0.00000000000E+00 0.  1.
         23    2    1    2    0    0  0.68902131211E+03  0.25707834377E+03  0.24244886130E+03  0.77983986552E+03  0.92353246418E+02 0.  0.
         13    1    3    3    0    0  0.42801815921E+03  0.20499538899E+03  0.14198421158E+03  0.49536064687E+03  0.00000000000E+00 0.  1.
        -13    1    3    3    0    0  0.26100315290E+03  0.52082954775E+02  0.10046464972E+03  0.28447921865E+03  0.00000000000E+00 0. -1.
         22    1    1    2    0    0 -0.68902131211E+03 -0.25707834377E+03  0.14487031315E+04  0.16246785548E+04  0.00000000000E+00 0. -1.
<mgrwt>
<rscale>  0 0.17093021E+04</rscale>
<asrwt>0</asrwt>
<pdfrwt beam="1">  1        2 0.31505156E+00 0.17093021E+04</pdfrwt>
<pdfrwt beam="2">  1       -2 0.54874342E-01 0.17093021E+04</pdfrwt>
<totfact> 0.18667113E+01</totfact>
</mgrwt>
</event>
<event>
 6    1  0.1762360E-005  0.2153084E+04  0.7818608E-02  0.8538213E-01
         -2   -1    0    0    0  501 -0.00000000000E+00  0.00000000000E+00  0.80497756143E+03  0.80497756143E+03  0.00000000000E+00 0.  1.
          2   -1    0    0  501    0  0.00000000000E+00 -0.00000000000E+00 -0.14397200436E+04  0.14397200436E+04  0.00000000000E+00 0. -1.
         23    2    1    2    0    0 -0.98916318911E+02  0.10694459063E+04 -0.35062168139E+03  0.11337414339E+04  0.94525608438E+02 0.  0.
         13    1    3    3    0    0 -0.51294388812E+02  0.88631617285E+03 -0.26890568965E+03  0.92763017551E+03  0.00000000000E+00 0.  1.
        -13    1    3    3    0    0 -0.47621930098E+02  0.18312973349E+03 -0.81715991733E+02  0.20611125835E+03  0.00000000000E+00 0. -1.
         22    1    1    2    0    0  0.98916318911E+02 -0.10694459063E+04 -0.28412080074E+03  0.11109561711E+04  0.00000000000E+00 0.  1.
<mgrwt>
<rscale>  0 0.21530837E+04</rscale>
<asrwt>0</asrwt>
<pdfrwt beam="1">  1        2 0.22149539E+00 0.21530837E+04</pdfrwt>
<pdfrwt beam="2">  1       -2 0.12384270E+00 0.21530837E+04</pdfrwt>
<totfact> 0.61860927E+00</totfact>
</mgrwt>
</event>
<event>
 6    1  0.1762360E-005  0.2960240E+04  0.7818608E-02  0.8255177E-01
          2   -1    0    0  501    0  0.00000000000E+00  0.00000000000E+00  0.12437837859E+04  0.12437837859E+04  0.00000000000E+00 0. -1.
         -2   -1    0    0    0  501 -0.00000000000E+00 -0.00000000000E+00 -0.17613632118E+04  0.17613632118E+04  0.00000000000E+00 0.  1.
         23    2    1    2    0    0  0.56146130840E+03 -0.78074406914E+03  0.88097493349E+03  0.13078684706E+04  0.97994901177E+02 0.  0.
         11    1    3    3    0    0  0.37323078957E+03 -0.43870939100E+03  0.51058875659E+03  0.76971944914E+03  0.00000000000E+00 0. -1.
        -11    1    3    3    0    0  0.18823051884E+03 -0.34203467814E+03  0.37038617690E+03  0.53814902147E+03  0.00000000000E+00 0.  1.
         22    1    1    2    0    0 -0.56146130840E+03  0.78074406914E+03 -0.13985543594E+04  0.16972785271E+04  0.00000000000E+00 0.  1.
<mgrwt>
<rscale>  0 0.29602399E+04</rscale>
<asrwt>0</asrwt>
<pdfrwt beam="1">  1        2 0.19135135E+00 0.29602399E+04</pdfrwt>
<pdfrwt beam="2">  1       -2 0.27097896E+00 0.29602399E+04</pdfrwt>
<totfact> 0.73232019E-01</totfact>
</mgrwt>
</event>
<event>
 6    1  0.1762360E-005  0.1704467E+04  0.7818608E-02  0.8758821E-01
          2   -1    0    0  501    0  0.00000000000E+00  0.00000000000E+00  0.14201937720E+04  0.14201937720E+04  0.00000000000E+00 0. -1.
         -2   -1    0    0    0  501 -0.00000000000E+00 -0.00000000000E+00 -0.51141032969E+03  0.51141032969E+03  0.00000000000E+00 0.  1.
         23    2    1    2    0    0 -0.20268235194E+03 -0.23181945815E+03 -0.44188920591E+03  0.54627489907E+03  0.91267727515E+02 0.  0.
         11    1    3    3    0    0 -0.12550414093E+03 -0.11743169146E+03 -0.31486381247E+03  0.35872093883E+03  0.00000000000E+00 0.  1.
        -11    1    3    3    0    0 -0.77178211015E+02 -0.11438776669E+03 -0.12702539344E+03  0.18755396024E+03  0.00000000000E+00 0. -1.
         22    1    1    2    0    0  0.20268235194E+03  0.23181945815E+03  0.13506726483E+04  0.13853292027E+04  0.00000000000E+00 0. -1.
<mgrwt>
<rscale>  0 0.17044668E+04</rscale>
<asrwt>0</asrwt>
<pdfrwt beam="1">  1        2 0.21849135E+00 0.17044668E+04</pdfrwt>
<pdfrwt beam="2">  1       -2 0.78678513E-01 0.17044668E+04</pdfrwt>
<totfact> 0.19234272E+01</totfact>
</mgrwt>
</event>
<event>
 6    1  0.1762360E-005  0.5347728E+03  0.7818608E-02  0.1005081E+00
         -2   -1    0    0    0  501 -0.00000000000E+00  0.00000000000E+00  0.83202900205E+02  0.83202900205E+02  0.00000000000E+00 0. -1.
          2   -1    0    0  501    0  0.00000000000E+00 -0.00000000000E+00 -0.85929064820E+03  0.85929064820E+03  0.00000000000E+00 0.  1.
         23    2    1    2    0    0  0.23316437499E+03 -0.14524794494E+02 -0.59880765509E+03  0.64922775298E+03  0.91375445454E+02 0.  0.
         11    1    3    3    0    0  0.92281626553E+02  0.18483635883E+02 -0.33923917395E+03  0.35205221280E+03  0.00000000000E+00 0. -1.
        -11    1    3    3    0    0  0.14088274844E+03 -0.33008430377E+02 -0.25956848114E+03  0.29717554019E+03  0.00000000000E+00 0.  1.
         22    1    1    2    0    0 -0.23316437499E+03  0.14524794494E+02 -0.17728009291E+03  0.29326579542E+03  0.00000000000E+00 0. -1.
<mgrwt>
<rscale>  0 0.53477275E+03</rscale>
<asrwt>0</asrwt>
<pdfrwt beam="1">  1        2 0.13219856E+00 0.53477275E+03</pdfrwt>
<pdfrwt beam="2">  1       -2 0.12800446E-01 0.53477275E+03</pdfrwt>
<totfact> 0.14365294E+03</totfact>
</mgrwt>
</event>
<event>
 6    1  0.1762360E-005  0.5762401E+04  0.7818608E-02  0.7720580E-01
         -2   -1    0    0    0  501 -0.00000000000E+00  0.00000000000E+00  0.23449595347E+04  0.23449595347E+04  0.00000000000E+00 0.  1.
          2   -1    0    0  501    0  0.00000000000E+00 -0.00000000000E+00 -0.35400681151E+04  0.35400681151E+04  0.00000000000E+00 0. -1.
         23    2    1    2    0    0 -0.66145054681E+03 -0.26910431717E+04 -0.14004421754E+04  0.31062883560E+04  0.92514249772E+02 0.  0.
         13    1    3    3    0    0 -0.42799547076E+03 -0.17142878342E+04 -0.94201436125E+03  0.20023371240E+04  0.00000000000E+00 0. -1.
        -13    1    3    3    0    0 -0.23345507606E+03 -0.97675533748E+03 -0.45842781415E+03  0.11039512320E+04  0.00000000000E+00 0.  1.
         22    1    1    2    0    0  0.66145054681E+03  0.26910431717E+04  0.20533359500E+03  0.27787392938E+04  0.00000000000E+00 0.  1.
<mgrwt>
<rscale>  0 0.57624011E+04</rscale>
<asrwt>0</asrwt>
<pdfrwt beam="1">  1        2 0.54462586E+00 0.57624011E+04</pdfrwt>
<pdfrwt beam="2">  1       -2 0.36076301E+00 0.57624011E+04</pdfrwt>
<totfact> 0.69311488E-03</totfact>
</mgrwt>
</event>
<event>
 6    1  0.1762360E-005  0.2701250E+04  0.7818608E-02  0.8334599E-01
         -1   -1    0    0    0  501 -0.00000000000E+00  0.00000000000E+00  0.83795849588E+03  0.83795849588E+03  0.00000000000E+00 0.  1.
          1   -1    0    0  501    0  0.00000000000E+00 -0.00000000000E+00 -0.21769435536E+04  0.21769435536E+04  0.00000000000E+00 0. -1.
         23    2    1    2    0    0  0.31353663407E+03  0.10442735301E+04 -0.15569482171E+04  0.19030026092E+04  0.92297091845E+02 0.  0.
         13    1    3    3    0    0  0.15155084967E+03  0.57901302361E+03 -0.78285536817E+03  0.98543709541E+03  0.00000000000E+00 0.  1.
        -13    1    3    3    0    0  0.16198578440E+03  0.46526050648E+03 -0.77409284895E+03  0.91756551376E+03  0.00000000000E+00 0. -1.
         22    1    1    2    0    0 -0.31353663407E+03 -0.10442735301E+04  0.21796315940E+03  0.11118994403E+04  0.00000000000E+00 0.  1.
<mgrwt>
<rscale>  0 0.27012503E+04</rscale>
<asrwt>0</asrwt>
<pdfrwt beam="1">  1        1 0.33491439E+00 0.27012503E+04</pdfrwt>
<pdfrwt beam="2">  1       -1 0.12891669E+00 0.27012503E+04</pdfrwt>
<totfact> 0.10212601E+00</totfact>
</mgrwt>
</event>
<event>
 6    1  0.1762360E-005  0.2022398E+04  0.7818608E-02  0.8596220E-01
          1   -1    0    0  501    0  0.00000000000E+00  0.00000000000E+00  0.93096669795E+03  0.93096669795E+03  0.00000000000E+00 0. -1.
         -1   -1    0    0    0  501 -0.00000000000E+00 -0.00000000000E+00 -0.10983460890E+04  0.10983460890E+04  0.00000000000E+00 0.  1.
         23    2    1    2    0    0 -0.85501289860E+03  0.38618667791E+03  0.28920167842E+03  0.98592720146E+03  0.90706277725E+02 0.  0.
         11    1    3    3    0    0 -0.40970060646E+03  0.17574474825E+03  0.18400769238E+03  0.48228584297E+03  0.00000000000E+00 0. -1.
        -11    1    3    3    0    0 -0.44531229213E+03  0.21044192966E+03  0.10519398604E+03  0.50364135849E+03  0.00000000000E+00 0.  1.
         22    1    1    2    0    0  0.85501289860E+03 -0.38618667791E+03 -0.45658106944E+03  0.10433855855E+04  0.00000000000E+00 0.  1.
<mgrwt>
<rscale>  0 0.20223982E+04</rscale>
<asrwt>0</asrwt>
<pdfrwt beam="1">  1        1 0.14322565E+00 0.20223982E+04</pdfrwt>
<pdfrwt beam="2">  1       -1 0.16897632E+00 0.20223982E+04</pdfrwt>
<totfact> 0.39802034E+00</totfact>
</mgrwt>
</event>
<event>
 6    1  0.1762360E-005  0.2708103E+04  0.7818608E-02  0.8332381E-01
          2   -1    0    0  501    0  0.00000000000E+00  0.00000000000E+00  0.12691942113E+04  0.12691942113E+04  0.00000000000E+00 0. -1.
         -2   -1    0    0    0  501 -0.00000000000E+00 -0.00000000000E+00 -0.14445824291E+04  0.14445824291E+04  0.00000000000E+00 0.  1.
         23    2    1    2    0    0 -0.13119350605E+04  0.18787705312E+03 -0.35825803630E+03  0.13759004277E+04  0.91004266317E+02 0.  0.
         11    1    3    3    0    0 -0.29127317232E+03  0.39491242164E+02 -0.40789476828E+02  0.29675478183E+03  0.00000000000E+00 0. -1.
        -11    1    3    3    0    0 -0.10206618881E+04  0.14838581096E+03 -0.31746855948E+03  0.10791456459E+04  0.00000000000E+00 0.  1.
         22    1    1    2    0    0  0.13119350605E+04 -0.18787705312E+03  0.18286981846E+03  0.13378762127E+04  0.00000000000E+00 0. -1.
<mgrwt>
<rscale>  0 0.27081031E+04</rscale>
<asrwt>0</asrwt>
<pdfrwt beam="1">  1        2 0.19526065E+00 0.27081031E+04</pdfrwt>
<pdfrwt beam="2">  1       -2 0.22224345E+00 0.27081031E+04</pdfrwt>
<totfact> 0.14452288E+00</totfact>
</mgrwt>
</event>
<event>
 6    1  0.1762360E-005  0.9945838E+03  0.7818608E-02  0.9314505E-01
         -1   -1    0    0    0  501 -0.00000000000E+00  0.00000000000E+00  0.23906264036E+03  0.23906264036E+03  0.00000000000E+00 0.  1.
          1   -1    0    0  501    0  0.00000000000E+00 -0.00000000000E+00 -0.10344536328E+04  0.10344536328E+04  0.00000000000E+00 0. -1.
         23    2    1    2    0    0 -0.45592597156E+03  0.14004266847E+03 -0.23979951225E+03  0.54128520759E+03  0.89473064945E+02 0.  0.
         11    1    3    3    0    0 -0.33341332141E+03  0.60522883449E+02 -0.15807873533E+03  0.37392024400E+03  0.00000000000E+00 0. -1.
        -11    1    3    3    0    0 -0.12251265015E+03  0.79519785020E+02 -0.81720776919E+02  0.16736496359E+03  0.00000000000E+00 0.  1.
         22    1    1    2    0    0  0.45592597156E+03 -0.14004266847E+03 -0.55559148021E+03  0.73223106559E+03  0.00000000000E+00 0. -1.
<mgrwt>
<rscale>  0 0.99458377E+03</rscale>
<asrwt>0</asrwt>
<pdfrwt beam="1">  1        1 0.15914671E+00 0.99458377E+03</pdfrwt>
<pdfrwt beam="2">  1       -1 0.36778869E-01 0.99458377E+03</pdfrwt>
<totfact> 0.10114103E+02</totfact>
</mgrwt>
</event>
<event>
 6    1  0.1762360E-005  0.3543514E+04  0.7818608E-02  0.8103555E-01
         -2   -1    0    0    0  501 -0.00000000000E+00  0.00000000000E+00  0.17619268500E+04  0.17619268500E+04  0.00000000000E+00 0. -1.
          2   -1    0    0  501    0  0.00000000000E+00 -0.00000000000E+00 -0.17816416260E+04  0.17816416260E+04  0.00000000000E+00 0.  1.
         23    2    1    2    0    0 -0.96444395595E+02 -0.14534467110E+04  0.99672112320E+03  0.17673503586E+04  0.90914407117E+02 0.  0.
         13    1    3    3    0    0  0.55160661984E+01 -0.55274572248E+03  0.39349601480E+03  0.67852588334E+03  0.00000000000E+00 0. -1.
        -13    1    3    3    0    0 -0.10196046179E+03 -0.90070098854E+03  0.60322510840E+03  0.10888244753E+04  0.00000000000E+00 0.  1.
         22    1    1    2    0    0  0.96444395595E+02  0.14534467110E+04 -0.10164358992E+04  0.17762181174E+04  0.00000000000E+00 0.  1.
<mgrwt>
<rscale>  0 0.35435136E+04</rscale>
<asrwt>0</asrwt>
<pdfrwt beam="1">  1        2 0.27409871E+00 0.35435136E+04</pdfrwt>
<pdfrwt beam="2">  1       -2 0.27106567E+00 0.35435136E+04</pdfrwt>
<totfact> 0.34535669E-01</totfact>
</mgrwt>
</event>
<event>
 6    1  0.1762360E-005  0.1901109E+04  0.7818608E-02  0.8654305E-01
          2   -1    0    0  501    0  0.00000000000E+00  0.00000000000E+00  0.11688716697E+04  0.11688716697E+04  0.00000000000E+00 0. -1.
         -2   -1    0    0    0  501 -0.00000000000E+00 -0.00000000000E+00 -0.77301340265E+03  0.77301340265E+03  0.00000000000E+00 0.  1.
         23    2    1    2    0    0 -0.68743976834E+03 -0.87837676690E+02 -0.46274116122E+03  0.83848946298E+03  0.92985508032E+02 0.  0.
         11    1    3    3    0    0 -0.37927800101E+03 -0.60057396475E+01 -0.27446793646E+03  0.46820990923E+03  0.00000000000E+00 0.  1.
        -11    1    3    3    0    0 -0.30816176733E+03 -0.81831937042E+02 -0.18827322476E+03  0.37027955375E+03  0.00000000000E+00 0. -1.
         22    1    1    2    0    0  0.68743976834E+03  0.87837676690E+02  0.85859942824E+03  0.11033956093E+04  0.00000000000E+00 0. -1.
<mgrwt>
<rscale>  0 0.19011086E+04</rscale>
<asrwt>0</asrwt>
<pdfrwt beam="1">  1        2 0.17982641E+00 0.19011086E+04</pdfrwt>
<pdfrwt beam="2">  1       -2 0.11892514E+00 0.19011086E+04</pdfrwt>
<totfact> 0.10057439E+01</totfact>
</mgrwt>
</event>
<event>
 6    1  0.1762360E-005  0.1893394E+04  0.7818608E-02  0.8658152E-01
          1   -1    0    0  501    0  0.00000000000E+00  0.00000000000E+00  0.22091328094E+04  0.22091328094E+04  0.00000000000E+00 0. -1.
         -1   -1    0    0    0  501 -0.00000000000E+00 -0.00000000000E+00 -0.40569549639E+03  0.40569549639E+03  0.00000000000E+00 0.  1.
         23    2    1    2    0    0 -0.86821874879E+03  0.93193429847E+02  0.14013613443E+04  0.16534990720E+04  0.88072429312E+02 0.  0.
         13    1    3    3    0    0 -0.44068496516E+03  0.43956069495E+01  0.68335011128E+03  0.81313586470E+03  0.00000000000E+00 0. -1.
        -13    1    3    3    0    0 -0.42753378363E+03  0.88797822897E+02  0.71801123298E+03  0.84036320730E+03  0.00000000000E+00 0.  1.
         22    1    1    2    0    0  0.86821874879E+03 -0.93193429847E+02  0.40207596877E+03  0.96132923381E+03  0.00000000000E+00 0.  1.
<mgrwt>
<rscale>  0 0.18933940E+04</rscale>
<asrwt>0</asrwt>
<pdfrwt beam="1">  1        1 0.33986658E+00 0.18933940E+04</pdfrwt>
<pdfrwt beam="2">  1       -1 0.62414693E-01 0.18933940E+04</pdfrwt>
<totfact> 0.52355432E+00</totfact>
</mgrwt>
</event>
<event>
 6    1  0.1762360E-005  0.2548692E+04  0.7818608E-02  0.8385841E-01
         -1   -1    0    0    0  501 -0.00000000000E+00  0.00000000000E+00  0.93449341567E+03  0.93449341567E+03  0.00000000000E+00 0.  1.
          1   -1    0    0  501    0  0.00000000000E+00 -0.00000000000E+00 -0.17377943246E+04  0.17377943246E+04  0.00000000000E+00 0. -1.
         23    2    1    2    0    0 -0.13935269342E+02 -0.55471105368E+03 -0.16030513439E+04  0.16988919815E+04  0.92530042085E+02 0.  0.
         11    1    3    3    0    0 -0.38492367982E+02 -0.14585343367E+03 -0.36902874874E+03  0.39866916598E+03  0.00000000000E+00 0. -1.
        -11    1    3    3    0    0  0.24557098640E+02 -0.40885762001E+03 -0.12340225952E+04  0.13002228155E+04  0.00000000000E+00 0.  1.
         22    1    1    2    0    0  0.13935269342E+02  0.55471105368E+03  0.79975043504E+03  0.97339575875E+03  0.00000000000E+00 0.  1.
<mgrwt>
<rscale>  0 0.25486917E+04</rscale>
<asrwt>0</asrwt>
<pdfrwt beam="1">  1        1 0.26735297E+00 0.25486917E+04</pdfrwt>
<pdfrwt beam="2">  1       -1 0.14376822E+00 0.25486917E+04</pdfrwt>
<totfact> 0.15528460E+00</totfact>
</mgrwt>
</event>
<event>
 6    1  0.1762360E-005  0.6226558E+03  0.7818608E-02  0.9859486E-01
         -2   -1    0    0    0  501 -0.00000000000E+00  0.00000000000E+00  0.11714125939E+03  0.11714125939E+03  0.00000000000E+00 0.  1.
          2   -1    0    0  501    0  0.00000000000E+00 -0.00000000000E+00 -0.82742040235E+03  0.82742040235E+03  0.00000000000E+00 0. -1.
         23    2    1    2    0    0  0.30614420017E+02  0.19676623433E+03 -0.13280779163E+02  0.21967483413E+03  0.91795751373E+02 0.  0.
         13    1    3    3    0    0  0.47555705592E+02  0.11124886289E+03  0.26488954529E+02  0.12385281322E+03  0.00000000000E+00 0.  1.
        -13    1    3    3    0    0 -0.16941285575E+02  0.85517371439E+02 -0.39769733693E+02  0.95822020918E+02  0.00000000000E+00 0. -1.
         22    1    1    2    0    0 -0.30614420017E+02 -0.19676623433E+03 -0.69699836380E+03  0.72488682760E+03  0.00000000000E+00 0. -1.
<mgrwt>
<rscale>  0 0.62265582E+03</rscale>
<asrwt>0</asrwt>
<pdfrwt beam="1">  1        2 0.12729545E+00 0.62265582E+03</pdfrwt>
<pdfrwt beam="2">  1       -2 0.18021732E-01 0.62265582E+03</pdfrwt>
<totfact> 0.84744205E+02</totfact>
</mgrwt>
</event>
<event>
 6    1  0.1762360E-005  0.1990566E+04  0.7818608E-02  0.8611044E-01
         -2   -1    0    0    0  501 -0.00000000000E+00  0.00000000000E+00  0.24338075057E+03  0.24338075057E+03  0.00000000000E+00 0.  1.
          2   -1    0    0  501    0  0.00000000000E+00 -0.00000000000E+00 -0.40701190678E+04  0.40701190678E+04  0.00000000000E+00 0. -1.
         23    2    1    2    0    0 -0.45057147340E+03  0.98391671784E+02 -0.38235179572E+04  0.38522992715E+04  0.90689218729E+02 0.  0.
         11    1    3    3    0    0 -0.39553935031E+03  0.11073305455E+03 -0.32044531537E+04  0.32306707046E+04  0.00000000000E+00 0. -1.
        -11    1    3    3    0    0 -0.55032123091E+02 -0.12341382764E+02 -0.61906480350E+03  0.62162856694E+03  0.00000000000E+00 0.  1.
         22    1    1    2    0    0  0.45057147340E+03 -0.98391671784E+02 -0.32203600327E+01  0.46120054688E+03  0.00000000000E+00 0.  1.
<mgrwt>
<rscale>  0 0.19905664E+04</rscale>
<asrwt>0</asrwt>
<pdfrwt beam="1">  1        2 0.62617211E+00 0.19905664E+04</pdfrwt>
<pdfrwt beam="2">  1       -2 0.37443196E-01 0.19905664E+04</pdfrwt>
<totfact> 0.18962392E+00</totfact>
</mgrwt>
</event>
<event>
 6    1  0.1762360E-005  0.9075027E+03  0.7818608E-02  0.9416251E-01
         -1   -1    0    0    0  501 -0.00000000000E+00  0.00000000000E+00  0.25904693003E+03  0.25904693003E+03  0.00000000000E+00 0.  1.
          1   -1    0    0  501    0  0.00000000000E+00 -0.00000000000E+00 -0.79479909901E+03  0.79479909901E+03  0.00000000000E+00 0. -1.
         23    2    1    2    0    0  0.37151534968E+03  0.59728713146E+02 -0.55580736850E+03  0.67702593238E+03  0.88606478375E+02 0.  0.
         11    1    3    3    0    0  0.70052896030E+02  0.31881417914E+02 -0.66922315837E+02  0.10199230073E+03  0.00000000000E+00 0.  1.
        -11    1    3    3    0    0  0.30146245365E+03  0.27847295232E+02 -0.48888505266E+03  0.57503363165E+03  0.00000000000E+00 0. -1.
         22    1    1    2    0    0 -0.37151534968E+03 -0.59728713146E+02  0.20055199519E+02  0.37682009667E+03  0.00000000000E+00 0.  1.
<mgrwt>
<rscale>  0 0.90750265E+03</rscale>
<asrwt>0</asrwt>
<pdfrwt beam="1">  1        1 0.12227678E+00 0.90750265E+03</pdfrwt>
<pdfrwt beam="2">  1       -1 0.39853375E-01 0.90750265E+03</pdfrwt>
<totfact> 0.13788028E+02</totfact>
</mgrwt>
</event>
<event>
 6    1  0.1762360E-005  0.5413148E+04  0.7818608E-02  0.7767754E-01
         -2   -1    0    0    0  501 -0.00000000000E+00  0.00000000000E+00  0.22762571553E+04  0.22762571553E+04  0.00000000000E+00 0.  1.
          2   -1    0    0  501    0  0.00000000000E+00 -0.00000000000E+00 -0.32182403050E+04  0.32182403050E+04  0.00000000000E+00 0. -1.
         23    2    1    2    0    0 -0.29933106567E+03  0.25859226431E+04 -0.12200028319E+04  0.28765039640E+04  0.96297153673E+02 0.  0.
         13    1    3    3    0    0 -0.64285076050E+02  0.89638455285E+03 -0.44711350097E+03  0.10037670648E+04  0.00000000000E+00 0. -1.
        -13    1    3    3    0    0 -0.23504598962E+03  0.16895380903E+04 -0.77288933094E+03  0.18727368992E+04  0.00000000000E+00 0.  1.
         22    1    1    2    0    0  0.29933106567E+03 -0.25859226431E+04  0.27801968230E+03  0.26179934963E+04  0.00000000000E+00 0. -1.
<mgrwt>
<rscale>  0 0.54131479E+04</rscale>
<asrwt>0</asrwt>
<pdfrwt beam="1">  1        2 0.49511389E+00 0.54131479E+04</pdfrwt>
<pdfrwt beam="2">  1       -2 0.35019341E+00 0.54131479E+04</pdfrwt>
<totfact> 0.13779486E-02</totfact>
</mgrwt>
</event>
<event>
 6    1  0.2447871E-005  0.3391062E+04  0.7818608E-02  0.8140104E-01
          2   -1    0    0  501    0  0.00000000000E+00  0.00000000000E+00  0.15647806805E+04  0.15647806805E+04  0.00000000000E+00 0. -1.
         -2   -1    0    0    0  501 -0.00000000000E+00 -0.00000000000E+00 -0.18372062017E+04  0.18372062017E+04  0.00000000000E+00 0.  1.
         23    2    1    2    0    0 -0.71560803925E+03  0.54787961300E+03  0.13030015844E+04  0.15869834384E+04  0.91849705508E+02 0.  0.
         11    1    3    3    0    0 -0.45366149223E+03  0.35479612195E+03  0.75412961430E+03  0.94889436338E+03  0.00000000000E+00 0. -1.
        -11    1    3    3    0    0 -0.26194654703E+03  0.19308349105E+03  0.54887197013E+03  0.63808907498E+03  0.00000000000E+00 0.  1.
         22    1    1    2    0    0  0.71560803925E+03 -0.54787961300E+03 -0.15754271056E+04  0.18150034439E+04  0.00000000000E+00 0.  1.
<mgrwt>
<rscale>  0 0.33910616E+04</rscale>
<asrwt>0</asrwt>
<pdfrwt beam="1">  1        2 0.24073549E+00 0.33910616E+04</pdfrwt>
<pdfrwt beam="2">  1       -2 0.28264711E+00 0.33910616E+04</pdfrwt>
<totfact> 0.39257325E-01</totfact>
</mgrwt>
</event>
<event>
 6    1  0.1762360E-005  0.4064720E+04  0.7818608E-02  0.7991616E-01
          2   -1    0    0  501    0  0.00000000000E+00  0.00000000000E+00  0.32283760584E+04  0.32283760584E+04  0.00000000000E+00 0.  1.
         -2   -1    0    0    0  501 -0.00000000000E+00 -0.00000000000E+00 -0.12794318836E+04  0.12794318836E+04  0.00000000000E+00 0. -1.
         23    2    1    2    0    0  0.40859436708E+03  0.11667671307E+04  0.27624810152E+04  0.30278967674E+04  0.92534212866E+02 0.  0.
         11    1    3    3    0    0  0.38188536156E+03  0.10140552308E+04  0.23728186742E+04  0.26085269600E+04  0.00000000000E+00 0. -1.
        -11    1    3    3    0    0  0.26709005525E+02  0.15271189990E+03  0.38966234101E+03  0.41936980739E+03  0.00000000000E+00 0.  1.
         22    1    1    2    0    0 -0.40859436708E+03 -0.11667671307E+04 -0.81353684042E+03  0.14799111747E+04  0.00000000000E+00 0. -1.
<mgrwt>
<rscale>  0 0.40647200E+04</rscale>
<asrwt>0</asrwt>
<pdfrwt beam="1">  1        2 0.49667323E+00 0.40647200E+04</pdfrwt>
<pdfrwt beam="2">  1       -2 0.19683568E+00 0.40647200E+04</pdfrwt>
<totfact> 0.13591779E-01</totfact>
</mgrwt>
</event>
<event>
 6    1  0.1762360E-005  0.2664558E+04  0.7818608E-02  0.8346597E-01
          2   -1    0    0  501    0  0.00000000000E+00  0.00000000000E+00  0.27741959600E+04  0.27741959600E+04  0.00000000000E+00 0. -1.
         -2   -1    0    0    0  501 -0.00000000000E+00 -0.00000000000E+00 -0.63981321603E+03  0.63981321603E+03  0.00000000000E+00 0.  1.
         23    2    1    2    0    0 -0.23557532159E+03  0.12668839660E+04  0.14939114026E+04  0.19750184691E+04  0.91847477421E+02 0.  0.
         13    1    3    3    0    0 -0.12095351463E+03  0.47434343341E+03  0.52009183476E+03  0.71423172858E+03  0.00000000000E+00 0.  1.
        -13    1    3    3    0    0 -0.11462180696E+03  0.79254053257E+03  0.97381956789E+03  0.12607867406E+04  0.00000000000E+00 0. -1.
         22    1    1    2    0    0  0.23557532159E+03 -0.12668839660E+04  0.64047134129E+03  0.14389907069E+04  0.00000000000E+00 0.  1.
<mgrwt>
<rscale>  0 0.26645579E+04</rscale>
<asrwt>0</asrwt>
<pdfrwt beam="1">  1        2 0.42679937E+00 0.26645579E+04</pdfrwt>
<pdfrwt beam="2">  1       -2 0.98432804E-01 0.26645579E+04</pdfrwt>
<totfact> 0.18078180E+00</totfact>
</mgrwt>
</event>
<event>
 6    1  0.1762360E-005  0.1551598E+04  0.7818608E-02  0.8850848E-01
         -1   -1    0    0    0  501 -0.00000000000E+00  0.00000000000E+00  0.63403426779E+03  0.63403426779E+03  0.00000000000E+00 0.  1.
          1   -1    0    0  501    0  0.00000000000E+00 -0.00000000000E+00 -0.94926080370E+03  0.94926080370E+03  0.00000000000E+00 0. -1.
         23    2    1    2    0    0 -0.55873451389E+03 -0.27327189795E+03 -0.62662172905E+03  0.88771707188E+03  0.92331041209E+02 0.  0.
         11    1    3    3    0    0 -0.17539867588E+03 -0.12809237597E+03 -0.18650627311E+03  0.28628122920E+03  0.00000000000E+00 0.  1.
        -11    1    3    3    0    0 -0.38333583801E+03 -0.14517952197E+03 -0.44011545593E+03  0.60143584268E+03  0.00000000000E+00 0. -1.
         22    1    1    2    0    0  0.55873451389E+03  0.27327189795E+03  0.31139519314E+03  0.69557799960E+03  0.00000000000E+00 0.  1.
<mgrwt>
<rscale>  0 0.15515977E+04</rscale>
<asrwt>0</asrwt>
<pdfrwt beam="1">  1        1 0.14604012E+00 0.15515977E+04</pdfrwt>
<pdfrwt beam="2">  1       -1 0.97543734E-01 0.15515977E+04</pdfrwt>
<totfact> 0.16132310E+01</totfact>
</mgrwt>
</event>
<event>
 6    1  0.1762360E-005  0.1359045E+04  0.7818608E-02  0.8984009E-01
          2   -1    0    0  501    0  0.00000000000E+00  0.00000000000E+00  0.99532010714E+03  0.99532010714E+03  0.00000000000E+00 0. -1.
         -2   -1    0    0    0  501 -0.00000000000E+00 -0.00000000000E+00 -0.46392220978E+03  0.46392220978E+03  0.00000000000E+00 0.  1.
         23    2    1    2    0    0 -0.22994145562E+03  0.51008798785E+03  0.67509266129E+03  0.88156505968E+03  0.91345633475E+02 0.  0.
         13    1    3    3    0    0 -0.25197558833E+02  0.42095375373E+02  0.10622952771E+03  0.11701132491E+03  0.00000000000E+00 0. -1.
        -13    1    3    3    0    0 -0.20474389678E+03  0.46799261247E+03  0.56886313358E+03  0.76455373477E+03  0.00000000000E+00 0.  1.
         22    1    1    2    0    0  0.22994145562E+03 -0.51008798785E+03 -0.14369476393E+03  0.57767725724E+03  0.00000000000E+00 0.  1.
<mgrwt>
<rscale>  0 0.13590454E+04</rscale>
<asrwt>0</asrwt>
<pdfrwt beam="1">  1        2 0.15312617E+00 0.13590454E+04</pdfrwt>
<pdfrwt beam="2">  1       -2 0.71372648E-01 0.13590454E+04</pdfrwt>
<totfact> 0.44118774E+01</totfact>
</mgrwt>
</event>
<event>
 6    1  0.1762360E-005  0.3053557E+04  0.7818608E-02  0.8228601E-01
          1   -1    0    0  501    0  0.00000000000E+00  0.00000000000E+00  0.15159748520E+04  0.15159748520E+04  0.00000000000E+00 0. -1.
         -1   -1    0    0    0  501 -0.00000000000E+00 -0.00000000000E+00 -0.15376591480E+04  0.15376591480E+04  0.00000000000E+00 0.  1.
         23    2    1    2    0    0  0.28513812569E+03  0.14469050925E+04  0.37898249012E+03  0.15254416132E+04  0.92229550643E+02 0.  0.
         13    1    3    3    0    0  0.26669128201E+03  0.12489900362E+04  0.30264716404E+03  0.13125150118E+04  0.00000000000E+00 0. -1.
        -13    1    3    3    0    0  0.18446843682E+02  0.19791505638E+03  0.76335326081E+02  0.21292660142E+03  0.00000000000E+00 0.  1.
         22    1    1    2    0    0 -0.28513812569E+03 -0.14469050925E+04 -0.40066678617E+03  0.15281923868E+04  0.00000000000E+00 0. -1.
<mgrwt>
<rscale>  0 0.30535570E+04</rscale>
<asrwt>0</asrwt>
<pdfrwt beam="1">  1        1 0.23322690E+00 0.30535570E+04</pdfrwt>
<pdfrwt beam="2">  1       -1 0.23656295E+00 0.30535570E+04</pdfrwt>
<totfact> 0.46143456E-01</totfact>
</mgrwt>
</event>
<event>
 6    1  0.1762360E-005  0.2608462E+04  0.7818608E-02  0.8365332E-01
          1   -1    0    0  501    0  0.00000000000E+00  0.00000000000E+00  0.18789312523E+04  0.18789312523E+04  0.00000000000E+00 0. -1.
         -1   -1    0    0    0  501 -0.00000000000E+00 -0.00000000000E+00 -0.90531187996E+03  0.90531187996E+03  0.00000000000E+00 0.  1.
         23    2    1    2    0    0 -0.10106555709E+04 -0.55629823963E+03 -0.15801194052E+03  0.11682351364E+04  0.94409460461E+02 0.  0.
         13    1    3    3    0    0 -0.94814450161E+02 -0.60093553504E+02 -0.43284640363E+02  0.12031032883E+03  0.00000000000E+00 0. -1.
        -13    1    3    3    0    0 -0.91584112072E+03 -0.49620468613E+03 -0.11472730015E+03  0.10479248076E+04  0.00000000000E+00 0.  1.
         22    1    1    2    0    0  0.10106555709E+04  0.55629823963E+03  0.11316313128E+04  0.16160079958E+04  0.00000000000E+00 0. -1.
<mgrwt>
<rscale>  0 0.26084622E+04</rscale>
<asrwt>0</asrwt>
<pdfrwt beam="1">  1        1 0.28906635E+00 0.26084622E+04</pdfrwt>
<pdfrwt beam="2">  1       -1 0.13927875E+00 0.26084622E+04</pdfrwt>
<totfact> 0.13462826E+00</totfact>
</mgrwt>
</event>
<event>
 6    1  0.1762360E-005  0.3294186E+04  0.7818608E-02  0.8164376E-01
          1   -1    0    0  501    0  0.00000000000E+00  0.00000000000E+00  0.33950861911E+04  0.33950861911E+04  0.00000000000E+00 0. -1.
         -1   -1    0    0    0  501 -0.00000000000E+00 -0.00000000000E+00 -0.79907136847E+03  0.79907136847E+03  0.00000000000E+00 0.  1.
         23    2    1    2    0    0 -0.20640403179E+03 -0.79442040852E+02  0.33754922664E+04  0.33839114565E+04  0.89415002652E+02 0.  0.
         11    1    3    3    0    0 -0.17103687791E+03 -0.94028106269E+02  0.25115312305E+04  0.25191038129E+04  0.00000000000E+00 0.  1.
        -11    1    3    3    0    0 -0.35367153877E+02  0.14586065417E+02  0.86396103592E+03  0.86480764362E+03  0.00000000000E+00 0. -1.
         22    1    1    2    0    0  0.20640403179E+03  0.79442040852E+02 -0.77947744377E+03  0.81024610307E+03  0.00000000000E+00 0.  1.
<mgrwt>
<rscale>  0 0.32941865E+04</rscale>
<asrwt>0</asrwt>
<pdfrwt beam="1">  1        1 0.52232094E+00 0.32941865E+04</pdfrwt>
<pdfrwt beam="2">  1       -1 0.12293406E+00 0.32941865E+04</pdfrwt>
<totfact> 0.14594376E-01</totfact>
</mgrwt>
</event>
<event>
 6    1  0.1762360E-005  0.8830132E+03  0.7818608E-02  0.9447068E-01
          1   -1    0    0  501    0  0.00000000000E+00  0.00000000000E+00  0.12022467611E+04  0.12022467611E+04  0.00000000000E+00 0. -1.
         -1   -1    0    0    0  501 -0.00000000000E+00 -0.00000000000E+00 -0.16213648025E+03  0.16213648025E+03  0.00000000000E+00 0.  1.
         23    2    1    2    0    0  0.42780143765E+02 -0.33865613371E+03  0.10395161592E+03  0.36793396340E+03  0.89729289405E+02 0.  0.
         11    1    3    3    0    0  0.52928197859E+02 -0.18852200939E+03  0.23260594599E+02  0.19718772126E+03  0.00000000000E+00 0.  1.
        -11    1    3    3    0    0 -0.10148054094E+02 -0.15013412432E+03  0.80691021322E+02  0.17074624215E+03  0.00000000000E+00 0. -1.
         22    1    1    2    0    0 -0.42780143765E+02  0.33865613371E+03  0.93615866495E+03  0.99644927797E+03  0.00000000000E+00 0. -1.
<mgrwt>
<rscale>  0 0.88301316E+03</rscale>
<asrwt>0</asrwt>
<pdfrwt beam="1">  1        1 0.18496103E+00 0.88301316E+03</pdfrwt>
<pdfrwt beam="2">  1       -1 0.24944075E-01 0.88301316E+03</pdfrwt>
<totfact> 0.15079390E+02</totfact>
</mgrwt>
</event>
<event>
 6    1  0.1762360E-005  0.1593862E+04  0.7818608E-02  0.8824328E-01
         -1   -1    0    0    0  501 -0.00000000000E+00  0.00000000000E+00  0.27303252036E+03  0.27303252036E+03  0.00000000000E+00 0.  1.
          1   -1    0    0  501    0  0.00000000000E+00 -0.00000000000E+00 -0.23260935481E+04  0.23260935481E+04  0.00000000000E+00 0. -1.
         23    2    1    2    0    0 -0.36979387136E+03  0.66760094402E+03 -0.13858950671E+04  0.15854451784E+04  0.10243412053E+03 0.  0.
         13    1    3    3    0    0 -0.24310941638E+03  0.52359293444E+03 -0.10055105060E+04  0.11594408682E+04  0.00000000000E+00 0. -1.
        -13    1    3    3    0    0 -0.12668445498E+03  0.14400800958E+03 -0.38038456112E+03  0.42600431019E+03  0.00000000000E+00 0.  1.
         22    1    1    2    0    0  0.36979387136E+03 -0.66760094402E+03 -0.66716596064E+03  0.10136808900E+04  0.00000000000E+00 0.  1.
<mgrwt>
<rscale>  0 0.15938622E+04</rscale>
<asrwt>0</asrwt>
<pdfrwt beam="1">  1        1 0.35786054E+00 0.15938622E+04</pdfrwt>
<pdfrwt beam="2">  1       -1 0.42005004E-01 0.15938622E+04</pdfrwt>
<totfact> 0.95571840E+00</totfact>
</mgrwt>
</event>
<event>
 6    1  0.1762360E-005  0.1287601E+04  0.7818608E-02  0.9039456E-01
          1   -1    0    0  501    0  0.00000000000E+00  0.00000000000E+00  0.87352578366E+03  0.87352578366E+03  0.00000000000E+00 0. -1.
         -1   -1    0    0    0  501 -0.00000000000E+00 -0.00000000000E+00 -0.47448948949E+03  0.47448948949E+03  0.00000000000E+00 0.  1.
         23    2    1    2    0    0  0.34580357440E+03 -0.12524660553E+03 -0.34517649790E+03  0.51788305227E+03  0.11742749621E+03 0.  0.
         13    1    3    3    0    0  0.24888320455E+03 -0.11761317752E+03 -0.18897401157E+03  0.33389652002E+03  0.00000000000E+00 0. -1.
        -13    1    3    3    0    0  0.96920369850E+02 -0.76334280090E+01 -0.15620248633E+03  0.18398653225E+03  0.00000000000E+00 0.  1.
         22    1    1    2    0    0 -0.34580357440E+03  0.12524660553E+03  0.74421279207E+03  0.83013222088E+03  0.00000000000E+00 0. -1.
<mgrwt>
<rscale>  0 0.12876006E+04</rscale>
<asrwt>0</asrwt>
<pdfrwt beam="1">  1        1 0.13438858E+00 0.12876006E+04</pdfrwt>
<pdfrwt beam="2">  1       -1 0.72998383E-01 0.12876006E+04</pdfrwt>
<totfact> 0.35614837E+01</totfact>
</mgrwt>
</event>
<event>
 6    1  0.1762360E-005  0.5237153E+04  0.7818608E-02  0.7792930E-01
          1   -1    0    0  501    0  0.00000000000E+00  0.00000000000E+00  0.49742695425E+04  0.49742695425E+04  0.00000000000E+00 0. -1.
         -1   -1    0    0    0  501 -0.00000000000E+00 -0.00000000000E+00 -0.13784822580E+04  0.13784822580E+04  0.00000000000E+00 0.  1.
         23    2    1    2    0    0  0.93875480003E+03 -0.24215892474E+04  0.14012959590E+04  0.29525830936E+04  0.93602896644E+02 0.  0.
         11    1    3    3    0    0  0.26762471735E+03 -0.67167723266E+03  0.43754228944E+03  0.84511333516E+03  0.00000000000E+00 0. -1.
        -11    1    3    3    0    0  0.67113008268E+03 -0.17499120147E+04  0.96375366954E+03  0.21074697584E+04  0.00000000000E+00 0.  1.
         22    1    1    2    0    0 -0.93875480003E+03  0.24215892474E+04  0.21944913255E+04  0.34001687069E+04  0.00000000000E+00 0. -1.
<mgrwt>
<rscale>  0 0.52371528E+04</rscale>
<asrwt>0</asrwt>
<pdfrwt beam="1">  1        1 0.76527223E+00 0.52371528E+04</pdfrwt>
<pdfrwt beam="2">  1       -1 0.21207420E+00 0.52371528E+04</pdfrwt>
<totfact> 0.81025363E-04</totfact>
</mgrwt>
</event>
<event>
 6    1  0.1762360E-005  0.2172141E+04  0.7818608E-02  0.8530114E-01
         -2   -1    0    0    0  501 -0.00000000000E+00  0.00000000000E+00  0.14195672666E+04  0.14195672666E+04  0.00000000000E+00 0.  1.
          2   -1    0    0  501    0  0.00000000000E+00 -0.00000000000E+00 -0.83092130471E+03  0.83092130471E+03  0.00000000000E+00 0. -1.
         23    2    1    2    0    0  0.10771282488E+04 -0.83991411506E+02  0.38868008688E+03  0.11517410241E+04  0.90417670046E+02 0.  0.
         13    1    3    3    0    0  0.61384235647E+03 -0.42954296604E+02  0.26845628778E+03  0.67135407099E+03  0.00000000000E+00 0.  1.
        -13    1    3    3    0    0  0.46328589230E+03 -0.41037114902E+02  0.12022379911E+03  0.48038695306E+03  0.00000000000E+00 0. -1.
         22    1    1    2    0    0 -0.10771282488E+04  0.83991411506E+02  0.19996587504E+03  0.10987475473E+04  0.00000000000E+00 0.  1.
<mgrwt>
<rscale>  0 0.21721406E+04</rscale>
<asrwt>0</asrwt>
<pdfrwt beam="1">  1        2 0.12783405E+00 0.21721406E+04</pdfrwt>
<pdfrwt beam="2">  1       -2 0.21839496E+00 0.21721406E+04</pdfrwt>
<totfact> 0.30331956E+00</totfact>
</mgrwt>
</event>
<event>
 6    1  0.1762360E-005  0.1608606E+04  0.7818608E-02  0.8815278E-01
          1   -1    0    0  501    0  0.00000000000E+00  0.00000000000E+00  0.13548961700E+04  0.13548961700E+04  0.00000000000E+00 0. -1.
         -1   -1    0    0    0  501 -0.00000000000E+00 -0.00000000000E+00 -0.47745620495E+03  0.47745620495E+03  0.00000000000E+00 0.  1.
         23    2    1    2    0    0 -0.57727932833E+03  0.20268775015E+03  0.10303736764E+04  0.12016999612E+04  0.89884018727E+02 0.  0.
         13    1    3    3    0    0 -0.51548789162E+03  0.20891093677E+03  0.93257333475E+03  0.10858473975E+04  0.00000000000E+00 0. -1.
        -13    1    3    3    0    0 -0.61791436712E+02 -0.62231866177E+01  0.97800341612E+02  0.11585256373E+03  0.00000000000E+00 0.  1.
         22    1    1    2    0    0  0.57727932833E+03 -0.20268775015E+03 -0.15293371127E+03  0.63065241379E+03  0.00000000000E+00 0.  1.
<mgrwt>
<rscale>  0 0.16086063E+04</rscale>
<asrwt>0</asrwt>
<pdfrwt beam="1">  1        1 0.20844556E+00 0.16086063E+04</pdfrwt>
<pdfrwt beam="2">  1       -1 0.73454801E-01 0.16086063E+04</pdfrwt>
<totfact> 0.14802648E+01</totfact>
</mgrwt>
</event>
<event>
 6    1  0.1762360E-005  0.2093911E+04  0.7818608E-02  0.8563930E-01
          2   -1    0    0  501    0  0.00000000000E+00  0.00000000000E+00  0.11968818222E+04  0.11968818222E+04  0.00000000000E+00 0. -1.
         -2   -1    0    0    0  501 -0.00000000000E+00 -0.00000000000E+00 -0.91580988777E+03  0.91580988777E+03  0.00000000000E+00 0.  1.
         23    2    1    2    0    0  0.10074699463E+04 -0.14767248459E+03 -0.95834508646E+02  0.10269379063E+04  0.92813549551E+02 0.  0.
         13    1    3    3    0    0  0.30364187700E+03 -0.18830628717E+01 -0.32614074646E+02  0.30539419323E+03  0.00000000000E+00 0. -1.
        -13    1    3    3    0    0  0.70382806927E+03 -0.14578942171E+03 -0.63220434001E+02  0.72154371305E+03  0.00000000000E+00 0.  1.
         22    1    1    2    0    0 -0.10074699463E+04  0.14767248459E+03  0.37690644304E+03  0.10857538037E+04  0.00000000000E+00 0.  1.
<mgrwt>
<rscale>  0 0.20939114E+04</rscale>
<asrwt>0</asrwt>
<pdfrwt beam="1">  1        2 0.18413567E+00 0.20939114E+04</pdfrwt>
<pdfrwt beam="2">  1       -2 0.14089383E+00 0.20939114E+04</pdfrwt>
<totfact> 0.61963972E+00</totfact>
</mgrwt>
</event>
<event>
 6    1  0.1762360E-005  0.9920131E+03  0.7818608E-02  0.9317348E-01
          2   -1    0    0  501    0  0.00000000000E+00  0.00000000000E+00  0.53718547710E+03  0.53718547710E+03  0.00000000000E+00 0. -1.
         -2   -1    0    0    0  501 -0.00000000000E+00 -0.00000000000E+00 -0.45798431175E+03  0.45798431175E+03  0.00000000000E+00 0.  1.
         23    2    1    2    0    0 -0.14011774354E+03 -0.39690315738E+03  0.29512784387E+03  0.52210591485E+03  0.91263594631E+02 0.  0.
         13    1    3    3    0    0 -0.11534844350E+03 -0.23876388225E+03  0.14294802790E+03  0.30124341248E+03  0.00000000000E+00 0.  1.
        -13    1    3    3    0    0 -0.24769300036E+02 -0.15813927513E+03  0.15217981598E+03  0.22086250237E+03  0.00000000000E+00 0. -1.
         22    1    1    2    0    0  0.14011774354E+03  0.39690315738E+03 -0.21592667853E+03  0.47306387401E+03  0.00000000000E+00 0.  1.
<mgrwt>
<rscale>  0 0.99201315E+03</rscale>
<asrwt>0</asrwt>
<pdfrwt beam="1">  1        2 0.82643920E-01 0.99201315E+03</pdfrwt>
<pdfrwt beam="2">  1       -2 0.70459125E-01 0.99201315E+03</pdfrwt>
<totfact> 0.10369694E+02</totfact>
</mgrwt>
</event>
<event>
 6    1  0.1762360E-005  0.2442419E+04  0.7818608E-02  0.8423791E-01
         -2   -1    0    0    0  501 -0.00000000000E+00  0.00000000000E+00  0.10091620912E+04  0.10091620912E+04  0.00000000000E+00 0. -1.
          2   -1    0    0  501    0  0.00000000000E+00 -0.00000000000E+00 -0.14778130695E+04  0.14778130695E+04  0.00000000000E+00 0.  1.
         23    2    1    2    0    0  0.89508853829E+03 -0.82816044115E+03 -0.21855538953E+03  0.12421534822E+04  0.90253018776E+02 0.  0.
         13    1    3    3    0    0  0.35291835649E+03 -0.36837599469E+03 -0.12409159567E+03  0.52502472697E+03  0.00000000000E+00 0. -1.
        -13    1    3    3    0    0  0.54217018180E+03 -0.45978444647E+03 -0.94463793863E+02  0.71712875524E+03  0.00000000000E+00 0.  1.
         22    1    1    2    0    0 -0.89508853829E+03  0.82816044115E+03 -0.25009558870E+03  0.12448216785E+04  0.00000000000E+00 0.  1.
<mgrwt>
<rscale>  0 0.24424192E+04</rscale>
<asrwt>0</asrwt>
<pdfrwt beam="1">  1        2 0.22735586E+00 0.24424192E+04</pdfrwt>
<pdfrwt beam="2">  1       -2 0.15525571E+00 0.24424192E+04</pdfrwt>
<totfact> 0.32006366E+00</totfact>
</mgrwt>
</event>
<event>
 6    1  0.1762360E-005  0.4395549E+04  0.7818608E-02  0.7929183E-01
          1   -1    0    0  501    0  0.00000000000E+00  0.00000000000E+00  0.49217304523E+04  0.49217304523E+04  0.00000000000E+00 0. -1.
         -1   -1    0    0    0  501 -0.00000000000E+00 -0.00000000000E+00 -0.98140546633E+03  0.98140546633E+03  0.00000000000E+00 0.  1.
         23    2    1    2    0    0  0.14212711403E+04  0.25361781652E+03  0.41947440312E+04  0.44371677397E+04  0.90809756327E+02 0.  0.
         13    1    3    3    0    0  0.27986461619E+03  0.16124549917E+02  0.85475961580E+03  0.89955444822E+03  0.00000000000E+00 0. -1.
        -13    1    3    3    0    0  0.11414065241E+04  0.23749326661E+03  0.33399844154E+04  0.35376132915E+04  0.00000000000E+00 0.  1.
         22    1    1    2    0    0 -0.14212711403E+04 -0.25361781652E+03 -0.25441904522E+03  0.14659681789E+04  0.00000000000E+00 0.  1.
<mgrwt>
<rscale>  0 0.43955492E+04</rscale>
<asrwt>0</asrwt>
<pdfrwt beam="1">  1        1 0.75718929E+00 0.43955492E+04</pdfrwt>
<pdfrwt beam="2">  1       -1 0.15098546E+00 0.43955492E+04</pdfrwt>
<totfact> 0.27852293E-03</totfact>
</mgrwt>
</event>
<event>
 6    1  0.1762360E-005  0.2104592E+04  0.7818608E-02  0.8559223E-01
         -1   -1    0    0    0  501 -0.00000000000E+00  0.00000000000E+00  0.90385312060E+03  0.90385312060E+03  0.00000000000E+00 0.  1.
          1   -1    0    0  501    0  0.00000000000E+00 -0.00000000000E+00 -0.12251183120E+04  0.12251183120E+04  0.00000000000E+00 0. -1.
         23    2    1    2    0    0 -0.99431154771E+03 -0.21068422052E+03  0.11033830189E+03  0.10247409901E+04  0.69830231605E+02 0.  0.
         11    1    3    3    0    0 -0.45808361386E+03 -0.61727167235E+02  0.46354093981E+02  0.46454229355E+03  0.00000000000E+00 0.  1.
        -11    1    3    3    0    0 -0.53622793385E+03 -0.14895705328E+03  0.63984207909E+02  0.56019869656E+03  0.00000000000E+00 0. -1.
         22    1    1    2    0    0  0.99431154771E+03  0.21068422052E+03 -0.43160349329E+03  0.11042304425E+04  0.00000000000E+00 0. -1.
<mgrwt>
<rscale>  0 0.21045921E+04</rscale>
<asrwt>0</asrwt>
<pdfrwt beam="1">  1        1 0.18847974E+00 0.21045921E+04</pdfrwt>
<pdfrwt beam="2">  1       -1 0.13905433E+00 0.21045921E+04</pdfrwt>
<totfact> 0.40183214E+00</totfact>
</mgrwt>
</event>
<event>
 6    1  0.1762360E-005  0.2239709E+04  0.7818608E-02  0.8502080E-01
         -1   -1    0    0    0  501 -0.00000000000E+00  0.00000000000E+00  0.40016154694E+03  0.40016154694E+03  0.00000000000E+00 0.  1.
          1   -1    0    0  501    0  0.00000000000E+00 -0.00000000000E+00 -0.31339185495E+04  0.31339185495E+04  0.00000000000E+00 0. -1.
         23    2    1    2    0    0  0.27540303146E+03  0.91867817863E+03 -0.22757497755E+04  0.24712597703E+04  0.90947160043E+02 0.  0.
         13    1    3    3    0    0  0.20197223225E+03  0.59766423141E+03 -0.13973223901E+04  0.15331357337E+04  0.00000000000E+00 0. -1.
        -13    1    3    3    0    0  0.73430799213E+02  0.32101394723E+03 -0.87842738535E+03  0.93812403653E+03  0.00000000000E+00 0.  1.
         22    1    1    2    0    0 -0.27540303146E+03 -0.91867817863E+03 -0.45800722706E+03  0.10628203261E+04  0.00000000000E+00 0.  1.
<mgrwt>
<rscale>  0 0.22397086E+04</rscale>
<asrwt>0</asrwt>
<pdfrwt beam="1">  1        1 0.48214133E+00 0.22397086E+04</pdfrwt>
<pdfrwt beam="2">  1       -1 0.61563313E-01 0.22397086E+04</pdfrwt>
<totfact> 0.11592855E+00</totfact>
</mgrwt>
</event>
<event>
 6    1  0.1762360E-005  0.3354825E+04  0.7818608E-02  0.8149084E-01
         -2   -1    0    0    0  501 -0.00000000000E+00  0.00000000000E+00  0.16403522459E+04  0.16403522459E+04  0.00000000000E+00 0.  1.
          2   -1    0    0  501    0  0.00000000000E+00 -0.00000000000E+00 -0.17153098142E+04  0.17153098142E+04  0.00000000000E+00 0. -1.
         23    2    1    2    0    0  0.11024627791E+04 -0.41876214955E+03 -0.12284760871E+04  0.17059981882E+04  0.10242267440E+03 0.  0.
         11    1    3    3    0    0  0.94119183698E+03 -0.38352974457E+03 -0.10923669003E+04  0.14920464416E+04  0.00000000000E+00 0. -1.
        -11    1    3    3    0    0  0.16127094210E+03 -0.35232404981E+02 -0.13610918681E+03  0.21395174657E+03  0.00000000000E+00 0.  1.
         22    1    1    2    0    0 -0.11024627791E+04  0.41876214955E+03  0.11535185188E+04  0.16496638720E+04  0.00000000000E+00 0.  1.
<mgrwt>
<rscale>  0 0.33548248E+04</rscale>
<asrwt>0</asrwt>
<pdfrwt beam="1">  1        2 0.26389382E+00 0.33548248E+04</pdfrwt>
<pdfrwt beam="2">  1       -2 0.25236188E+00 0.33548248E+04</pdfrwt>
<totfact> 0.49694700E-01</totfact>
</mgrwt>
</event>
<event>
 6    1  0.1762360E-005  0.3234659E+04  0.7818608E-02  0.8179723E-01
          2   -1    0    0  501    0  0.00000000000E+00  0.00000000000E+00  0.28026547438E+04  0.28026547438E+04  0.00000000000E+00 0. -1.
         -2   -1    0    0    0  501 -0.00000000000E+00 -0.00000000000E+00 -0.93331299235E+03  0.93331299235E+03  0.00000000000E+00 0.  1.
         23    2    1    2    0    0 -0.69043809275E+01  0.98920096955E+03  0.24111783596E+04  0.26080700730E+04  0.98398145325E+02 0.  0.
         13    1    3    3    0    0  0.30953471209E+01  0.16440624995E+03  0.31272828263E+03  0.35332417827E+03  0.00000000000E+00 0. -1.
        -13    1    3    3    0    0 -0.99997280484E+01  0.82479471960E+03  0.20984500770E+04  0.22547458947E+04  0.00000000000E+00 0.  1.
         22    1    1    2    0    0  0.69043809275E+01 -0.98920096955E+03 -0.54183660817E+03  0.11278976632E+04  0.00000000000E+00 0.  1.
<mgrwt>
<rscale>  0 0.32346586E+04</rscale>
<asrwt>0</asrwt>
<pdfrwt beam="1">  1        2 0.43117765E+00 0.32346586E+04</pdfrwt>
<pdfrwt beam="2">  1       -2 0.14358662E+00 0.32346586E+04</pdfrwt>
<totfact> 0.65006372E-01</totfact>
</mgrwt>
</event>
<event>
 6    1  0.1762360E-005  0.2892189E+04  0.7818608E-02  0.8275205E-01
         -2   -1    0    0    0  501 -0.00000000000E+00  0.00000000000E+00  0.13481037957E+04  0.13481037957E+04  0.00000000000E+00 0.  1.
          2   -1    0    0  501    0  0.00000000000E+00 -0.00000000000E+00 -0.15512075000E+04  0.15512075000E+04  0.00000000000E+00 0. -1.
         23    2    1    2    0    0  0.98040146712E+03 -0.33907318975E+02  0.96147407374E+03  0.13766234931E+04  0.91231048516E+02 0.  0.
         13    1    3    3    0    0  0.25249350035E+03  0.31146385806E+02  0.25005694441E+03  0.35672333890E+03  0.00000000000E+00 0. -1.
        -13    1    3    3    0    0  0.72790796676E+03 -0.65053704781E+02  0.71141712933E+03  0.10199001542E+04  0.00000000000E+00 0.  1.
         22    1    1    2    0    0 -0.98040146712E+03  0.33907318975E+02 -0.11645777781E+04  0.15226878026E+04  0.00000000000E+00 0. -1.
<mgrwt>
<rscale>  0 0.28921886E+04</rscale>
<asrwt>0</asrwt>
<pdfrwt beam="1">  1        2 0.23864731E+00 0.28921886E+04</pdfrwt>
<pdfrwt beam="2">  1       -2 0.20740058E+00 0.28921886E+04</pdfrwt>
<totfact> 0.12209540E+00</totfact>
</mgrwt>
</event>
<event>
 6    1  0.1762360E-005  0.3459130E+04  0.7818608E-02  0.8123545E-01
          2   -1    0    0  501    0  0.00000000000E+00  0.00000000000E+00  0.13604442066E+04  0.13604442066E+04  0.00000000000E+00 0.  1.
         -2   -1    0    0    0  501 -0.00000000000E+00 -0.00000000000E+00 -0.21988366986E+04  0.21988366986E+04  0.00000000000E+00 0. -1.
         23    2    1    2    0    0  0.93121485674E+03  0.31494629490E+02 -0.19172872115E+04  0.21337400124E+04  0.93290770215E+02 0.  0.
         13    1    3    3    0    0  0.79945742002E+03  0.12873801747E+02 -0.17054635277E+04  0.18835879978E+04  0.00000000000E+00 0. -1.
        -13    1    3    3    0    0  0.13175743671E+03  0.18620827743E+02 -0.21182368383E+03  0.25015201456E+03  0.00000000000E+00 0.  1.
         22    1    1    2    0    0 -0.93121485674E+03 -0.31494629490E+02  0.10788947195E+04  0.14255408928E+04  0.00000000000E+00 0.  1.
<mgrwt>
<rscale>  0 0.34591297E+04</rscale>
<asrwt>0</asrwt>
<pdfrwt beam="1">  1        2 0.20929911E+00 0.34591297E+04</pdfrwt>
<pdfrwt beam="2">  1       -2 0.33828257E+00 0.34591297E+04</pdfrwt>
<totfact> 0.23163798E-01</totfact>
</mgrwt>
</event>
<event>
 6    1  0.1762360E-005  0.2087039E+04  0.7818608E-02  0.8566974E-01
         -2   -1    0    0    0  501 -0.00000000000E+00  0.00000000000E+00  0.45134816171E+03  0.45134816171E+03  0.00000000000E+00 0.  1.
          2   -1    0    0  501    0  0.00000000000E+00 -0.00000000000E+00 -0.24126227051E+04  0.24126227051E+04  0.00000000000E+00 0. -1.
         23    2    1    2    0    0  0.74674828837E+03 -0.21547623432E+03 -0.27862481503E+02  0.78018939680E+03  0.62098013357E+02 0.  0.
         13    1    3    3    0    0  0.28219376066E+03 -0.56526936797E+02 -0.28369215982E+02  0.28919444246E+03  0.00000000000E+00 0.  1.
        -13    1    3    3    0    0  0.46455452771E+03 -0.15894929753E+03  0.50673447876E+00  0.49099495433E+03  0.00000000000E+00 0. -1.
         22    1    1    2    0    0 -0.74674828837E+03  0.21547623432E+03 -0.19334120619E+04  0.20837814700E+04  0.00000000000E+00 0. -1.
<mgrwt>
<rscale>  0 0.20870389E+04</rscale>
<asrwt>0</asrwt>
<pdfrwt beam="1">  1        2 0.37117272E+00 0.20870389E+04</pdfrwt>
<pdfrwt beam="2">  1       -2 0.69438180E-01 0.20870389E+04</pdfrwt>
<totfact> 0.68251259E+00</totfact>
</mgrwt>
</event>
<event>
 6    1  0.1762360E-005  0.2454575E+04  0.7818608E-02  0.8419349E-01
         -2   -1    0    0    0  501 -0.00000000000E+00  0.00000000000E+00  0.44702978763E+03  0.44702978763E+03  0.00000000000E+00 0.  1.
          2   -1    0    0  501    0  0.00000000000E+00 -0.00000000000E+00 -0.33694281836E+04  0.33694281836E+04  0.00000000000E+00 0. -1.
         23    2    1    2    0    0  0.11295010252E+04 -0.45583622964E+03 -0.12511374026E+04  0.17484462348E+04  0.90333833687E+02 0.  0.
         13    1    3    3    0    0  0.79416505408E+03 -0.34083157464E+03 -0.93825854728E+03  0.12756149093E+04  0.00000000000E+00 0. -1.
        -13    1    3    3    0    0  0.33533597112E+03 -0.11500465500E+03 -0.31287885535E+03  0.47283132545E+03  0.00000000000E+00 0.  1.
         22    1    1    2    0    0 -0.11295010252E+04  0.45583622964E+03 -0.16712609933E+04  0.20680117364E+04  0.00000000000E+00 0.  1.
<mgrwt>
<rscale>  0 0.24545751E+04</rscale>
<asrwt>0</asrwt>
<pdfrwt beam="1">  1        2 0.51837359E+00 0.24545751E+04</pdfrwt>
<pdfrwt beam="2">  1       -2 0.68773810E-01 0.24545751E+04</pdfrwt>
<totfact> 0.17319634E+00</totfact>
</mgrwt>
</event>
<event>
 6    1  0.1762360E-005  0.1158865E+04  0.7818608E-02  0.9149644E-01
         -3   -1    0    0    0  501 -0.00000000000E+00  0.00000000000E+00  0.63119309370E+03  0.63119309370E+03  0.00000000000E+00 0.  1.
          3   -1    0    0  501    0  0.00000000000E+00 -0.00000000000E+00 -0.53191627223E+03  0.53191627223E+03  0.00000000000E+00 0. -1.
         23    2    1    2    0    0  0.31007777016E+03 -0.39012625106E+03  0.33953976405E+03  0.60987072222E+03  0.91150047380E+02 0.  0.
         13    1    3    3    0    0  0.20152592180E+03 -0.20843404669E+03  0.15337030872E+03  0.32799375081E+03  0.00000000000E+00 0.  1.
        -13    1    3    3    0    0  0.10855184837E+03 -0.18169220437E+03  0.18616945533E+03  0.28187697141E+03  0.00000000000E+00 0. -1.
         22    1    1    2    0    0 -0.31007777016E+03  0.39012625106E+03 -0.24026294257E+03  0.55323864370E+03  0.00000000000E+00 0. -1.
<mgrwt>
<rscale>  0 0.11588648E+04</rscale>
<asrwt>0</asrwt>
<pdfrwt beam="1">  1        3 0.81833272E-01 0.11588648E+04</pdfrwt>
<pdfrwt beam="2">  1       -3 0.97106630E-01 0.11588648E+04</pdfrwt>
<totfact> 0.33567213E+00</totfact>
</mgrwt>
</event>
<event>
 6    1  0.1762360E-005  0.2589580E+04  0.7818608E-02  0.8371749E-01
         -1   -1    0    0    0  501 -0.00000000000E+00  0.00000000000E+00  0.11007100822E+04  0.11007100822E+04  0.00000000000E+00 0.  1.
          1   -1    0    0  501    0  0.00000000000E+00 -0.00000000000E+00 -0.15230908025E+04  0.15230908025E+04  0.00000000000E+00 0. -1.
         23    2    1    2    0    0 -0.99320470794E+03  0.88233865677E+02 -0.10458139956E+04  0.14478290076E+04  0.90780585808E+02 0.  0.
         13    1    3    3    0    0 -0.68934320286E+03  0.52758084846E+02 -0.78273940567E+03  0.10443459408E+04  0.00000000000E+00 0.  1.
        -13    1    3    3    0    0 -0.30386150507E+03  0.35475780832E+02 -0.26307458997E+03  0.40348306678E+03  0.00000000000E+00 0. -1.
         22    1    1    2    0    0  0.99320470794E+03 -0.88233865677E+02  0.62343327534E+03  0.11759718771E+04  0.00000000000E+00 0.  1.
<mgrwt>
<rscale>  0 0.25895802E+04</rscale>
<asrwt>0</asrwt>
<pdfrwt beam="1">  1        1 0.23432166E+00 0.25895802E+04</pdfrwt>
<pdfrwt beam="2">  1       -1 0.16934001E+00 0.25895802E+04</pdfrwt>
<totfact> 0.13831085E+00</totfact>
</mgrwt>
</event>
<event>
 6    1  0.1762360E-005  0.5415421E+04  0.7818608E-02  0.7767436E-01
          2   -1    0    0  501    0  0.00000000000E+00  0.00000000000E+00  0.22452800203E+04  0.22452800203E+04  0.00000000000E+00 0. -1.
         -2   -1    0    0    0  501 -0.00000000000E+00 -0.00000000000E+00 -0.32653816231E+04  0.32653816231E+04  0.00000000000E+00 0.  1.
         23    2    1    2    0    0 -0.19415356738E+04 -0.60061442166E+03  0.13093423989E+04  0.24192852812E+04  0.90913683440E+02 0.  0.
         11    1    3    3    0    0 -0.15770084134E+04 -0.52391352471E+03  0.10777612837E+04  0.19806590575E+04  0.00000000000E+00 0. -1.
        -11    1    3    3    0    0 -0.36452726046E+03 -0.76700896949E+02  0.23158111514E+03  0.43862622368E+03  0.00000000000E+00 0.  1.
         22    1    1    2    0    0  0.19415356738E+04  0.60061442166E+03 -0.23294440017E+04  0.30913763623E+04  0.00000000000E+00 0.  1.
<mgrwt>
<rscale>  0 0.54154210E+04</rscale>
<asrwt>0</asrwt>
<pdfrwt beam="1">  1        2 0.34542770E+00 0.54154210E+04</pdfrwt>
<pdfrwt beam="2">  1       -2 0.50236640E+00 0.54154210E+04</pdfrwt>
<totfact> 0.55213818E-03</totfact>
</mgrwt>
</event>
<event>
 6    1  0.1762360E-005  0.3082861E+04  0.7818608E-02  0.8220457E-01
          2   -1    0    0  501    0  0.00000000000E+00  0.00000000000E+00  0.34251667576E+04  0.34251667576E+04  0.00000000000E+00 0. -1.
         -2   -1    0    0    0  501 -0.00000000000E+00 -0.00000000000E+00 -0.69369135823E+03  0.69369135823E+03  0.00000000000E+00 0.  1.
         23    2    1    2    0    0 -0.47235736413E+03  0.10176466938E+04  0.27765400689E+04  0.29960237125E+04  0.90868359130E+02 0.  0.
         13    1    3    3    0    0 -0.30550728396E+03  0.59421263702E+03  0.17451228391E+04  0.18686564912E+04  0.00000000000E+00 0. -1.
        -13    1    3    3    0    0 -0.16685008017E+03  0.42343405678E+03  0.10314172297E+04  0.11273672212E+04  0.00000000000E+00 0.  1.
         22    1    1    2    0    0  0.47235736413E+03 -0.10176466938E+04 -0.45064669548E+02  0.11228344033E+04  0.00000000000E+00 0.  1.
<mgrwt>
<rscale>  0 0.30828614E+04</rscale>
<asrwt>0</asrwt>
<pdfrwt beam="1">  1        2 0.52694872E+00 0.30828614E+04</pdfrwt>
<pdfrwt beam="2">  1       -2 0.10672175E+00 0.30828614E+04</pdfrwt>
<totfact> 0.55012444E-01</totfact>
</mgrwt>
</event>
<event>
 6    1  0.1762360E-005  0.2506960E+04  0.7818608E-02  0.8400510E-01
         -1   -1    0    0    0  501 -0.00000000000E+00  0.00000000000E+00  0.99839904720E+03  0.99839904720E+03  0.00000000000E+00 0.  1.
          1   -1    0    0  501    0  0.00000000000E+00 -0.00000000000E+00 -0.15737318764E+04  0.15737318764E+04  0.00000000000E+00 0. -1.
         23    2    1    2    0    0  0.54045213499E+01  0.55337150891E+03  0.86404628726E+03  0.10300344686E+04  0.90253998146E+02 0.  0.
         11    1    3    3    0    0 -0.40006451961E+02  0.26362630099E+03  0.43869808514E+03  0.51337642396E+03  0.00000000000E+00 0. -1.
        -11    1    3    3    0    0  0.45410973310E+02  0.28974520792E+03  0.42534820212E+03  0.51665804461E+03  0.00000000000E+00 0.  1.
         22    1    1    2    0    0 -0.54045213499E+01 -0.55337150891E+03 -0.14393791164E+04  0.15420964550E+04  0.00000000000E+00 0. -1.
<mgrwt>
<rscale>  0 0.25069602E+04</rscale>
<asrwt>0</asrwt>
<pdfrwt beam="1">  1        1 0.24211260E+00 0.25069602E+04</pdfrwt>
<pdfrwt beam="2">  1       -1 0.15359985E+00 0.25069602E+04</pdfrwt>
<totfact> 0.16897486E+00</totfact>
</mgrwt>
</event>
<event>
 6    1  0.1762360E-005  0.1428221E+04  0.7818608E-02  0.8933640E-01
          2   -1    0    0  501    0  0.00000000000E+00  0.00000000000E+00  0.96783669872E+03  0.96783669872E+03  0.00000000000E+00 0. -1.
         -2   -1    0    0    0  501 -0.00000000000E+00 -0.00000000000E+00 -0.52690083013E+03  0.52690083013E+03  0.00000000000E+00 0.  1.
         23    2    1    2    0    0  0.62929506816E+03 -0.16541612473E+03  0.52195975790E+03  0.83903969617E+03  0.90392730636E+02 0.  0.
         11    1    3    3    0    0  0.47747703799E+03 -0.12223078437E+03  0.34333554934E+03  0.60066961459E+03  0.00000000000E+00 0.  1.
        -11    1    3    3    0    0  0.15181803017E+03 -0.43185340354E+02  0.17862420857E+03  0.23837008158E+03  0.00000000000E+00 0. -1.
         22    1    1    2    0    0 -0.62929506816E+03  0.16541612473E+03 -0.81023889318E+02  0.65569783267E+03  0.00000000000E+00 0.  1.
<mgrwt>
<rscale>  0 0.14282212E+04</rscale>
<asrwt>0</asrwt>
<pdfrwt beam="1">  1        2 0.14889795E+00 0.14282212E+04</pdfrwt>
<pdfrwt beam="2">  1       -2 0.81061667E-01 0.14282212E+04</pdfrwt>
<totfact> 0.34453796E+01</totfact>
</mgrwt>
</event>
<event>
 6    1  0.1762360E-005  0.1173340E+04  0.7818608E-02  0.9136518E-01
         -2   -1    0    0    0  501 -0.00000000000E+00  0.00000000000E+00  0.25918903018E+03  0.25918903018E+03  0.00000000000E+00 0.  1.
          2   -1    0    0  501    0  0.00000000000E+00 -0.00000000000E+00 -0.13279170243E+04  0.13279170243E+04  0.00000000000E+00 0. -1.
         23    2    1    2    0    0 -0.53604909854E+03 -0.22643947844E+03 -0.48768889732E+03  0.76477406224E+03  0.91735665202E+02 0.  0.
         13    1    3    3    0    0 -0.40943183756E+03 -0.14628948036E+03 -0.40202029647E+03  0.59216159995E+03  0.00000000000E+00 0.  1.
        -13    1    3    3    0    0 -0.12661726097E+03 -0.80149998079E+02 -0.85668600846E+02  0.17261246230E+03  0.00000000000E+00 0. -1.
         22    1    1    2    0    0  0.53604909854E+03  0.22643947844E+03 -0.58103909680E+03  0.82233199223E+03  0.00000000000E+00 0. -1.
<mgrwt>
<rscale>  0 0.11733397E+04</rscale>
<asrwt>0</asrwt>
<pdfrwt beam="1">  1        2 0.20429492E+00 0.11733397E+04</pdfrwt>
<pdfrwt beam="2">  1       -2 0.39875237E-01 0.11733397E+04</pdfrwt>
<totfact> 0.93598465E+01</totfact>
</mgrwt>
</event>
<event>
 6    1  0.1762360E-005  0.1597302E+04  0.7818608E-02  0.8822207E-01
          2   -1    0    0  501    0  0.00000000000E+00  0.00000000000E+00  0.51071306923E+03  0.51071306923E+03  0.00000000000E+00 0.  1.
         -2   -1    0    0    0  501 -0.00000000000E+00 -0.00000000000E+00 -0.12489270216E+04  0.12489270216E+04  0.00000000000E+00 0. -1.
         23    2    1    2    0    0  0.57453313192E+03 -0.55096689532E+03 -0.37762470055E+03  0.88575368636E+03  0.91139119052E+02 0.  0.
         13    1    3    3    0    0  0.35807821216E+03 -0.28137005346E+03 -0.22104158117E+03  0.50620993038E+03  0.00000000000E+00 0. -1.
        -13    1    3    3    0    0  0.21645491975E+03 -0.26959684186E+03 -0.15658311938E+03  0.37954375598E+03  0.00000000000E+00 0.  1.
         22    1    1    2    0    0 -0.57453313192E+03  0.55096689532E+03 -0.36058925183E+03  0.87388640448E+03  0.00000000000E+00 0. -1.
<mgrwt>
<rscale>  0 0.15973019E+04</rscale>
<asrwt>0</asrwt>
<pdfrwt beam="1">  1        2 0.78571242E-01 0.15973019E+04</pdfrwt>
<pdfrwt beam="2">  1       -2 0.19214262E+00 0.15973019E+04</pdfrwt>
<totfact> 0.86317302E+00</totfact>
</mgrwt>
</event>
<event>
 6    1  0.1762360E-005  0.4243154E+04  0.7818608E-02  0.7957214E-01
         -1   -1    0    0    0  501 -0.00000000000E+00  0.00000000000E+00  0.19928765535E+04  0.19928765535E+04  0.00000000000E+00 0.  1.
          1   -1    0    0  501    0  0.00000000000E+00 -0.00000000000E+00 -0.22585891059E+04  0.22585891059E+04  0.00000000000E+00 0. -1.
         23    2    1    2    0    0 -0.19933783630E+04  0.66796698637E+03  0.14501057248E+03  0.21094034105E+04  0.93901484285E+02 0.  0.
         11    1    3    3    0    0 -0.16573561860E+04  0.57018635625E+03  0.88668447528E+02  0.17549370649E+04  0.00000000000E+00 0. -1.
        -11    1    3    3    0    0 -0.33602217705E+03  0.97780630120E+02  0.56342124955E+02  0.35446634556E+03  0.00000000000E+00 0.  1.
         22    1    1    2    0    0  0.19933783630E+04 -0.66796698637E+03 -0.41072312494E+03  0.21420622490E+04  0.00000000000E+00 0. -1.
<mgrwt>
<rscale>  0 0.42431541E+04</rscale>
<asrwt>0</asrwt>
<pdfrwt beam="1">  1        1 0.34747525E+00 0.42431541E+04</pdfrwt>
<pdfrwt beam="2">  1       -1 0.30659639E+00 0.42431541E+04</pdfrwt>
<totfact> 0.45615912E-02</totfact>
</mgrwt>
</event>
<event>
 6    1  0.1762360E-005  0.5711596E+03  0.7818608E-02  0.9967116E-01
          1   -1    0    0  501    0  0.00000000000E+00  0.00000000000E+00  0.81107207814E+03  0.81107207814E+03  0.00000000000E+00 0. -1.
         -1   -1    0    0    0  501 -0.00000000000E+00 -0.00000000000E+00 -0.10055310171E+03  0.10055310171E+03  0.00000000000E+00 0.  1.
         23    2    1    2    0    0 -0.86074681853E+02  0.91319081337E+02 -0.32276215431E+02  0.15830405143E+03  0.90941701907E+02 0.  0.
         11    1    3    3    0    0 -0.63250613491E+02  0.41982939564E+02  0.24431120273E+02  0.79750153350E+02  0.00000000000E+00 0. -1.
        -11    1    3    3    0    0 -0.22824068361E+02  0.49336141773E+02 -0.56707335705E+02  0.78553898085E+02  0.00000000000E+00 0.  1.
         22    1    1    2    0    0  0.86074681853E+02 -0.91319081337E+02  0.74279519186E+03  0.75332112842E+03  0.00000000000E+00 0. -1.
<mgrwt>
<rscale>  0 0.57115957E+03</rscale>
<asrwt>0</asrwt>
<pdfrwt beam="1">  1        1 0.12478032E+00 0.57115957E+03</pdfrwt>
<pdfrwt beam="2">  1       -1 0.15469709E-01 0.57115957E+03</pdfrwt>
<totfact> 0.68392134E+02</totfact>
</mgrwt>
</event>
<event>
 6    1  0.1762360E-005  0.1894138E+04  0.7818608E-02  0.8657780E-01
         -2   -1    0    0    0  501 -0.00000000000E+00  0.00000000000E+00  0.43216277755E+03  0.43216277755E+03  0.00000000000E+00 0.  1.
          2   -1    0    0  501    0  0.00000000000E+00 -0.00000000000E+00 -0.20754683265E+04  0.20754683265E+04  0.00000000000E+00 0. -1.
         23    2    1    2    0    0  0.44595190155E+03 -0.10188281373E+02 -0.19262207995E+04  0.19794096178E+04  0.93589354063E+02 0.  0.
         11    1    3    3    0    0  0.23457837267E+03  0.40544240062E+02 -0.10453799359E+04  0.10721427417E+04  0.00000000000E+00 0. -1.
        -11    1    3    3    0    0  0.21137352888E+03 -0.50732521435E+02 -0.88084086358E+03  0.90726687606E+03  0.00000000000E+00 0.  1.
         22    1    1    2    0    0 -0.44595190155E+03  0.10188281373E+02  0.28291525051E+03  0.52822148626E+03  0.00000000000E+00 0.  1.
<mgrwt>
<rscale>  0 0.18941385E+04</rscale>
<asrwt>0</asrwt>
<pdfrwt beam="1">  1        2 0.31930282E+00 0.18941385E+04</pdfrwt>
<pdfrwt beam="2">  1       -2 0.66486582E-01 0.18941385E+04</pdfrwt>
<totfact> 0.11814468E+01</totfact>
</mgrwt>
</event>
<event>
 6    1  0.1762360E-005  0.1015569E+04  0.7818608E-02  0.9291632E-01
          2   -1    0    0  501    0  0.00000000000E+00  0.00000000000E+00  0.59289357362E+03  0.59289357362E+03  0.00000000000E+00 0. -1.
         -2   -1    0    0    0  501 -0.00000000000E+00 -0.00000000000E+00 -0.43489302474E+03  0.43489302474E+03  0.00000000000E+00 0.  1.
         23    2    1    2    0    0  0.22717195208E+03 -0.44968214517E+03  0.67916486848E+02  0.51598950406E+03  0.88382077471E+02 0.  0.
         13    1    3    3    0    0  0.84287653118E+02 -0.18181418807E+03  0.70335308808E+02  0.21238611799E+03  0.00000000000E+00 0. -1.
        -13    1    3    3    0    0  0.14288429896E+03 -0.26786795710E+03 -0.24188219601E+01  0.30360338607E+03  0.00000000000E+00 0.  1.
         22    1    1    2    0    0 -0.22717195208E+03  0.44968214517E+03  0.90084062033E+02  0.51179709429E+03  0.00000000000E+00 0.  1.
<mgrwt>
<rscale>  0 0.10155694E+04</rscale>
<asrwt>0</asrwt>
<pdfrwt beam="1">  1        2 0.91214396E-01 0.10155694E+04</pdfrwt>
<pdfrwt beam="2">  1       -2 0.66906619E-01 0.10155694E+04</pdfrwt>
<totfact> 0.10302610E+02</totfact>
</mgrwt>
</event>
<event>
 6    1  0.1762360E-005  0.2504833E+04  0.7818608E-02  0.8401266E-01
         -1   -1    0    0    0  501 -0.00000000000E+00  0.00000000000E+00  0.18223527201E+04  0.18223527201E+04  0.00000000000E+00 0.  1.
          1   -1    0    0  501    0  0.00000000000E+00 -0.00000000000E+00 -0.86072663168E+03  0.86072663168E+03  0.00000000000E+00 0. -1.
         23    2    1    2    0    0 -0.34375206400E+03 -0.12022171747E+04  0.44835485263E+03  0.13314362857E+04  0.90602937559E+02 0.  0.
         11    1    3    3    0    0 -0.88485357413E+02 -0.26141162853E+03  0.62107854061E+02  0.28288351586E+03  0.00000000000E+00 0.  1.
        -11    1    3    3    0    0 -0.25526670659E+03 -0.94080554615E+03  0.38624699857E+03  0.10485527698E+04  0.00000000000E+00 0. -1.
         22    1    1    2    0    0  0.34375206400E+03  0.12022171747E+04  0.51327123576E+03  0.13516430661E+04  0.00000000000E+00 0. -1.
<mgrwt>
<rscale>  0 0.25048333E+04</rscale>
<asrwt>0</asrwt>
<pdfrwt beam="1">  1        1 0.13241948E+00 0.25048333E+04</pdfrwt>
<pdfrwt beam="2">  1       -1 0.28036196E+00 0.25048333E+04</pdfrwt>
<totfact> 0.77110938E-01</totfact>
</mgrwt>
</event>
<event>
 6    1  0.1762360E-005  0.1746483E+04  0.7818608E-02  0.8735289E-01
          2   -1    0    0  501    0  0.00000000000E+00  0.00000000000E+00  0.31100309026E+03  0.31100309026E+03  0.00000000000E+00 0. -1.
         -2   -1    0    0    0  501 -0.00000000000E+00 -0.00000000000E+00 -0.24519065695E+04  0.24519065695E+04  0.00000000000E+00 0.  1.
         23    2    1    2    0    0  0.35530074765E+02 -0.71359498296E+03 -0.28576047903E+03  0.77493688903E+03  0.91585723169E+02 0.  0.
         11    1    3    3    0    0 -0.72394981935E+01 -0.57772543831E+03 -0.22377149861E+03  0.61959081335E+03  0.00000000000E+00 0.  1.
        -11    1    3    3    0    0  0.42769572959E+02 -0.13586954465E+03 -0.61988980422E+02  0.15534607568E+03  0.00000000000E+00 0. -1.
         22    1    1    2    0    0 -0.35530074765E+02  0.71359498296E+03 -0.18551430002E+04  0.19879727707E+04  0.00000000000E+00 0. -1.
<mgrwt>
<rscale>  0 0.17464828E+04</rscale>
<asrwt>0</asrwt>
<pdfrwt beam="1">  1        2 0.47846630E-01 0.17464828E+04</pdfrwt>
<pdfrwt beam="2">  1       -2 0.37721639E+00 0.17464828E+04</pdfrwt>
<totfact> 0.10486476E+00</totfact>
</mgrwt>
</event>
<event>
 6    1  0.1762360E-005  0.2249165E+04  0.7818608E-02  0.8498239E-01
          1   -1    0    0  501    0  0.00000000000E+00  0.00000000000E+00  0.22420091507E+04  0.22420091507E+04  0.00000000000E+00 0. -1.
         -1   -1    0    0    0  501 -0.00000000000E+00 -0.00000000000E+00 -0.56408609274E+03  0.56408609274E+03  0.00000000000E+00 0.  1.
         23    2    1    2    0    0  0.28607119575E+03  0.79826045120E+03 -0.77755969547E+02  0.85636056287E+03  0.90834717230E+02 0.  0.
         11    1    3    3    0    0  0.18628247327E+03  0.59274135993E+03 -0.88757934686E+02  0.62763162013E+03  0.00000000000E+00 0.  1.
        -11    1    3    3    0    0  0.99788722473E+02  0.20551909127E+03  0.11001965139E+02  0.22872894274E+03  0.00000000000E+00 0. -1.
         22    1    1    2    0    0 -0.28607119575E+03 -0.79826045120E+03  0.17556790275E+04  0.19497346806E+04  0.00000000000E+00 0.  1.
<mgrwt>
<rscale>  0 0.22491653E+04</rscale>
<asrwt>0</asrwt>
<pdfrwt beam="1">  1        1 0.34492448E+00 0.22491653E+04</pdfrwt>
<pdfrwt beam="2">  1       -1 0.86782477E-01 0.22491653E+04</pdfrwt>
<totfact> 0.24221948E+00</totfact>
</mgrwt>
</event>
<event>
 6    1  0.1762360E-005  0.2089384E+04  0.7818608E-02  0.8565934E-01
         -1   -1    0    0    0  501 -0.00000000000E+00  0.00000000000E+00  0.79918935113E+03  0.79918935113E+03  0.00000000000E+00 0.  1.
          1   -1    0    0  501    0  0.00000000000E+00 -0.00000000000E+00 -0.13656109484E+04  0.13656109484E+04  0.00000000000E+00 0. -1.
         23    2    1    2    0    0 -0.84281629138E+03 -0.55932630839E+03 -0.54535700953E+03  0.11530548092E+04  0.94529915114E+02 0.  0.
         11    1    3    3    0    0 -0.33827945048E+02 -0.44994039360E+02 -0.42454177729E+02  0.70506387304E+02  0.00000000000E+00 0. -1.
        -11    1    3    3    0    0 -0.80898834634E+03 -0.51433226903E+03 -0.50290283181E+03  0.10825484219E+04  0.00000000000E+00 0.  1.
         22    1    1    2    0    0  0.84281629138E+03  0.55932630839E+03 -0.21064587695E+02  0.10117454903E+04  0.00000000000E+00 0.  1.
<mgrwt>
<rscale>  0 0.20893843E+04</rscale>
<asrwt>0</asrwt>
<pdfrwt beam="1">  1        1 0.21009399E+00 0.20893843E+04</pdfrwt>
<pdfrwt beam="2">  1       -1 0.12295221E+00 0.20893843E+04</pdfrwt>
<totfact> 0.43606309E+00</totfact>
</mgrwt>
</event>
<event>
 6    1  0.1762360E-005  0.5956266E+03  0.7818608E-02  0.9914521E-01
          2   -1    0    0  501    0  0.00000000000E+00  0.00000000000E+00  0.17198582626E+04  0.17198582626E+04  0.00000000000E+00 0. -1.
         -2   -1    0    0    0  501 -0.00000000000E+00 -0.00000000000E+00 -0.51569816252E+02  0.51569816252E+02  0.00000000000E+00 0.  1.
         23    2    1    2    0    0 -0.14783245634E+02  0.18250712752E+03  0.15256980479E+04  0.15393517602E+04  0.91224516297E+02 0.  0.
         13    1    3    3    0    0 -0.33755272365E+02  0.45444925168E+02  0.68577391440E+03  0.68810647527E+03  0.00000000000E+00 0. -1.
        -13    1    3    3    0    0  0.18972026730E+02  0.13706220235E+03  0.83992413349E+03  0.85124528494E+03  0.00000000000E+00 0.  1.
         22    1    1    2    0    0  0.14783245634E+02 -0.18250712752E+03  0.14259039848E+03  0.23207631867E+03  0.00000000000E+00 0.  1.
<mgrwt>
<rscale>  0 0.59562664E+03</rscale>
<asrwt>0</asrwt>
<pdfrwt beam="1">  1        2 0.26459353E+00 0.59562664E+03</pdfrwt>
<pdfrwt beam="2">  1       -2 0.79338192E-02 0.59562664E+03</pdfrwt>
<totfact> 0.97694182E+02</totfact>
</mgrwt>
</event>
<event>
 6    1  0.1762360E-005  0.2687640E+04  0.7818608E-02  0.8339026E-01
          2   -1    0    0  501    0  0.00000000000E+00  0.00000000000E+00  0.21452708586E+04  0.21452708586E+04  0.00000000000E+00 0. -1.
         -2   -1    0    0    0  501 -0.00000000000E+00 -0.00000000000E+00 -0.84178294650E+03  0.84178294650E+03  0.00000000000E+00 0.  1.
         23    2    1    2    0    0 -0.11412070213E+04 -0.37788830439E+03 -0.11322375801E+02  0.12055153887E+04  0.89365094893E+02 0.  0.
         13    1    3    3    0    0 -0.52178417330E+03 -0.12600356227E+03 -0.59284364999E+01  0.53681539431E+03  0.00000000000E+00 0.  1.
        -13    1    3    3    0    0 -0.61942284797E+03 -0.25188474212E+03 -0.53939393012E+01  0.66869999438E+03  0.00000000000E+00 0. -1.
         22    1    1    2    0    0  0.11412070213E+04  0.37788830439E+03  0.13148102879E+04  0.17815384164E+04  0.00000000000E+00 0. -1.
<mgrwt>
<rscale>  0 0.26876402E+04</rscale>
<asrwt>0</asrwt>
<pdfrwt beam="1">  1        2 0.33004167E+00 0.26876402E+04</pdfrwt>
<pdfrwt beam="2">  1       -2 0.12950507E+00 0.26876402E+04</pdfrwt>
<totfact> 0.21343992E+00</totfact>
</mgrwt>
</event>
<event>
 6    1  0.1762360E-005  0.3457449E+04  0.7818608E-02  0.8123949E-01
          1   -1    0    0  501    0  0.00000000000E+00  0.00000000000E+00  0.22760291704E+04  0.22760291704E+04  0.00000000000E+00 0. -1.
         -1   -1    0    0    0  501 -0.00000000000E+00 -0.00000000000E+00 -0.13130270717E+04  0.13130270717E+04  0.00000000000E+00 0.  1.
         23    2    1    2    0    0 -0.12709355794E+04 -0.17370145354E+03 -0.71929176846E+03  0.14735038090E+04  0.91560826631E+02 0.  0.
         13    1    3    3    0    0 -0.86771194293E+03 -0.91254555021E+02 -0.45048352376E+03  0.98193014767E+03  0.00000000000E+00 0.  1.
        -13    1    3    3    0    0 -0.40322363644E+03 -0.82446898517E+02 -0.26880824470E+03  0.49157366129E+03  0.00000000000E+00 0. -1.
         22    1    1    2    0    0  0.12709355794E+04  0.17370145354E+03  0.16822938672E+04  0.21155524331E+04  0.00000000000E+00 0. -1.
<mgrwt>
<rscale>  0 0.34574487E+04</rscale>
<asrwt>0</asrwt>
<pdfrwt beam="1">  1        1 0.35015833E+00 0.34574487E+04</pdfrwt>
<pdfrwt beam="2">  1       -1 0.20200417E+00 0.34574487E+04</pdfrwt>
<totfact> 0.23072008E-01</totfact>
</mgrwt>
</event>
<event>
 6    1  0.1762360E-005  0.2256759E+04  0.7818608E-02  0.8495168E-01
         -1   -1    0    0    0  501 -0.00000000000E+00  0.00000000000E+00  0.80355453818E+03  0.80355453818E+03  0.00000000000E+00 0.  1.
          1   -1    0    0  501    0  0.00000000000E+00 -0.00000000000E+00 -0.15845095119E+04  0.15845095119E+04  0.00000000000E+00 0. -1.
         23    2    1    2    0    0  0.50577555461E+03  0.80040987852E+03 -0.10370562476E+04  0.14072211739E+04  0.91218891731E+02 0.  0.
         13    1    3    3    0    0  0.25702735345E+03  0.32432646595E+03 -0.43607817987E+03  0.60117792366E+03  0.00000000000E+00 0. -1.
        -13    1    3    3    0    0  0.24874820115E+03  0.47608341256E+03 -0.60097806778E+03  0.80604325023E+03  0.00000000000E+00 0.  1.
         22    1    1    2    0    0 -0.50577555461E+03 -0.80040987852E+03  0.25610127392E+03  0.98084287619E+03  0.00000000000E+00 0.  1.
<mgrwt>
<rscale>  0 0.22567586E+04</rscale>
<asrwt>0</asrwt>
<pdfrwt beam="1">  1        1 0.24377069E+00 0.22567586E+04</pdfrwt>
<pdfrwt beam="2">  1       -1 0.12362378E+00 0.22567586E+04</pdfrwt>
<totfact> 0.29845263E+00</totfact>
</mgrwt>
</event>
<event>
 6    1  0.1762360E-005  0.3045229E+04  0.7818608E-02  0.8230932E-01
          1   -1    0    0  501    0  0.00000000000E+00  0.00000000000E+00  0.17304887155E+04  0.17304887155E+04  0.00000000000E+00 0. -1.
         -1   -1    0    0    0  501 -0.00000000000E+00 -0.00000000000E+00 -0.13397113245E+04  0.13397113245E+04  0.00000000000E+00 0.  1.
         23    2    1    2    0    0 -0.12835157339E+04  0.80326942128E+03  0.47950878974E+02  0.15177231738E+04  0.92357692150E+02 0.  0.
         11    1    3    3    0    0 -0.31265179183E+02  0.35085146799E+02  0.10490915390E+02  0.48151202072E+02  0.00000000000E+00 0.  1.
        -11    1    3    3    0    0 -0.12522505547E+04  0.76818427448E+03  0.37459963584E+02  0.14695719718E+04  0.00000000000E+00 0. -1.
         22    1    1    2    0    0  0.12835157339E+04 -0.80326942128E+03  0.34282651205E+03  0.15524768661E+04  0.00000000000E+00 0.  1.
<mgrwt>
<rscale>  0 0.30452293E+04</rscale>
<asrwt>0</asrwt>
<pdfrwt beam="1">  1        1 0.26622903E+00 0.30452293E+04</pdfrwt>
<pdfrwt beam="2">  1       -1 0.20610944E+00 0.30452293E+04</pdfrwt>
<totfact> 0.52632570E-01</totfact>
</mgrwt>
</event>
<event>
 6    1  0.1762360E-005  0.1165014E+04  0.7818608E-02  0.9144044E-01
          2   -1    0    0  501    0  0.00000000000E+00  0.00000000000E+00  0.64420850031E+03  0.64420850031E+03  0.00000000000E+00 0. -1.
         -2   -1    0    0    0  501 -0.00000000000E+00 -0.00000000000E+00 -0.52671482220E+03  0.52671482220E+03  0.00000000000E+00 0.  1.
         23    2    1    2    0    0  0.16029521353E+03  0.16630006252E+03 -0.47439841083E+03  0.53556003176E+03  0.91762896317E+02 0.  0.
         13    1    3    3    0    0  0.15696072086E+03  0.11448984782E+03 -0.40183725250E+03  0.44633817969E+03  0.00000000000E+00 0.  1.
        -13    1    3    3    0    0  0.33344926698E+01  0.51810214702E+02 -0.72561158331E+02  0.89221852072E+02  0.00000000000E+00 0. -1.
         22    1    1    2    0    0 -0.16029521353E+03 -0.16630006252E+03  0.59189208895E+03  0.63536329075E+03  0.00000000000E+00 0. -1.
<mgrwt>
<rscale>  0 0.11650136E+04</rscale>
<asrwt>0</asrwt>
<pdfrwt beam="1">  1        2 0.99109001E-01 0.11650136E+04</pdfrwt>
<pdfrwt beam="2">  1       -2 0.81033049E-01 0.11650136E+04</pdfrwt>
<totfact> 0.60410324E+01</totfact>
</mgrwt>
</event>
<event>
 6    1  0.1762360E-005  0.2206098E+04  0.7818608E-02  0.8515894E-01
          1   -1    0    0  501    0  0.00000000000E+00  0.00000000000E+00  0.15504598121E+04  0.15504598121E+04  0.00000000000E+00 0. -1.
         -1   -1    0    0    0  501 -0.00000000000E+00 -0.00000000000E+00 -0.78474618994E+03  0.78474618994E+03  0.00000000000E+00 0.  1.
         23    2    1    2    0    0 -0.89633943018E+03  0.33150210240E+02 -0.29246175584E+03  0.94802957450E+03  0.93289254253E+02 0.  0.
         11    1    3    3    0    0 -0.18955538106E+03  0.35056296078E+02 -0.90484908171E+02  0.21295000585E+03  0.00000000000E+00 0. -1.
        -11    1    3    3    0    0 -0.70678404912E+03 -0.19060858379E+01 -0.20197684766E+03  0.73507956865E+03  0.00000000000E+00 0.  1.
         22    1    1    2    0    0  0.89633943018E+03 -0.33150210240E+02  0.10581753780E+04  0.13871764275E+04  0.00000000000E+00 0. -1.
<mgrwt>
<rscale>  0 0.22060983E+04</rscale>
<asrwt>0</asrwt>
<pdfrwt beam="1">  1        1 0.23853228E+00 0.22060983E+04</pdfrwt>
<pdfrwt beam="2">  1       -1 0.12073018E+00 0.22060983E+04</pdfrwt>
<totfact> 0.33547815E+00</totfact>
</mgrwt>
</event>
<event>
 6    1  0.1762360E-005  0.2132602E+04  0.7818608E-02  0.8547017E-01
         -2   -1    0    0    0  501 -0.00000000000E+00  0.00000000000E+00  0.12055526735E+04  0.12055526735E+04  0.00000000000E+00 0.  1.
          2   -1    0    0  501    0  0.00000000000E+00 -0.00000000000E+00 -0.94313365582E+03  0.94313365582E+03  0.00000000000E+00 0. -1.
         23    2    1    2    0    0 -0.64687439843E+03  0.72737184895E+03  0.56735724272E+03  0.11286355389E+04  0.66390095493E+02 0.  0.
         11    1    3    3    0    0 -0.42580741150E+03  0.46246174747E+03  0.33143989226E+03  0.71065830168E+03  0.00000000000E+00 0.  1.
        -11    1    3    3    0    0 -0.22106698693E+03  0.26491010147E+03  0.23591735046E+03  0.41797723720E+03  0.00000000000E+00 0. -1.
         22    1    1    2    0    0  0.64687439843E+03 -0.72737184895E+03 -0.30493822503E+03  0.10200507904E+04  0.00000000000E+00 0. -1.
<mgrwt>
<rscale>  0 0.21326015E+04</rscale>
<asrwt>0</asrwt>
<pdfrwt beam="1">  1        2 0.14509749E+00 0.21326015E+04</pdfrwt>
<pdfrwt beam="2">  1       -2 0.18546964E+00 0.21326015E+04</pdfrwt>
<totfact> 0.41926839E+00</totfact>
</mgrwt>
</event>
<event>
 6    1  0.1762360E-005  0.3920152E+04  0.7818608E-02  0.8020851E-01
         -1   -1    0    0    0  501 -0.00000000000E+00  0.00000000000E+00  0.31192935965E+04  0.31192935965E+04  0.00000000000E+00 0.  1.
          1   -1    0    0  501    0  0.00000000000E+00 -0.00000000000E+00 -0.12316563882E+04  0.12316563882E+04  0.00000000000E+00 0. -1.
         23    2    1    2    0    0 -0.73177409853E+03  0.84588068277E+03 -0.84075120187E+03  0.14022026613E+04  0.91116734052E+02 0.  0.
         13    1    3    3    0    0 -0.58586846426E+03  0.62948225342E+03 -0.67259932090E+03  0.10917323900E+04  0.00000000000E+00 0. -1.
        -13    1    3    3    0    0 -0.14590563426E+03  0.21639842935E+03 -0.16815188097E+03  0.31047027137E+03  0.00000000000E+00 0.  1.
         22    1    1    2    0    0  0.73177409853E+03 -0.84588068277E+03  0.27283884101E+04  0.29487473234E+04  0.00000000000E+00 0.  1.
<mgrwt>
<rscale>  0 0.39201520E+04</rscale>
<asrwt>0</asrwt>
<pdfrwt beam="1">  1        1 0.18948560E+00 0.39201520E+04</pdfrwt>
<pdfrwt beam="2">  1       -1 0.47989132E+00 0.39201520E+04</pdfrwt>
<totfact> 0.16152486E-02</totfact>
</mgrwt>
</event>
<event>
 6    1  0.1762360E-005  0.2543391E+04  0.7818608E-02  0.8387688E-01
          1   -1    0    0  501    0  0.00000000000E+00  0.00000000000E+00  0.30340913329E+04  0.30340913329E+04  0.00000000000E+00 0. -1.
         -1   -1    0    0    0  501 -0.00000000000E+00 -0.00000000000E+00 -0.53301258258E+03  0.53301258258E+03  0.00000000000E+00 0.  1.
         23    2    1    2    0    0  0.10163028387E+04  0.19401024608E+03  0.21973515832E+03  0.10621009174E+04  0.96246472536E+02 0.  0.
         11    1    3    3    0    0  0.27389023546E+03  0.95123582398E+02  0.71018531387E+02  0.29850961259E+03  0.00000000000E+00 0.  1.
        -11    1    3    3    0    0  0.74241260324E+03  0.98886663680E+02  0.14871662693E+03  0.76359130484E+03  0.00000000000E+00 0. -1.
         22    1    1    2    0    0 -0.10163028387E+04 -0.19401024608E+03  0.22813435920E+04  0.25050029981E+04  0.00000000000E+00 0. -1.
<mgrwt>
<rscale>  0 0.25433905E+04</rscale>
<asrwt>0</asrwt>
<pdfrwt beam="1">  1        1 0.46678327E+00 0.25433905E+04</pdfrwt>
<pdfrwt beam="2">  1       -1 0.82001937E-01 0.25433905E+04</pdfrwt>
<totfact> 0.73895535E-01</totfact>
</mgrwt>
</event>
<event>
 6    1  0.1762360E-005  0.5806734E+03  0.7818608E-02  0.9946334E-01
         -1   -1    0    0    0  501 -0.00000000000E+00  0.00000000000E+00  0.10856367390E+03  0.10856367390E+03  0.00000000000E+00 0.  1.
          1   -1    0    0  501    0  0.00000000000E+00 -0.00000000000E+00 -0.77646041956E+03  0.77646041956E+03  0.00000000000E+00 0. -1.
         23    2    1    2    0    0  0.94912316327E+02  0.21340229387E+03 -0.58643178127E+03  0.63766721112E+03  0.90378931322E+02 0.  0.
         13    1    3    3    0    0  0.65648768477E+02  0.13114889624E+03 -0.46861262419E+03  0.49102707190E+03  0.00000000000E+00 0. -1.
        -13    1    3    3    0    0  0.29263547850E+02  0.82253397627E+02 -0.11781915709E+03  0.14664013922E+03  0.00000000000E+00 0.  1.
         22    1    1    2    0    0 -0.94912316327E+02 -0.21340229387E+03 -0.81464964394E+02  0.24735688235E+03  0.00000000000E+00 0.  1.
<mgrwt>
<rscale>  0 0.58067339E+03</rscale>
<asrwt>0</asrwt>
<pdfrwt beam="1">  1        1 0.11945545E+00 0.58067339E+03</pdfrwt>
<pdfrwt beam="2">  1       -1 0.16702103E-01 0.58067339E+03</pdfrwt>
<totfact> 0.64652921E+02</totfact>
</mgrwt>
</event>
<event>
 6    1  0.1762360E-005  0.2663035E+04  0.7818608E-02  0.8347100E-01
          1   -1    0    0  501    0  0.00000000000E+00  0.00000000000E+00  0.17309189995E+04  0.17309189995E+04  0.00000000000E+00 0. -1.
         -1   -1    0    0    0  501 -0.00000000000E+00 -0.00000000000E+00 -0.10242756709E+04  0.10242756709E+04  0.00000000000E+00 0.  1.
         23    2    1    2    0    0 -0.40534819883E+03  0.12620410953E+04  0.46589402706E+03  0.14079697023E+04  0.90920566887E+02 0.  0.
         13    1    3    3    0    0 -0.14360767851E+03  0.50037283490E+03  0.22688798787E+03  0.56786820502E+03  0.00000000000E+00 0.  1.
        -13    1    3    3    0    0 -0.26174052032E+03  0.76166826044E+03  0.23900603919E+03  0.84010149726E+03  0.00000000000E+00 0. -1.
         22    1    1    2    0    0  0.40534819883E+03 -0.12620410953E+04  0.24074930156E+03  0.13472249682E+04  0.00000000000E+00 0.  1.
<mgrwt>
<rscale>  0 0.26630345E+04</rscale>
<asrwt>0</asrwt>
<pdfrwt beam="1">  1        1 0.26629523E+00 0.26630345E+04</pdfrwt>
<pdfrwt beam="2">  1       -1 0.15758087E+00 0.26630345E+04</pdfrwt>
<totfact> 0.12125234E+00</totfact>
</mgrwt>
</event>
<event>
 6    1  0.1762360E-005  0.9844781E+03  0.7818608E-02  0.9325735E-01
         -1   -1    0    0    0  501 -0.00000000000E+00  0.00000000000E+00  0.44256382387E+03  0.44256382387E+03  0.00000000000E+00 0.  1.
          1   -1    0    0  501    0  0.00000000000E+00 -0.00000000000E+00 -0.54748999761E+03  0.54748999761E+03  0.00000000000E+00 0. -1.
         23    2    1    2    0    0 -0.14013891758E+03  0.31719645535E+03 -0.39852508765E+03  0.53568301503E+03  0.88778035556E+02 0.  0.
         11    1    3    3    0    0 -0.26894458006E+01  0.10310299514E+03 -0.10363836548E+03  0.14621344509E+03  0.00000000000E+00 0.  1.
        -11    1    3    3    0    0 -0.13744947178E+03  0.21409346021E+03 -0.29488672217E+03  0.38946956994E+03  0.00000000000E+00 0. -1.
         22    1    1    2    0    0  0.14013891758E+03 -0.31719645535E+03  0.29359891391E+03  0.45437080646E+03  0.00000000000E+00 0. -1.
<mgrwt>
<rscale>  0 0.98447807E+03</rscale>
<asrwt>0</asrwt>
<pdfrwt beam="1">  1        1 0.84229230E-01 0.98447807E+03</pdfrwt>
<pdfrwt beam="2">  1       -1 0.68086742E-01 0.98447807E+03</pdfrwt>
<totfact> 0.85597585E+01</totfact>
</mgrwt>
</event>
<event>
 6    1  0.1762360E-005  0.5109566E+04  0.7818608E-02  0.7811824E-01
          2   -1    0    0  501    0  0.00000000000E+00  0.00000000000E+00  0.26310183945E+04  0.26310183945E+04  0.00000000000E+00 0. -1.
         -2   -1    0    0    0  501 -0.00000000000E+00 -0.00000000000E+00 -0.24807570098E+04  0.24807570098E+04  0.00000000000E+00 0.  1.
         23    2    1    2    0    0 -0.79273234777E+03 -0.12508603673E+04 -0.20062965581E+04  0.24957061402E+04  0.10122759425E+03 0.  0.
         13    1    3    3    0    0 -0.50308347903E+02 -0.13326308932E+03 -0.18085032011E+03  0.23021038014E+03  0.00000000000E+00 0. -1.
        -13    1    3    3    0    0 -0.74242399987E+03 -0.11175972780E+04 -0.18254462380E+04  0.22654957601E+04  0.00000000000E+00 0.  1.
         22    1    1    2    0    0  0.79273234777E+03  0.12508603673E+04  0.21565579428E+04  0.26160692641E+04  0.00000000000E+00 0. -1.
<mgrwt>
<rscale>  0 0.51095664E+04</rscale>
<asrwt>0</asrwt>
<pdfrwt beam="1">  1        2 0.40477206E+00 0.51095664E+04</pdfrwt>
<pdfrwt beam="2">  1       -2 0.38165492E+00 0.51095664E+04</pdfrwt>
<totfact> 0.20580258E-02</totfact>
</mgrwt>
</event>
<event>
 6    1  0.1762360E-005  0.2628957E+04  0.7818608E-02  0.8358431E-01
          2   -1    0    0  501    0  0.00000000000E+00  0.00000000000E+00  0.26681905845E+04  0.26681905845E+04  0.00000000000E+00 0.  1.
         -2   -1    0    0    0  501 -0.00000000000E+00 -0.00000000000E+00 -0.64757487244E+03  0.64757487244E+03  0.00000000000E+00 0. -1.
         23    2    1    2    0    0  0.13873232515E+03 -0.12328291554E+04  0.15535507625E+04  0.19901470913E+04  0.89727859644E+02 0.  0.
         11    1    3    3    0    0  0.29262064868E+02 -0.31355809802E+03  0.45806817039E+03  0.55587894186E+03  0.00000000000E+00 0.  1.
        -11    1    3    3    0    0  0.10947026029E+03 -0.91927105734E+03  0.10954825921E+04  0.14342681494E+04  0.00000000000E+00 0. -1.
         22    1    1    2    0    0 -0.13873232515E+03  0.12328291554E+04  0.46706494954E+03  0.13256183657E+04  0.00000000000E+00 0. -1.
<mgrwt>
<rscale>  0 0.26289566E+04</rscale>
<asrwt>0</asrwt>
<pdfrwt beam="1">  1        2 0.41049085E+00 0.26289566E+04</pdfrwt>
<pdfrwt beam="2">  1       -2 0.99626905E-01 0.26289566E+04</pdfrwt>
<totfact> 0.20393030E+00</totfact>
</mgrwt>
</event>
<event>
 6    1  0.1762360E-005  0.3260798E+04  0.7818608E-02  0.8172942E-01
          2   -1    0    0  501    0  0.00000000000E+00  0.00000000000E+00  0.12777374213E+04  0.12777374213E+04  0.00000000000E+00 0. -1.
         -2   -1    0    0    0  501 -0.00000000000E+00 -0.00000000000E+00 -0.20803973122E+04  0.20803973122E+04  0.00000000000E+00 0.  1.
         23    2    1    2    0    0 -0.10391125157E+04 -0.23877440847E+02  0.89025815105E+03  0.13716059899E+04  0.91752185416E+02 0.  0.
         11    1    3    3    0    0 -0.81407812392E+03 -0.52823619267E+02  0.67471208304E+03  0.10586547698E+04  0.00000000000E+00 0. -1.
        -11    1    3    3    0    0 -0.22503439179E+03  0.28946178420E+02  0.21554606801E+03  0.31295122011E+03  0.00000000000E+00 0.  1.
         22    1    1    2    0    0  0.10391125157E+04  0.23877440847E+02 -0.16929180419E+04  0.19865287436E+04  0.00000000000E+00 0.  1.
<mgrwt>
<rscale>  0 0.32607984E+04</rscale>
<asrwt>0</asrwt>
<pdfrwt beam="1">  1        2 0.19657499E+00 0.32607984E+04</pdfrwt>
<pdfrwt beam="2">  1       -2 0.32006112E+00 0.32607984E+04</pdfrwt>
<totfact> 0.34139038E-01</totfact>
</mgrwt>
</event>
<event>
 6    1  0.1762360E-005  0.6500247E+03  0.7818608E-02  0.9806733E-01
         -2   -1    0    0    0  501 -0.00000000000E+00  0.00000000000E+00  0.67156561651E+02  0.67156561651E+02  0.00000000000E+00 0.  1.
          2   -1    0    0  501    0  0.00000000000E+00 -0.00000000000E+00 -0.15729367679E+04  0.15729367679E+04  0.00000000000E+00 0. -1.
         23    2    1    2    0    0  0.54832308465E+02  0.17846297423E+03 -0.14192536475E+04  0.14343204922E+04  0.90214983307E+02 0.  0.
         11    1    3    3    0    0 -0.12989709943E+02  0.85572031119E+02 -0.78153328107E+03  0.78631137248E+03  0.00000000000E+00 0.  1.
        -11    1    3    3    0    0  0.67822018409E+02  0.92890943108E+02 -0.63772036641E+03  0.64800911971E+03  0.00000000000E+00 0. -1.
         22    1    1    2    0    0 -0.54832308465E+02 -0.17846297423E+03 -0.86526558765E+02  0.20577283736E+03  0.00000000000E+00 0.  1.
<mgrwt>
<rscale>  0 0.65002469E+03</rscale>
<asrwt>0</asrwt>
<pdfrwt beam="1">  1        2 0.24199030E+00 0.65002469E+03</pdfrwt>
<pdfrwt beam="2">  1       -2 0.10331778E-01 0.65002469E+03</pdfrwt>
<totfact> 0.76574798E+02</totfact>
</mgrwt>
</event>
<event>
 6    1  0.1762360E-005  0.2615770E+04  0.7818608E-02  0.8362864E-01
          1   -1    0    0  501    0  0.00000000000E+00  0.00000000000E+00  0.10289702957E+04  0.10289702957E+04  0.00000000000E+00 0. -1.
         -1   -1    0    0    0  501 -0.00000000000E+00 -0.00000000000E+00 -0.16624033808E+04  0.16624033808E+04  0.00000000000E+00 0.  1.
         23    2    1    2    0    0  0.93499814771E+03  0.69328909864E+03 -0.92709923595E+03  0.14909107997E+04  0.91818891015E+02 0.  0.
         13    1    3    3    0    0  0.59295996950E+03  0.45888241519E+03 -0.64882082523E+03  0.99153570770E+03  0.00000000000E+00 0.  1.
        -13    1    3    3    0    0  0.34203817821E+03  0.23440668345E+03 -0.27827841073E+03  0.49937509197E+03  0.00000000000E+00 0. -1.
         22    1    1    2    0    0 -0.93499814771E+03 -0.69328909864E+03  0.29366615088E+03  0.12004628768E+04  0.00000000000E+00 0. -1.
<mgrwt>
<rscale>  0 0.26157704E+04</rscale>
<asrwt>0</asrwt>
<pdfrwt beam="1">  1        1 0.15830313E+00 0.26157704E+04</pdfrwt>
<pdfrwt beam="2">  1       -1 0.25575436E+00 0.26157704E+04</pdfrwt>
<totfact> 0.80788301E-01</totfact>
</mgrwt>
</event>
<event>
 6    1  0.1762360E-005  0.3077138E+04  0.7818608E-02  0.8222040E-01
         -1   -1    0    0    0  501 -0.00000000000E+00  0.00000000000E+00  0.57726883682E+03  0.57726883682E+03  0.00000000000E+00 0.  1.
          1   -1    0    0  501    0  0.00000000000E+00 -0.00000000000E+00 -0.41006805150E+04  0.41006805150E+04  0.00000000000E+00 0. -1.
         23    2    1    2    0    0  0.90588021895E+03  0.31161189834E+03  0.64293326773E+02  0.96454819536E+03  0.92188085077E+02 0.  0.
         11    1    3    3    0    0  0.35259417430E+03  0.15428363595E+03 -0.69442348813E+01  0.38493416901E+03  0.00000000000E+00 0.  1.
        -11    1    3    3    0    0  0.55328604465E+03  0.15732826239E+03  0.71237561654E+02  0.57961402634E+03  0.00000000000E+00 0. -1.
         22    1    1    2    0    0 -0.90588021895E+03 -0.31161189834E+03 -0.35877050049E+04  0.37134011564E+04  0.00000000000E+00 0. -1.
<mgrwt>
<rscale>  0 0.30771383E+04</rscale>
<asrwt>0</asrwt>
<pdfrwt beam="1">  1        1 0.63087393E+00 0.30771383E+04</pdfrwt>
<pdfrwt beam="2">  1       -1 0.88810589E-01 0.30771383E+04</pdfrwt>
<totfact> 0.81959612E-02</totfact>
</mgrwt>
</event>
<event>
 6    1  0.1762360E-005  0.3877598E+04  0.7818608E-02  0.8029705E-01
         -2   -1    0    0    0  501 -0.00000000000E+00  0.00000000000E+00  0.18704612659E+04  0.18704612659E+04  0.00000000000E+00 0. -1.
          2   -1    0    0  501    0  0.00000000000E+00 -0.00000000000E+00 -0.20096335499E+04  0.20096335499E+04  0.00000000000E+00 0.  1.
         23    2    1    2    0    0 -0.20870530063E+03 -0.95349368261E+03 -0.17446508759E+04  0.20011936438E+04  0.90891231063E+02 0.  0.
         11    1    3    3    0    0 -0.58946320224E+01 -0.18708908522E+03 -0.35380866425E+03  0.40027196179E+03  0.00000000000E+00 0. -1.
        -11    1    3    3    0    0 -0.20281066860E+03 -0.76640459739E+03 -0.13908422116E+04  0.16009216820E+04  0.00000000000E+00 0.  1.
         22    1    1    2    0    0  0.20870530063E+03  0.95349368261E+03  0.16054785919E+04  0.18789011720E+04  0.00000000000E+00 0. -1.
<mgrwt>
<rscale>  0 0.38775981E+04</rscale>
<asrwt>0</asrwt>
<pdfrwt beam="1">  1        2 0.30917439E+00 0.38775981E+04</pdfrwt>
<pdfrwt beam="2">  1       -2 0.28776327E+00 0.38775981E+04</pdfrwt>
<totfact> 0.19854140E-01</totfact>
</mgrwt>
</event>
<event>
 6    1  0.1762360E-005  0.2365832E+04  0.7818608E-02  0.8452407E-01
         -1   -1    0    0    0  501 -0.00000000000E+00  0.00000000000E+00  0.92474710644E+03  0.92474710644E+03  0.00000000000E+00 0.  1.
          1   -1    0    0  501    0  0.00000000000E+00 -0.00000000000E+00 -0.15131597448E+04  0.15131597448E+04  0.00000000000E+00 0. -1.
         23    2    1    2    0    0  0.83108406011E+03 -0.55622789829E+03 -0.94287387203E+03  0.13769012169E+04  0.82192656770E+02 0.  0.
         13    1    3    3    0    0  0.49525293583E+03 -0.37679076769E+03 -0.60284213565E+03  0.86640948378E+03  0.00000000000E+00 0.  1.
        -13    1    3    3    0    0  0.33583112429E+03 -0.17943713060E+03 -0.34003173638E+03  0.51049173316E+03  0.00000000000E+00 0. -1.
         22    1    1    2    0    0 -0.83108406011E+03  0.55622789829E+03  0.35446123369E+03  0.10610056343E+04  0.00000000000E+00 0.  1.
<mgrwt>
<rscale>  0 0.23658319E+04</rscale>
<asrwt>0</asrwt>
<pdfrwt beam="1">  1        1 0.23279381E+00 0.23658319E+04</pdfrwt>
<pdfrwt beam="2">  1       -1 0.14226879E+00 0.23658319E+04</pdfrwt>
<totfact> 0.23134020E+00</totfact>
</mgrwt>
</event>
<event>
 6    1  0.1762360E-005  0.1670832E+04  0.7818608E-02  0.8778177E-01
         -2   -1    0    0    0  501 -0.00000000000E+00  0.00000000000E+00  0.29751061105E+04  0.29751061105E+04  0.00000000000E+00 0.  1.
          2   -1    0    0  501    0  0.00000000000E+00 -0.00000000000E+00 -0.23458655927E+03  0.23458655927E+03  0.00000000000E+00 0. -1.
         23    2    1    2    0    0 -0.35433348123E+03  0.71821586333E+03  0.18141797790E+04  0.19851553629E+04  0.90594161561E+02 0.  0.
         13    1    3    3    0    0 -0.10419843050E+03  0.17041232997E+03  0.37060509599E+03  0.42100571528E+03  0.00000000000E+00 0.  1.
        -13    1    3    3    0    0 -0.25013505074E+03  0.54780353337E+03  0.14435746830E+04  0.15641496476E+04  0.00000000000E+00 0. -1.
         22    1    1    2    0    0  0.35433348123E+03 -0.71821586333E+03  0.92633977228E+03  0.12245373069E+04  0.00000000000E+00 0. -1.
<mgrwt>
<rscale>  0 0.16708320E+04</rscale>
<asrwt>0</asrwt>
<pdfrwt beam="1">  1        2 0.36090242E-01 0.16708320E+04</pdfrwt>
<pdfrwt beam="2">  1       -2 0.45770861E+00 0.16708320E+04</pdfrwt>
<totfact> 0.42765630E-01</totfact>
</mgrwt>
</event>
<event>
 6    1  0.1762360E-005  0.7515101E+03  0.7818608E-02  0.9632984E-01
         -1   -1    0    0    0  501 -0.00000000000E+00  0.00000000000E+00  0.17410166329E+03  0.17410166329E+03  0.00000000000E+00 0.  1.
          1   -1    0    0  501    0  0.00000000000E+00 -0.00000000000E+00 -0.81097369940E+03  0.81097369940E+03  0.00000000000E+00 0. -1.
         23    2    1    2    0    0  0.33398083371E+03 -0.21528581138E+02 -0.11523866054E+03  0.36531084645E+03  0.90362539576E+02 0.  0.
         13    1    3    3    0    0  0.14471146319E+03 -0.20086530722E+02 -0.48112878990E+01  0.14617805850E+03  0.00000000000E+00 0. -1.
        -13    1    3    3    0    0  0.18926937052E+03 -0.14420504159E+01 -0.11042737264E+03  0.21913278795E+03  0.00000000000E+00 0.  1.
         22    1    1    2    0    0 -0.33398083371E+03  0.21528581138E+02 -0.52163337556E+03  0.61976451624E+03  0.00000000000E+00 0. -1.
<mgrwt>
<rscale>  0 0.75151013E+03</rscale>
<asrwt>0</asrwt>
<pdfrwt beam="1">  1        1 0.12476518E+00 0.75151013E+03</pdfrwt>
<pdfrwt beam="2">  1       -1 0.26784871E-01 0.75151013E+03</pdfrwt>
<totfact> 0.27182609E+02</totfact>
</mgrwt>
</event>
<event>
 6    1  0.1762360E-005  0.1398352E+04  0.7818608E-02  0.8955012E-01
          1   -1    0    0  501    0  0.00000000000E+00  0.00000000000E+00  0.14223613921E+04  0.14223613921E+04  0.00000000000E+00 0.  1.
         -1   -1    0    0    0  501 -0.00000000000E+00 -0.00000000000E+00 -0.34368706613E+03  0.34368706613E+03  0.00000000000E+00 0. -1.
         23    2    1    2    0    0 -0.54029341212E+03  0.39647419711E+03  0.29881244452E+03  0.73780076712E+03  0.77151375981E+02 0.  0.
         11    1    3    3    0    0 -0.40663430914E+03  0.25529015467E+03  0.21614396445E+03  0.52653844855E+03  0.00000000000E+00 0. -1.
        -11    1    3    3    0    0 -0.13365910298E+03  0.14118404244E+03  0.82668480077E+02  0.21126231857E+03  0.00000000000E+00 0.  1.
         22    1    1    2    0    0  0.54029341212E+03 -0.39647419711E+03  0.77986188149E+03  0.10282476911E+04  0.00000000000E+00 0.  1.
<mgrwt>
<rscale>  0 0.13983522E+04</rscale>
<asrwt>0</asrwt>
<pdfrwt beam="1">  1        1 0.21882483E+00 0.13983522E+04</pdfrwt>
<pdfrwt beam="2">  1       -1 0.52874934E-01 0.13983522E+04</pdfrwt>
<totfact> 0.26054280E+01</totfact>
</mgrwt>
</event>
<event>
 6    1  0.1762360E-005  0.1029354E+04  0.7818608E-02  0.9276923E-01
         -1   -1    0    0    0  501 -0.00000000000E+00  0.00000000000E+00  0.57398134433E+03  0.57398134433E+03  0.00000000000E+00 0.  1.
          1   -1    0    0  501    0  0.00000000000E+00 -0.00000000000E+00 -0.46150038811E+03  0.46150038811E+03  0.00000000000E+00 0. -1.
         23    2    1    2    0    0 -0.49105381723E+03 -0.12288624605E+03  0.12357451820E+03  0.52916370194E+03  0.92242511941E+02 0.  0.
         11    1    3    3    0    0 -0.32227487140E+03 -0.82673887443E+02  0.12565601918E+03  0.35564799951E+03  0.00000000000E+00 0.  1.
        -11    1    3    3    0    0 -0.16877894583E+03 -0.40212358610E+02 -0.20815009751E+01  0.17351570242E+03  0.00000000000E+00 0. -1.
         22    1    1    2    0    0  0.49105381723E+03  0.12288624605E+03 -0.11093561981E+02  0.50631803050E+03  0.00000000000E+00 0. -1.
<mgrwt>
<rscale>  0 0.10293544E+04</rscale>
<asrwt>0</asrwt>
<pdfrwt beam="1">  1        1 0.71000060E-01 0.10293544E+04</pdfrwt>
<pdfrwt beam="2">  1       -1 0.88304822E-01 0.10293544E+04</pdfrwt>
<totfact> 0.62417156E+01</totfact>
</mgrwt>
</event>
<event>
 6    1  0.1762360E-005  0.3197864E+04  0.7818608E-02  0.8189381E-01
         -2   -1    0    0    0  501 -0.00000000000E+00  0.00000000000E+00  0.12138422435E+04  0.12138422435E+04  0.00000000000E+00 0. -1.
          2   -1    0    0  501    0  0.00000000000E+00 -0.00000000000E+00 -0.21061913756E+04  0.21061913756E+04  0.00000000000E+00 0.  1.
         23    2    1    2    0    0 -0.20097804037E+03 -0.30560384992E+02 -0.20917061217E+04  0.21035701801E+04  0.91906982943E+02 0.  0.
         11    1    3    3    0    0 -0.14830396090E+03 -0.60601283593E+02 -0.13745017439E+04  0.13838069318E+04  0.00000000000E+00 0.  1.
        -11    1    3    3    0    0 -0.52674079473E+02  0.30040898601E+02 -0.71720437771E+03  0.71976324832E+03  0.00000000000E+00 0. -1.
         22    1    1    2    0    0  0.20097804037E+03  0.30560384992E+02  0.11993569895E+04  0.12164634389E+04  0.00000000000E+00 0. -1.
<mgrwt>
<rscale>  0 0.31978643E+04</rscale>
<asrwt>0</asrwt>
<pdfrwt beam="1">  1        2 0.32402944E+00 0.31978643E+04</pdfrwt>
<pdfrwt beam="2">  1       -2 0.18674496E+00 0.31978643E+04</pdfrwt>
<totfact> 0.80046468E-01</totfact>
</mgrwt>
</event>
<event>
 6    1  0.1762360E-005  0.1124680E+04  0.7818608E-02  0.9181465E-01
          3   -1    0    0  501    0  0.00000000000E+00  0.00000000000E+00  0.37495482030E+04  0.37495482030E+04  0.00000000000E+00 0. -1.
         -3   -1    0    0    0  501 -0.00000000000E+00 -0.00000000000E+00 -0.84337187331E+02  0.84337187331E+02  0.00000000000E+00 0.  1.
         23    2    1    2    0    0  0.12562834947E+03 -0.48251803382E+03  0.97334684301E+03  0.10962333198E+04  0.75612694182E+02 0.  0.
         11    1    3    3    0    0  0.11161094028E+03 -0.28268532381E+03  0.57835460382E+03  0.65334680075E+03  0.00000000000E+00 0. -1.
        -11    1    3    3    0    0  0.14017409188E+02 -0.19983271001E+03  0.39499223920E+03  0.44288651907E+03  0.00000000000E+00 0.  1.
         22    1    1    2    0    0 -0.12562834947E+03  0.48251803382E+03  0.26918641726E+04  0.27376520705E+04  0.00000000000E+00 0. -1.
<mgrwt>
<rscale>  0 0.11246801E+04</rscale>
<asrwt>0</asrwt>
<pdfrwt beam="1">  1        3 0.57685344E+00 0.11246801E+04</pdfrwt>
<pdfrwt beam="2">  1       -3 0.12974955E-01 0.11246801E+04</pdfrwt>
<totfact> 0.19438744E-01</totfact>
</mgrwt>
</event>
<event>
 6    1  0.1762360E-005  0.2383217E+04  0.7818608E-02  0.8445814E-01
          2   -1    0    0  501    0  0.00000000000E+00  0.00000000000E+00  0.25294384129E+04  0.25294384129E+04  0.00000000000E+00 0. -1.
         -2   -1    0    0    0  501 -0.00000000000E+00 -0.00000000000E+00 -0.56136197786E+03  0.56136197786E+03  0.00000000000E+00 0.  1.
         23    2    1    2    0    0 -0.18624270547E+03  0.13223474267E+03  0.24998741168E+04  0.25120248325E+04  0.93411920926E+02 0.  0.
         13    1    3    3    0    0 -0.19609936086E+03  0.12402219865E+03  0.22797392959E+04  0.22915164678E+04  0.00000000000E+00 0. -1.
        -13    1    3    3    0    0  0.98566553913E+01  0.82125440199E+01  0.22013482095E+03  0.22050836476E+03  0.00000000000E+00 0.  1.
         22    1    1    2    0    0  0.18624270547E+03 -0.13223474267E+03 -0.53179768174E+03  0.57877555824E+03  0.00000000000E+00 0.  1.
<mgrwt>
<rscale>  0 0.23832168E+04</rscale>
<asrwt>0</asrwt>
<pdfrwt beam="1">  1        2 0.38914436E+00 0.23832168E+04</pdfrwt>
<pdfrwt beam="2">  1       -2 0.86363383E-01 0.23832168E+04</pdfrwt>
<totfact> 0.35011779E+00</totfact>
</mgrwt>
</event>
<event>
 6    1  0.1762360E-005  0.7189938E+03  0.7818608E-02  0.9685290E-01
          2   -1    0    0  501    0  0.00000000000E+00  0.00000000000E+00  0.21605435537E+04  0.21605435537E+04  0.00000000000E+00 0. -1.
         -2   -1    0    0    0  501 -0.00000000000E+00 -0.00000000000E+00 -0.59817367812E+02  0.59817367812E+02  0.00000000000E+00 0.  1.
         23    2    1    2    0    0  0.31276944940E+02 -0.30748929811E+03  0.53579980099E+03  0.62520497117E+03  0.90950060532E+02 0.  0.
         11    1    3    3    0    0  0.14440083357E+02 -0.26134246755E+03  0.37678690617E+03  0.45877747767E+03  0.00000000000E+00 0.  1.
        -11    1    3    3    0    0  0.16836861583E+02 -0.46146830558E+02  0.15901289481E+03  0.16642749351E+03  0.00000000000E+00 0. -1.
         22    1    1    2    0    0 -0.31276944940E+02  0.30748929811E+03  0.15649263849E+04  0.15951559503E+04  0.00000000000E+00 0. -1.
<mgrwt>
<rscale>  0 0.71899382E+03</rscale>
<asrwt>0</asrwt>
<pdfrwt beam="1">  1        2 0.33239126E+00 0.71899382E+03</pdfrwt>
<pdfrwt beam="2">  1       -2 0.92026736E-02 0.71899382E+03</pdfrwt>
<totfact> 0.43979326E+02</totfact>
</mgrwt>
</event>
<event>
 6    1  0.1762360E-005  0.4110157E+04  0.7818608E-02  0.7982686E-01
         -2   -1    0    0    0  501 -0.00000000000E+00  0.00000000000E+00  0.47374766654E+04  0.47374766654E+04  0.00000000000E+00 0. -1.
          2   -1    0    0  501    0  0.00000000000E+00 -0.00000000000E+00 -0.89147639404E+03  0.89147639404E+03  0.00000000000E+00 0.  1.
         23    2    1    2    0    0  0.75439535224E+03  0.37146252320E+03 -0.64258980425E+03  0.10622761910E+04  0.91718569012E+02 0.  0.
         11    1    3    3    0    0  0.44361852503E+03  0.26809730797E+03 -0.39771737025E+03  0.65333962752E+03  0.00000000000E+00 0.  1.
        -11    1    3    3    0    0  0.31077682721E+03  0.10336521523E+03 -0.24487243400E+03  0.40893656352E+03  0.00000000000E+00 0. -1.
         22    1    1    2    0    0 -0.75439535224E+03 -0.37146252320E+03  0.44885900756E+04  0.45666768684E+04  0.00000000000E+00 0. -1.
<mgrwt>
<rscale>  0 0.41101575E+04</rscale>
<asrwt>0</asrwt>
<pdfrwt beam="1">  1        2 0.13715022E+00 0.41101575E+04</pdfrwt>
<pdfrwt beam="2">  1       -2 0.72884255E+00 0.41101575E+04</pdfrwt>
<totfact> 0.41089394E-03</totfact>
</mgrwt>
</event>
<event>
 6    1  0.1762360E-005  0.5963916E+03  0.7818608E-02  0.9912921E-01
          2   -1    0    0  501    0  0.00000000000E+00  0.00000000000E+00  0.81008672059E+03  0.81008672059E+03  0.00000000000E+00 0. -1.
         -2   -1    0    0    0  501 -0.00000000000E+00 -0.00000000000E+00 -0.10976692503E+03  0.10976692503E+03  0.00000000000E+00 0.  1.
         23    2    1    2    0    0 -0.17860051821E+03  0.40880516932E+01  0.71386819397E+03  0.74069333647E+03  0.84285010910E+02 0.  0.
         11    1    3    3    0    0 -0.10069229003E+03 -0.33106330745E+02  0.47556913485E+03  0.48723810240E+03  0.00000000000E+00 0.  1.
        -11    1    3    3    0    0 -0.77908228176E+02  0.37194382439E+02  0.23829905912E+03  0.25345523407E+03  0.00000000000E+00 0. -1.
         22    1    1    2    0    0  0.17860051821E+03 -0.40880516932E+01 -0.13548398408E+02  0.17916030914E+03  0.00000000000E+00 0.  1.
<mgrwt>
<rscale>  0 0.59639158E+03</rscale>
<asrwt>0</asrwt>
<pdfrwt beam="1">  1        2 0.12462872E+00 0.59639158E+03</pdfrwt>
<pdfrwt beam="2">  1       -2 0.16887220E-01 0.59639158E+03</pdfrwt>
<totfact> 0.97495608E+02</totfact>
</mgrwt>
</event>
<event>
 6    1  0.1762360E-005  0.1395278E+04  0.7818608E-02  0.8957244E-01
         -3   -1    0    0    0  501 -0.00000000000E+00  0.00000000000E+00  0.79355684929E+03  0.79355684929E+03  0.00000000000E+00 0.  1.
          3   -1    0    0  501    0  0.00000000000E+00 -0.00000000000E+00 -0.61331470010E+03  0.61331470010E+03  0.00000000000E+00 0. -1.
         23    2    1    2    0    0 -0.27240984508E+03 -0.47121904155E+02  0.73319985517E+03  0.78865652033E+03  0.89271954648E+02 0.  0.
         11    1    3    3    0    0 -0.13091371358E+03 -0.21912441926E+02  0.23233177738E+03  0.26757542917E+03  0.00000000000E+00 0. -1.
        -11    1    3    3    0    0 -0.14149613150E+03 -0.25209462228E+02  0.50086807779E+03  0.52108109116E+03  0.00000000000E+00 0.  1.
         22    1    1    2    0    0  0.27240984508E+03  0.47121904155E+02 -0.55295770598E+03  0.61821502906E+03  0.00000000000E+00 0. -1.
<mgrwt>
<rscale>  0 0.13952779E+04</rscale>
<asrwt>0</asrwt>
<pdfrwt beam="1">  1        3 0.94356108E-01 0.13952779E+04</pdfrwt>
<pdfrwt beam="2">  1       -3 0.12208567E+00 0.13952779E+04</pdfrwt>
<totfact> 0.13842812E+00</totfact>
</mgrwt>
</event>
<event>
 6    1  0.1762360E-005  0.2150633E+04  0.7818608E-02  0.8539261E-01
          2   -1    0    0  501    0  0.00000000000E+00  0.00000000000E+00  0.23424335815E+04  0.23424335815E+04  0.00000000000E+00 0.  1.
         -2   -1    0    0    0  501 -0.00000000000E+00 -0.00000000000E+00 -0.49363447821E+03  0.49363447821E+03  0.00000000000E+00 0. -1.
         23    2    1    2    0    0 -0.34766623615E+03 -0.93380909768E+03  0.14506521860E+04  0.17630386051E+04  0.10508147193E+03 0.  0.
         11    1    3    3    0    0 -0.23153342530E+03 -0.73261540361E+03  0.10746605746E+04  0.13210709319E+04  0.00000000000E+00 0.  1.
        -11    1    3    3    0    0 -0.11613281085E+03 -0.20119369408E+03  0.37599161143E+03  0.44196767321E+03  0.00000000000E+00 0. -1.
         22    1    1    2    0    0  0.34766623615E+03  0.93380909768E+03  0.39814691731E+03  0.10730294546E+04  0.00000000000E+00 0. -1.
<mgrwt>
<rscale>  0 0.21506334E+04</rscale>
<asrwt>0</asrwt>
<pdfrwt beam="1">  1        2 0.36037439E+00 0.21506334E+04</pdfrwt>
<pdfrwt beam="2">  1       -2 0.75943768E-01 0.21506334E+04</pdfrwt>
<totfact> 0.61123699E+00</totfact>
</mgrwt>
</event>
<event>
 6    1  0.1762360E-005  0.2968902E+04  0.7818608E-02  0.8252667E-01
          2   -1    0    0  501    0  0.00000000000E+00  0.00000000000E+00  0.27438524769E+04  0.27438524769E+04  0.00000000000E+00 0. -1.
         -2   -1    0    0    0  501 -0.00000000000E+00 -0.00000000000E+00 -0.80310274540E+03  0.80310274540E+03  0.00000000000E+00 0.  1.
         23    2    1    2    0    0  0.76249294027E+03 -0.50297602377E+03  0.23672078793E+04  0.25388644941E+04  0.88200972198E+02 0.  0.
         11    1    3    3    0    0  0.23400090788E+03 -0.12690915604E+03  0.60092254176E+03  0.65724444461E+03  0.00000000000E+00 0. -1.
        -11    1    3    3    0    0  0.52849203239E+03 -0.37606686774E+03  0.17662853375E+04  0.18816200495E+04  0.00000000000E+00 0.  1.
         22    1    1    2    0    0 -0.76249294027E+03  0.50297602377E+03 -0.42645814775E+03  0.10080907282E+04  0.00000000000E+00 0.  1.
<mgrwt>
<rscale>  0 0.29689025E+04</rscale>
<asrwt>0</asrwt>
<pdfrwt beam="1">  1        2 0.42213115E+00 0.29689025E+04</pdfrwt>
<pdfrwt beam="2">  1       -2 0.12355427E+00 0.29689025E+04</pdfrwt>
<totfact> 0.10587165E+00</totfact>
</mgrwt>
</event>
<event>
 6    1  0.1762360E-005  0.4235955E+04  0.7818608E-02  0.7958568E-01
          2   -1    0    0  501    0  0.00000000000E+00  0.00000000000E+00  0.22910359039E+04  0.22910359039E+04  0.00000000000E+00 0. -1.
         -2   -1    0    0    0  501 -0.00000000000E+00 -0.00000000000E+00 -0.19579913185E+04  0.19579913185E+04  0.00000000000E+00 0.  1.
         23    2    1    2    0    0  0.13525844465E+04 -0.14977948204E+04  0.80782650140E+03  0.21757949931E+04  0.92877268528E+02 0.  0.
         13    1    3    3    0    0  0.12210383706E+04 -0.13679806600E+04  0.75980046860E+03  0.19848432031E+04  0.00000000000E+00 0.  1.
        -13    1    3    3    0    0  0.13154607582E+03 -0.12981416038E+03  0.48026032794E+02  0.19095179006E+03  0.00000000000E+00 0. -1.
         22    1    1    2    0    0 -0.13525844465E+04  0.14977948204E+04 -0.47478191606E+03  0.20732322293E+04  0.00000000000E+00 0. -1.
<mgrwt>
<rscale>  0 0.42359549E+04</rscale>
<asrwt>0</asrwt>
<pdfrwt beam="1">  1        2 0.35246706E+00 0.42359549E+04</pdfrwt>
<pdfrwt beam="2">  1       -2 0.30122944E+00 0.42359549E+04</pdfrwt>
<totfact> 0.11091060E-01</totfact>
</mgrwt>
</event>
<event>
 6    1  0.1762360E-005  0.3348990E+04  0.7818608E-02  0.8150541E-01
         -1   -1    0    0    0  501 -0.00000000000E+00  0.00000000000E+00  0.18002478424E+04  0.18002478424E+04  0.00000000000E+00 0.  1.
          1   -1    0    0  501    0  0.00000000000E+00 -0.00000000000E+00 -0.15575265672E+04  0.15575265672E+04  0.00000000000E+00 0. -1.
         23    2    1    2    0    0 -0.28504264180E+03 -0.16419944557E+04  0.27111486157E+03  0.16909806923E+04  0.92289399009E+02 0.  0.
         11    1    3    3    0    0 -0.18896514644E+03 -0.10481314370E+04  0.12877820599E+03  0.10727866341E+04  0.00000000000E+00 0. -1.
        -11    1    3    3    0    0 -0.96077495362E+02 -0.59386301871E+03  0.14233665558E+03  0.61819405822E+03  0.00000000000E+00 0.  1.
         22    1    1    2    0    0  0.28504264180E+03  0.16419944557E+04 -0.28393586456E+02  0.16667937173E+04  0.00000000000E+00 0.  1.
<mgrwt>
<rscale>  0 0.33489902E+04</rscale>
<asrwt>0</asrwt>
<pdfrwt beam="1">  1        1 0.23961947E+00 0.33489902E+04</pdfrwt>
<pdfrwt beam="2">  1       -1 0.27696120E+00 0.33489902E+04</pdfrwt>
<totfact> 0.22965054E-01</totfact>
</mgrwt>
</event>
<event>
 6    1  0.1762360E-005  0.1690269E+04  0.7818608E-02  0.8766934E-01
          1   -1    0    0  501    0  0.00000000000E+00  0.00000000000E+00  0.43611420211E+03  0.43611420211E+03  0.00000000000E+00 0. -1.
         -1   -1    0    0    0  501 -0.00000000000E+00 -0.00000000000E+00 -0.16377640190E+04  0.16377640190E+04  0.00000000000E+00 0.  1.
         23    2    1    2    0    0 -0.30822008193E+03  0.13561082753E+03  0.34517262817E+03  0.49082749798E+03  0.91529088738E+02 0.  0.
         13    1    3    3    0    0 -0.23164845859E+03  0.68555783008E+02  0.20053422908E+03  0.31396636888E+03  0.00000000000E+00 0.  1.
        -13    1    3    3    0    0 -0.76571623341E+02  0.67055044522E+02  0.14463839909E+03  0.17686112911E+03  0.00000000000E+00 0. -1.
         22    1    1    2    0    0  0.30822008193E+03 -0.13561082753E+03 -0.15468224451E+04  0.15830507232E+04  0.00000000000E+00 0.  1.
<mgrwt>
<rscale>  0 0.16902688E+04</rscale>
<asrwt>0</asrwt>
<pdfrwt beam="1">  1        1 0.67094492E-01 0.16902688E+04</pdfrwt>
<pdfrwt beam="2">  1       -1 0.25196370E+00 0.16902688E+04</pdfrwt>
<totfact> 0.34450007E+00</totfact>
</mgrwt>
</event>
<event>
 6    1  0.1762360E-005  0.1028972E+04  0.7818608E-02  0.9277328E-01
         -1   -1    0    0    0  501 -0.00000000000E+00  0.00000000000E+00  0.16392175161E+04  0.16392175161E+04  0.00000000000E+00 0.  1.
          1   -1    0    0  501    0  0.00000000000E+00 -0.00000000000E+00 -0.16147681412E+03  0.16147681412E+03  0.00000000000E+00 0. -1.
         23    2    1    2    0    0  0.15323401560E+03 -0.47141670227E+03  0.95802099281E+03  0.10824861801E+04  0.90872090518E+02 0.  0.
         11    1    3    3    0    0  0.12337707355E+03 -0.23417802491E+03  0.48988937043E+03  0.55682389037E+03  0.00000000000E+00 0. -1.
        -11    1    3    3    0    0  0.29856942059E+02 -0.23723867736E+03  0.46813162238E+03  0.52566228978E+03  0.00000000000E+00 0.  1.
         22    1    1    2    0    0 -0.15323401560E+03  0.47141670227E+03  0.51971970918E+03  0.71820815007E+03  0.00000000000E+00 0.  1.
<mgrwt>
<rscale>  0 0.10289716E+04</rscale>
<asrwt>0</asrwt>
<pdfrwt beam="1">  1        1 0.24842588E-01 0.10289716E+04</pdfrwt>
<pdfrwt beam="2">  1       -1 0.25218730E+00 0.10289716E+04</pdfrwt>
<totfact> 0.13374699E+01</totfact>
</mgrwt>
</event>
<event>
 6    1  0.1762360E-005  0.1368456E+04  0.7818608E-02  0.8976973E-01
         -2   -1    0    0    0  501 -0.00000000000E+00  0.00000000000E+00  0.48635593184E+03  0.48635593184E+03  0.00000000000E+00 0.  1.
          2   -1    0    0  501    0  0.00000000000E+00 -0.00000000000E+00 -0.96260408153E+03  0.96260408153E+03  0.00000000000E+00 0. -1.
         23    2    1    2    0    0  0.24898309009E+03 -0.50030309618E+03  0.17355593322E+03  0.59190627330E+03  0.89082025273E+02 0.  0.
         13    1    3    3    0    0  0.18935733403E+03 -0.31225717252E+03  0.14344739684E+03  0.39234920339E+03  0.00000000000E+00 0.  1.
        -13    1    3    3    0    0  0.59625756055E+02 -0.18804592366E+03  0.30108536379E+02  0.19955706991E+03  0.00000000000E+00 0. -1.
         22    1    1    2    0    0 -0.24898309009E+03  0.50030309618E+03 -0.64980408291E+03  0.85705374007E+03  0.00000000000E+00 0. -1.
<mgrwt>
<rscale>  0 0.13684564E+04</rscale>
<asrwt>0</asrwt>
<pdfrwt beam="1">  1        2 0.14809294E+00 0.13684564E+04</pdfrwt>
<pdfrwt beam="2">  1       -2 0.74823990E-01 0.13684564E+04</pdfrwt>
<totfact> 0.41720877E+01</totfact>
</mgrwt>
</event>
<event>
 6    1  0.1762360E-005  0.7169381E+03  0.7818608E-02  0.9688696E-01
         -2   -1    0    0    0  501 -0.00000000000E+00  0.00000000000E+00  0.26079732100E+03  0.26079732100E+03  0.00000000000E+00 0.  1.
          2   -1    0    0  501    0  0.00000000000E+00 -0.00000000000E+00 -0.49272003772E+03  0.49272003772E+03  0.00000000000E+00 0. -1.
         23    2    1    2    0    0  0.15162506335E+03 -0.31764988456E+03 -0.13887526598E+03  0.38944396353E+03  0.92133882112E+02 0.  0.
         13    1    3    3    0    0  0.10427000054E+03 -0.22910495669E+03 -0.52815367635E+02  0.25719793400E+03  0.00000000000E+00 0.  1.
        -13    1    3    3    0    0  0.47355062808E+02 -0.88544927868E+02 -0.86059898342E+02  0.13224602953E+03  0.00000000000E+00 0. -1.
         22    1    1    2    0    0 -0.15162506335E+03  0.31764988456E+03 -0.93047450747E+02  0.36407339519E+03  0.00000000000E+00 0.  1.
<mgrwt>
<rscale>  0 0.71693812E+03</rscale>
<asrwt>0</asrwt>
<pdfrwt beam="1">  1        2 0.75803082E-01 0.71693812E+03</pdfrwt>
<pdfrwt beam="2">  1       -2 0.40122665E-01 0.71693812E+03</pdfrwt>
<totfact> 0.37112057E+02</totfact>
</mgrwt>
</event>
<event>
 6    1  0.1762360E-005  0.2050122E+04  0.7818608E-02  0.8583539E-01
          2   -1    0    0  501    0  0.00000000000E+00  0.00000000000E+00  0.26302894567E+04  0.26302894567E+04  0.00000000000E+00 0. -1.
         -2   -1    0    0    0  501 -0.00000000000E+00 -0.00000000000E+00 -0.39948073995E+03  0.39948073995E+03  0.00000000000E+00 0.  1.
         23    2    1    2    0    0 -0.77359882612E+03 -0.40665255711E+03  0.33061347846E+03  0.93822450276E+03  0.84489641088E+02 0.  0.
         11    1    3    3    0    0 -0.68255168698E+03 -0.38610980151E+03  0.30521158803E+03  0.84149373003E+03  0.00000000000E+00 0. -1.
        -11    1    3    3    0    0 -0.91047139148E+02 -0.20542755600E+02  0.25401890434E+02  0.96730772727E+02  0.00000000000E+00 0.  1.
         22    1    1    2    0    0  0.77359882612E+03  0.40665255711E+03  0.19001952383E+04  0.20915456939E+04  0.00000000000E+00 0. -1.
<mgrwt>
<rscale>  0 0.20501219E+04</rscale>
<asrwt>0</asrwt>
<pdfrwt beam="1">  1        2 0.40465991E+00 0.20501219E+04</pdfrwt>
<pdfrwt beam="2">  1       -2 0.61458577E-01 0.20501219E+04</pdfrwt>
<totfact> 0.66565736E+00</totfact>
</mgrwt>
</event>
<event>
 6    1  0.1762360E-005  0.2295444E+04  0.7818608E-02  0.8479720E-01
         -2   -1    0    0    0  501 -0.00000000000E+00  0.00000000000E+00  0.41915508426E+03  0.41915508426E+03  0.00000000000E+00 0. -1.
          2   -1    0    0  501    0  0.00000000000E+00 -0.00000000000E+00 -0.31426695887E+04  0.31426695887E+04  0.00000000000E+00 0.  1.
         23    2    1    2    0    0  0.17590409893E+02  0.22180770658E+03 -0.31081257187E+04  0.31174893634E+04  0.93735622353E+02 0.  0.
         13    1    3    3    0    0 -0.27640316474E+02  0.16738886496E+03 -0.20570040473E+04  0.20639885343E+04  0.00000000000E+00 0.  1.
        -13    1    3    3    0    0  0.45230726367E+02  0.54418841615E+02 -0.10511216714E+04  0.10535008291E+04  0.00000000000E+00 0. -1.
         22    1    1    2    0    0 -0.17590409893E+02 -0.22180770658E+03  0.38461121421E+03  0.44433530955E+03  0.00000000000E+00 0. -1.
<mgrwt>
<rscale>  0 0.22954441E+04</rscale>
<asrwt>0</asrwt>
<pdfrwt beam="1">  1        2 0.48348764E+00 0.22954441E+04</pdfrwt>
<pdfrwt beam="2">  1       -2 0.64485397E-01 0.22954441E+04</pdfrwt>
<totfact> 0.28491464E+00</totfact>
</mgrwt>
</event>
<event>
 6    1  0.1762360E-005  0.1838647E+04  0.7818608E-02  0.8686013E-01
          2   -1    0    0  501    0  0.00000000000E+00  0.00000000000E+00  0.28629366590E+04  0.28629366590E+04  0.00000000000E+00 0. -1.
         -2   -1    0    0    0  501 -0.00000000000E+00 -0.00000000000E+00 -0.29520575644E+03  0.29520575644E+03  0.00000000000E+00 0.  1.
         23    2    1    2    0    0  0.73646479795E+03 -0.79776659409E+02  0.22156574016E+04  0.23379592261E+04  0.90393072724E+02 0.  0.
         13    1    3    3    0    0  0.33730220130E+03 -0.14234476506E+02  0.11317875427E+04  0.11810666523E+04  0.00000000000E+00 0.  1.
        -13    1    3    3    0    0  0.39916259665E+03 -0.65542182903E+02  0.10838698589E+04  0.11568925738E+04  0.00000000000E+00 0. -1.
         22    1    1    2    0    0 -0.73646479795E+03  0.79776659409E+02  0.35207350096E+03  0.82018318934E+03  0.00000000000E+00 0.  1.
<mgrwt>
<rscale>  0 0.18386467E+04</rscale>
<asrwt>0</asrwt>
<pdfrwt beam="1">  1        2 0.44045178E+00 0.18386467E+04</pdfrwt>
<pdfrwt beam="2">  1       -2 0.45416272E-01 0.18386467E+04</pdfrwt>
<totfact> 0.91854451E+00</totfact>
</mgrwt>
</event>
<event>
 6    1  0.1762360E-005  0.5179905E+04  0.7818608E-02  0.7801339E-01
         -2   -1    0    0    0  501 -0.00000000000E+00  0.00000000000E+00  0.42097663104E+04  0.42097663104E+04  0.00000000000E+00 0.  1.
          2   -1    0    0  501    0  0.00000000000E+00 -0.00000000000E+00 -0.15934031504E+04  0.15934031504E+04  0.00000000000E+00 0. -1.
         23    2    1    2    0    0  0.61555044585E+03  0.13751599068E+04  0.36675478739E+04  0.39660640138E+04  0.93750916205E+02 0.  0.
         11    1    3    3    0    0  0.23031055588E+03  0.46460550116E+03  0.13675705452E+04  0.14625834746E+04  0.00000000000E+00 0.  1.
        -11    1    3    3    0    0  0.38523988997E+03  0.91055440559E+03  0.22999773286E+04  0.25034805393E+04  0.00000000000E+00 0. -1.
         22    1    1    2    0    0 -0.61555044585E+03 -0.13751599068E+04 -0.10511847139E+04  0.18371054470E+04  0.00000000000E+00 0. -1.
<mgrwt>
<rscale>  0 0.51799054E+04</rscale>
<asrwt>0</asrwt>
<pdfrwt beam="1">  1        2 0.24513895E+00 0.51799054E+04</pdfrwt>
<pdfrwt beam="2">  1       -2 0.64765635E+00 0.51799054E+04</pdfrwt>
<totfact> 0.27959310E-03</totfact>
</mgrwt>
</event>
<event>
 6    1  0.1762360E-005  0.3743724E+04  0.7818608E-02  0.8058341E-01
          2   -1    0    0  501    0  0.00000000000E+00  0.00000000000E+00  0.19615011927E+04  0.19615011927E+04  0.00000000000E+00 0. -1.
         -2   -1    0    0    0  501 -0.00000000000E+00 -0.00000000000E+00 -0.17863193183E+04  0.17863193183E+04  0.00000000000E+00 0.  1.
         23    2    1    2    0    0 -0.10824141547E+04  0.86969575569E+03  0.13427358352E+04  0.19336613777E+04  0.90087128481E+02 0.  0.
         13    1    3    3    0    0 -0.75440823110E+03  0.64499577331E+03  0.99597209067E+03  0.14060980521E+04  0.00000000000E+00 0. -1.
        -13    1    3    3    0    0 -0.32800592355E+03  0.22469998239E+03  0.34676374458E+03  0.52756332560E+03  0.00000000000E+00 0.  1.
         22    1    1    2    0    0  0.10824141547E+04 -0.86969575569E+03 -0.11675539608E+04  0.18141591334E+04  0.00000000000E+00 0.  1.
<mgrwt>
<rscale>  0 0.37437241E+04</rscale>
<asrwt>0</asrwt>
<pdfrwt beam="1">  1        2 0.30176942E+00 0.37437241E+04</pdfrwt>
<pdfrwt beam="2">  1       -2 0.27481836E+00 0.37437241E+04</pdfrwt>
<totfact> 0.25608958E-01</totfact>
</mgrwt>
</event>
<event>
 6    1  0.1762360E-005  0.3299401E+04  0.7818608E-02  0.8163048E-01
         -1   -1    0    0    0  501 -0.00000000000E+00  0.00000000000E+00  0.12250125837E+04  0.12250125837E+04  0.00000000000E+00 0. -1.
          1   -1    0    0  501    0  0.00000000000E+00 -0.00000000000E+00 -0.22216191105E+04  0.22216191105E+04  0.00000000000E+00 0.  1.
         23    2    1    2    0    0 -0.65016723042E+03 -0.66385944317E+03  0.92358905490E+03  0.13134233453E+04  0.92937365169E+02 0.  0.
         11    1    3    3    0    0 -0.39951757832E+03 -0.41108568829E+03  0.50521411297E+03  0.76409884076E+03  0.00000000000E+00 0. -1.
        -11    1    3    3    0    0 -0.25064965210E+03 -0.25277375489E+03  0.41837494193E+03  0.54932450454E+03  0.00000000000E+00 0.  1.
         22    1    1    2    0    0  0.65016723042E+03  0.66385944317E+03 -0.19201955817E+04  0.21332083489E+04  0.00000000000E+00 0.  1.
<mgrwt>
<rscale>  0 0.32994008E+04</rscale>
<asrwt>0</asrwt>
<pdfrwt beam="1">  1        1 0.34178755E+00 0.32994008E+04</pdfrwt>
<pdfrwt beam="2">  1       -1 0.18846348E+00 0.32994008E+04</pdfrwt>
<totfact> 0.31647434E-01</totfact>
</mgrwt>
</event>
<event>
 6    1  0.1762360E-005  0.3120445E+04  0.7818608E-02  0.8210149E-01
         -2   -1    0    0    0  501 -0.00000000000E+00  0.00000000000E+00  0.18417541226E+04  0.18417541226E+04  0.00000000000E+00 0. -1.
          2   -1    0    0  501    0  0.00000000000E+00 -0.00000000000E+00 -0.13217255927E+04  0.13217255927E+04  0.00000000000E+00 0.  1.
         23    2    1    2    0    0  0.16791898999E+03  0.20402105451E+03  0.18177635501E+04  0.18391166380E+04  0.90908230604E+02 0.  0.
         13    1    3    3    0    0  0.75405707941E+02  0.39534920141E+02  0.40891140894E+03  0.41768118351E+03  0.00000000000E+00 0.  1.
        -13    1    3    3    0    0  0.92513282045E+02  0.16448613437E+03  0.14088521411E+04  0.14214354545E+04  0.00000000000E+00 0. -1.
         22    1    1    2    0    0 -0.16791898999E+03 -0.20402105451E+03 -0.12977350202E+04  0.13243630773E+04  0.00000000000E+00 0.  1.
<mgrwt>
<rscale>  0 0.31204446E+04</rscale>
<asrwt>0</asrwt>
<pdfrwt beam="1">  1        2 0.20334240E+00 0.31204446E+04</pdfrwt>
<pdfrwt beam="2">  1       -2 0.28334679E+00 0.31204446E+04</pdfrwt>
<totfact> 0.54678077E-01</totfact>
</mgrwt>
</event>
<event>
 6    1  0.1762360E-005  0.1626357E+04  0.7818608E-02  0.8804518E-01
          2   -1    0    0  501    0  0.00000000000E+00  0.00000000000E+00  0.10965468362E+04  0.10965468362E+04  0.00000000000E+00 0. -1.
         -2   -1    0    0    0  501 -0.00000000000E+00 -0.00000000000E+00 -0.60303764958E+03  0.60303764958E+03  0.00000000000E+00 0.  1.
         23    2    1    2    0    0  0.50971402977E+01  0.19437155885E+03  0.10698304125E+04  0.10913473287E+04  0.93250182532E+02 0.  0.
         13    1    3    3    0    0 -0.11566018505E+02  0.16659650465E+03  0.68126880363E+03  0.70143805923E+03  0.00000000000E+00 0.  1.
        -13    1    3    3    0    0  0.16663158803E+02  0.27775054201E+02  0.38856160891E+03  0.38990926947E+03  0.00000000000E+00 0. -1.
         22    1    1    2    0    0 -0.50971402977E+01 -0.19437155885E+03 -0.57632122595E+03  0.60823715704E+03  0.00000000000E+00 0.  1.
<mgrwt>
<rscale>  0 0.16263567E+04</rscale>
<asrwt>0</asrwt>
<pdfrwt beam="1">  1        2 0.16869951E+00 0.16263567E+04</pdfrwt>
<pdfrwt beam="2">  1       -2 0.92775023E-01 0.16263567E+04</pdfrwt>
<totfact> 0.20641418E+01</totfact>
</mgrwt>
</event>
<event>
 6    1  0.1762360E-005  0.3458105E+04  0.7818608E-02  0.8123791E-01
          1   -1    0    0  501    0  0.00000000000E+00  0.00000000000E+00  0.28563856143E+04  0.28563856143E+04  0.00000000000E+00 0. -1.
         -1   -1    0    0    0  501 -0.00000000000E+00 -0.00000000000E+00 -0.10466451502E+04  0.10466451502E+04  0.00000000000E+00 0.  1.
         23    2    1    2    0    0  0.85632567110E+03 -0.92147002611E+03 -0.43009212797E+03  0.13341300844E+04  0.11190701320E+03 0.  0.
         11    1    3    3    0    0  0.34637196216E+03 -0.45255593448E+03 -0.18129956173E+03  0.59803841105E+03  0.00000000000E+00 0. -1.
        -11    1    3    3    0    0  0.50995370894E+03 -0.46891409163E+03 -0.24879256625E+03  0.73609167337E+03  0.00000000000E+00 0.  1.
         22    1    1    2    0    0 -0.85632567110E+03  0.92147002611E+03  0.22398325920E+04  0.25689006801E+04  0.00000000000E+00 0. -1.
<mgrwt>
<rscale>  0 0.34581048E+04</rscale>
<asrwt>0</asrwt>
<pdfrwt beam="1">  1        1 0.43944394E+00 0.34581048E+04</pdfrwt>
<pdfrwt beam="2">  1       -1 0.16102233E+00 0.34581048E+04</pdfrwt>
<totfact> 0.17838735E-01</totfact>
</mgrwt>
</event>
<event>
 6    1  0.1762360E-005  0.1867155E+04  0.7818608E-02  0.8671380E-01
          2   -1    0    0  501    0  0.00000000000E+00  0.00000000000E+00  0.12905023870E+04  0.12905023870E+04  0.00000000000E+00 0. -1.
         -2   -1    0    0    0  501 -0.00000000000E+00 -0.00000000000E+00 -0.67537015380E+03  0.67537015380E+03  0.00000000000E+00 0.  1.
         23    2    1    2    0    0  0.88328035359E+03  0.20464783440E+03  0.53283744678E+03  0.10554674930E+04  0.89615651542E+02 0.  0.
         13    1    3    3    0    0  0.31615371712E+03  0.58583407529E+02  0.14268661925E+03  0.35177359167E+03  0.00000000000E+00 0.  1.
        -13    1    3    3    0    0  0.56712663648E+03  0.14606442687E+03  0.39015082753E+03  0.70369390137E+03  0.00000000000E+00 0. -1.
         22    1    1    2    0    0 -0.88328035359E+03 -0.20464783440E+03  0.82294786454E+02  0.91040504779E+03  0.00000000000E+00 0. -1.
<mgrwt>
<rscale>  0 0.18671548E+04</rscale>
<asrwt>0</asrwt>
<pdfrwt beam="1">  1        2 0.19853883E+00 0.18671548E+04</pdfrwt>
<pdfrwt beam="2">  1       -2 0.10390310E+00 0.18671548E+04</pdfrwt>
<totfact> 0.11854818E+01</totfact>
</mgrwt>
</event>
<event>
 6    1  0.1762360E-005  0.5863010E+03  0.7818608E-02  0.9934242E-01
         -2   -1    0    0    0  501 -0.00000000000E+00  0.00000000000E+00  0.38855255375E+02  0.38855255375E+02  0.00000000000E+00 0.  1.
          2   -1    0    0  501    0  0.00000000000E+00 -0.00000000000E+00 -0.22117268441E+04  0.22117268441E+04  0.00000000000E+00 0. -1.
         23    2    1    2    0    0 -0.30480317090E+02 -0.27563078434E+03 -0.14120049764E+04  0.14407553398E+04  0.71529830521E+02 0.  0.
         13    1    3    3    0    0 -0.50752443009E+02 -0.23201452181E+03 -0.12117352366E+04  0.12347910076E+04  0.00000000000E+00 0. -1.
        -13    1    3    3    0    0  0.20272125919E+02 -0.43616262530E+02 -0.20026973981E+03  0.20596433218E+03  0.00000000000E+00 0.  1.
         22    1    1    2    0    0  0.30480317090E+02  0.27563078434E+03 -0.76086661235E+03  0.80982675975E+03  0.00000000000E+00 0.  1.
<mgrwt>
<rscale>  0 0.58630099E+03</rscale>
<asrwt>0</asrwt>
<pdfrwt beam="1">  1        2 0.34026569E+00 0.58630099E+03</pdfrwt>
<pdfrwt beam="2">  1       -2 0.59777313E-02 0.58630099E+03</pdfrwt>
<totfact> 0.82699495E+02</totfact>
</mgrwt>
</event>
<event>
 6    1  0.1762360E-005  0.1631453E+04  0.7818608E-02  0.8801455E-01
         -1   -1    0    0    0  501 -0.00000000000E+00  0.00000000000E+00  0.32066829020E+03  0.32066829020E+03  0.00000000000E+00 0.  1.
          1   -1    0    0  501    0  0.00000000000E+00 -0.00000000000E+00 -0.20750718656E+04  0.20750718656E+04  0.00000000000E+00 0. -1.
         23    2    1    2    0    0  0.17540879049E+03 -0.34743006360E+02 -0.20448660289E+04  0.20546481490E+04  0.90147765755E+02 0.  0.
         13    1    3    3    0    0  0.90638177093E+01 -0.40641856205E+01 -0.57430236509E+03  0.57438826324E+03  0.00000000000E+00 0.  1.
        -13    1    3    3    0    0  0.16634497278E+03 -0.30678820740E+02 -0.14705636638E+04  0.14802598857E+04  0.00000000000E+00 0. -1.
         22    1    1    2    0    0 -0.17540879049E+03  0.34743006360E+02  0.29046245346E+03  0.34109200686E+03  0.00000000000E+00 0.  1.
<mgrwt>
<rscale>  0 0.16314530E+04</rscale>
<asrwt>0</asrwt>
<pdfrwt beam="1">  1        1 0.31924183E+00 0.16314530E+04</pdfrwt>
<pdfrwt beam="2">  1       -1 0.49333582E-01 0.16314530E+04</pdfrwt>
<totfact> 0.10448448E+01</totfact>
</mgrwt>
</event>
<event>
 6    1  0.1762360E-005  0.1142724E+04  0.7818608E-02  0.9164522E-01
         -1   -1    0    0    0  501 -0.00000000000E+00  0.00000000000E+00  0.25605970397E+03  0.25605970397E+03  0.00000000000E+00 0.  1.
          1   -1    0    0  501    0  0.00000000000E+00 -0.00000000000E+00 -0.12749153908E+04  0.12749153908E+04  0.00000000000E+00 0. -1.
         23    2    1    2    0    0  0.39304768414E+03 -0.26777648147E+02  0.27902885649E+02  0.41253554186E+03  0.11917834458E+03 0.  0.
         11    1    3    3    0    0  0.94523022663E+02  0.16854514849E+02 -0.38793241026E+02  0.10355477794E+03  0.00000000000E+00 0. -1.
        -11    1    3    3    0    0  0.29852466148E+03 -0.43632162996E+02  0.66696126675E+02  0.30898076392E+03  0.00000000000E+00 0.  1.
         22    1    1    2    0    0 -0.39304768414E+03  0.26777648147E+02 -0.10467585725E+04  0.11184395529E+04  0.00000000000E+00 0. -1.
<mgrwt>
<rscale>  0 0.11427239E+04</rscale>
<asrwt>0</asrwt>
<pdfrwt beam="1">  1        1 0.19614083E+00 0.11427239E+04</pdfrwt>
<pdfrwt beam="2">  1       -1 0.39393801E-01 0.11427239E+04</pdfrwt>
<totfact> 0.58648243E+01</totfact>
</mgrwt>
</event>
<event>
 6    1  0.1762360E-005  0.4260378E+04  0.7818608E-02  0.7953985E-01
         -1   -1    0    0    0  501 -0.00000000000E+00  0.00000000000E+00  0.15050565839E+04  0.15050565839E+04  0.00000000000E+00 0.  1.
          1   -1    0    0  501    0  0.00000000000E+00 -0.00000000000E+00 -0.30149737564E+04  0.30149737564E+04  0.00000000000E+00 0. -1.
         23    2    1    2    0    0 -0.19522054021E+04 -0.79586095856E+03 -0.43876105346E+03  0.21553155523E+04  0.91505576195E+02 0.  0.
         13    1    3    3    0    0 -0.12558853632E+04 -0.46446453718E+03 -0.27621748542E+03  0.13672130233E+04  0.00000000000E+00 0.  1.
        -13    1    3    3    0    0 -0.69632003892E+03 -0.33139642138E+03 -0.16254356804E+03  0.78810252900E+03  0.00000000000E+00 0. -1.
         22    1    1    2    0    0  0.19522054021E+04  0.79586095856E+03 -0.10711561191E+04  0.23647147881E+04  0.00000000000E+00 0. -1.
<mgrwt>
<rscale>  0 0.42603784E+04</rscale>
<asrwt>0</asrwt>
<pdfrwt beam="1">  1        1 0.46384211E+00 0.42603784E+04</pdfrwt>
<pdfrwt beam="2">  1       -1 0.23154717E+00 0.42603784E+04</pdfrwt>
<totfact> 0.41154601E-02</totfact>
</mgrwt>
</event>
<event>
 6    1  0.1762360E-005  0.3374050E+04  0.7818608E-02  0.8144305E-01
          1   -1    0    0  501    0  0.00000000000E+00  0.00000000000E+00  0.25431613591E+04  0.25431613591E+04  0.00000000000E+00 0. -1.
         -1   -1    0    0    0  501 -0.00000000000E+00 -0.00000000000E+00 -0.11191005756E+04  0.11191005756E+04  0.00000000000E+00 0.  1.
         23    2    1    2    0    0 -0.91996033418E+03  0.14428928842E+03  0.22378702518E+04  0.24255597612E+04  0.90169153305E+02 0.  0.
         13    1    3    3    0    0 -0.52531652620E+03  0.64577891347E+02  0.13762645326E+04  0.14745276601E+04  0.00000000000E+00 0.  1.
        -13    1    3    3    0    0 -0.39464380798E+03  0.79711397070E+02  0.86160571916E+03  0.95103210109E+03  0.00000000000E+00 0. -1.
         22    1    1    2    0    0  0.91996033418E+03 -0.14428928842E+03 -0.81380946826E+03  0.12367021735E+04  0.00000000000E+00 0.  1.
<mgrwt>
<rscale>  0 0.33740500E+04</rscale>
<asrwt>0</asrwt>
<pdfrwt beam="1">  1        1 0.39125559E+00 0.33740500E+04</pdfrwt>
<pdfrwt beam="2">  1       -1 0.17216932E+00 0.33740500E+04</pdfrwt>
<totfact> 0.24719117E-01</totfact>
</mgrwt>
</event>
<event>
 6    1  0.1762360E-005  0.3209906E+04  0.7818608E-02  0.8186206E-01
         -2   -1    0    0    0  501 -0.00000000000E+00  0.00000000000E+00  0.12680693707E+04  0.12680693707E+04  0.00000000000E+00 0.  1.
          2   -1    0    0  501    0  0.00000000000E+00 -0.00000000000E+00 -0.20313350713E+04  0.20313350713E+04  0.00000000000E+00 0. -1.
         23    2    1    2    0    0 -0.13745157881E+04 -0.15494131573E+03  0.45210680474E+03  0.14580921953E+04  0.91278825465E+02 0.  0.
         11    1    3    3    0    0 -0.12109060076E+04 -0.10645151084E+03  0.39820232048E+03  0.12791365727E+04  0.00000000000E+00 0. -1.
        -11    1    3    3    0    0 -0.16360978047E+03 -0.48489804890E+02  0.53904484268E+02  0.17895562262E+03  0.00000000000E+00 0.  1.
         22    1    1    2    0    0  0.13745157881E+04  0.15494131573E+03 -0.12153725054E+04  0.18413122467E+04  0.00000000000E+00 0. -1.
<mgrwt>
<rscale>  0 0.32099058E+04</rscale>
<asrwt>0</asrwt>
<pdfrwt beam="1">  1        2 0.31251309E+00 0.32099058E+04</pdfrwt>
<pdfrwt beam="2">  1       -2 0.19508760E+00 0.32099058E+04</pdfrwt>
<totfact> 0.77401141E-01</totfact>
</mgrwt>
</event>
<event>
 6    1  0.1762360E-005  0.4925421E+04  0.7818608E-02  0.7840116E-01
         -2   -1    0    0    0  501 -0.00000000000E+00  0.00000000000E+00  0.25347595861E+04  0.25347595861E+04  0.00000000000E+00 0. -1.
          2   -1    0    0  501    0  0.00000000000E+00 -0.00000000000E+00 -0.23927089849E+04  0.23927089849E+04  0.00000000000E+00 0.  1.
         23    2    1    2    0    0 -0.26019693799E+03  0.11658826894E+04  0.22245763021E+04  0.25266565860E+04  0.90933426098E+02 0.  0.
         11    1    3    3    0    0 -0.11980180355E+03  0.35088768759E+03  0.71246465637E+03  0.80316905320E+03  0.00000000000E+00 0. -1.
        -11    1    3    3    0    0 -0.14039513444E+03  0.81499500180E+03  0.15121116457E+04  0.17234875328E+04  0.00000000000E+00 0.  1.
         22    1    1    2    0    0  0.26019693799E+03 -0.11658826894E+04 -0.20825257010E+04  0.24008119850E+04  0.00000000000E+00 0.  1.
<mgrwt>
<rscale>  0 0.49254206E+04</rscale>
<asrwt>0</asrwt>
<pdfrwt beam="1">  1        2 0.36810907E+00 0.49254206E+04</pdfrwt>
<pdfrwt beam="2">  1       -2 0.38996301E+00 0.49254206E+04</pdfrwt>
<totfact> 0.25379434E-02</totfact>
</mgrwt>
</event>
<event>
 6    1  0.1762360E-005  0.3540805E+04  0.7818608E-02  0.8104187E-01
         -2   -1    0    0    0  501 -0.00000000000E+00  0.00000000000E+00  0.14205708656E+04  0.14205708656E+04  0.00000000000E+00 0.  1.
          2   -1    0    0  501    0  0.00000000000E+00 -0.00000000000E+00 -0.22063837125E+04  0.22063837125E+04  0.00000000000E+00 0. -1.
         23    2    1    2    0    0 -0.15547771018E+04 -0.50219655487E+03 -0.10884606146E+04  0.19652900852E+04  0.89918816034E+02 0.  0.
         13    1    3    3    0    0 -0.51975415599E+03 -0.20515385081E+03 -0.40045153479E+03  0.68745466533E+03  0.00000000000E+00 0. -1.
        -13    1    3    3    0    0 -0.10350229458E+04 -0.29704270406E+03 -0.68800907979E+03  0.12778354198E+04  0.00000000000E+00 0.  1.
         22    1    1    2    0    0  0.15547771018E+04  0.50219655487E+03  0.30264776771E+03  0.16616644930E+04  0.00000000000E+00 0.  1.
<mgrwt>
<rscale>  0 0.35408047E+04</rscale>
<asrwt>0</asrwt>
<pdfrwt beam="1">  1        2 0.33944365E+00 0.35408047E+04</pdfrwt>
<pdfrwt beam="2">  1       -2 0.21854936E+00 0.35408047E+04</pdfrwt>
<totfact> 0.42343242E-01</totfact>
</mgrwt>
</event>
<event>
 6    1  0.1762360E-005  0.1103558E+04  0.7818608E-02  0.9201731E-01
          1   -1    0    0  501    0  0.00000000000E+00  0.00000000000E+00  0.14360491516E+04  0.14360491516E+04  0.00000000000E+00 0. -1.
         -1   -1    0    0    0  501 -0.00000000000E+00 -0.00000000000E+00 -0.21201244860E+03  0.21201244860E+03  0.00000000000E+00 0.  1.
         23    2    1    2    0    0  0.43839503349E+03  0.23869705011E+03  0.27826823717E+03  0.57864845361E+03  0.90743230749E+02 0.  0.
         13    1    3    3    0    0  0.18111293756E+03  0.96486267609E+02  0.64279488721E+02  0.21504266706E+03  0.00000000000E+00 0. -1.
        -13    1    3    3    0    0  0.25728209594E+03  0.14221078250E+03  0.21398874845E+03  0.36360578655E+03  0.00000000000E+00 0.  1.
         22    1    1    2    0    0 -0.43839503349E+03 -0.23869705011E+03  0.94576846580E+03  0.10694131466E+04  0.00000000000E+00 0. -1.
<mgrwt>
<rscale>  0 0.11035584E+04</rscale>
<asrwt>0</asrwt>
<pdfrwt beam="1">  1        1 0.22093063E+00 0.11035584E+04</pdfrwt>
<pdfrwt beam="2">  1       -1 0.32617301E-01 0.11035584E+04</pdfrwt>
<totfact> 0.63528719E+01</totfact>
</mgrwt>
</event>
<event>
 6    1  0.1762360E-005  0.1920774E+04  0.7818608E-02  0.8644584E-01
         -2   -1    0    0    0  501 -0.00000000000E+00  0.00000000000E+00  0.92480165175E+03  0.92480165175E+03  0.00000000000E+00 0.  1.
          2   -1    0    0  501    0  0.00000000000E+00 -0.00000000000E+00 -0.99734161914E+03  0.99734161914E+03  0.00000000000E+00 0. -1.
         23    2    1    2    0    0  0.89426397571E+03 -0.35553108139E+02 -0.37833572182E+03  0.97637209075E+03  0.95877314507E+02 0.  0.
         13    1    3    3    0    0  0.66847811391E+03 -0.22111346768E+02 -0.23665810653E+03  0.70947794879E+03  0.00000000000E+00 0.  1.
        -13    1    3    3    0    0  0.22578586180E+03 -0.13441761371E+02 -0.14167761529E+03  0.26689414196E+03  0.00000000000E+00 0. -1.
         22    1    1    2    0    0 -0.89426397571E+03  0.35553108139E+02  0.30579575444E+03  0.94577118014E+03  0.00000000000E+00 0.  1.
<mgrwt>
<rscale>  0 0.19207740E+04</rscale>
<asrwt>0</asrwt>
<pdfrwt beam="1">  1        2 0.15343717E+00 0.19207740E+04</pdfrwt>
<pdfrwt beam="2">  1       -2 0.14227718E+00 0.19207740E+04</pdfrwt>
<totfact> 0.81417467E+00</totfact>
</mgrwt>
</event>
<event>
 6    1  0.1762360E-005  0.1163782E+04  0.7818608E-02  0.9145163E-01
         -1   -1    0    0    0  501 -0.00000000000E+00  0.00000000000E+00  0.41086922049E+03  0.41086922049E+03  0.00000000000E+00 0.  1.
          1   -1    0    0  501    0  0.00000000000E+00 -0.00000000000E+00 -0.82409936062E+03  0.82409936062E+03  0.00000000000E+00 0. -1.
         23    2    1    2    0    0 -0.27764402723E+03  0.34506569864E+03 -0.60264002895E+03  0.75327090806E+03  0.89919487350E+02 0.  0.
         11    1    3    3    0    0 -0.12660855822E+03  0.12459179681E+03 -0.17753307470E+03  0.25113907593E+03  0.00000000000E+00 0. -1.
        -11    1    3    3    0    0 -0.15103546900E+03  0.22047390183E+03 -0.42510695425E+03  0.50213183213E+03  0.00000000000E+00 0.  1.
         22    1    1    2    0    0  0.27764402723E+03 -0.34506569864E+03  0.18940988882E+03  0.48169767304E+03  0.00000000000E+00 0.  1.
<mgrwt>
<rscale>  0 0.11637819E+04</rscale>
<asrwt>0</asrwt>
<pdfrwt beam="1">  1        1 0.12678452E+00 0.11637819E+04</pdfrwt>
<pdfrwt beam="2">  1       -1 0.63210650E-01 0.11637819E+04</pdfrwt>
<totfact> 0.53081637E+01</totfact>
</mgrwt>
</event>
<event>
 6    1  0.1762360E-005  0.1521155E+04  0.7818608E-02  0.8870506E-01
          2   -1    0    0  501    0  0.00000000000E+00  0.00000000000E+00  0.10288253226E+04  0.10288253226E+04  0.00000000000E+00 0. -1.
         -2   -1    0    0    0  501 -0.00000000000E+00 -0.00000000000E+00 -0.56227040397E+03  0.56227040397E+03  0.00000000000E+00 0.  1.
         23    2    1    2    0    0 -0.13660136994E+03  0.73696329218E+03  0.35176766544E+03  0.83284053090E+03  0.90044606571E+02 0.  0.
         13    1    3    3    0    0 -0.13674041817E+02  0.27323983348E+03  0.10201542006E+03  0.29198310216E+03  0.00000000000E+00 0. -1.
        -13    1    3    3    0    0 -0.12292732812E+03  0.46372345870E+03  0.24975224537E+03  0.54085742874E+03  0.00000000000E+00 0.  1.
         22    1    1    2    0    0  0.13660136994E+03 -0.73696329218E+03  0.11478725321E+03  0.75825519569E+03  0.00000000000E+00 0.  1.
<mgrwt>
<rscale>  0 0.15211549E+04</rscale>
<asrwt>0</asrwt>
<pdfrwt beam="1">  1        2 0.15828082E+00 0.15211549E+04</pdfrwt>
<pdfrwt beam="2">  1       -2 0.86503139E-01 0.15211549E+04</pdfrwt>
<totfact> 0.26965528E+01</totfact>
</mgrwt>
</event>
<event>
 6    1  0.1762360E-005  0.1179128E+04  0.7818608E-02  0.9131324E-01
          1   -1    0    0  501    0  0.00000000000E+00  0.00000000000E+00  0.11714215851E+04  0.11714215851E+04  0.00000000000E+00 0. -1.
         -1   -1    0    0    0  501 -0.00000000000E+00 -0.00000000000E+00 -0.29672131759E+03  0.29672131759E+03  0.00000000000E+00 0.  1.
         23    2    1    2    0    0 -0.51993305436E+03  0.23480381660E+03  0.27279222720E+03  0.63883204283E+03  0.90705933761E+02 0.  0.
         13    1    3    3    0    0 -0.33394037910E+03  0.10327852000E+03  0.15481921844E+03  0.38229781569E+03  0.00000000000E+00 0. -1.
        -13    1    3    3    0    0 -0.18599267526E+03  0.13152529660E+03  0.11797300876E+03  0.25653422714E+03  0.00000000000E+00 0.  1.
         22    1    1    2    0    0  0.51993305436E+03 -0.23480381660E+03  0.60190804036E+03  0.82931085990E+03  0.00000000000E+00 0.  1.
<mgrwt>
<rscale>  0 0.11791281E+04</rscale>
<asrwt>0</asrwt>
<pdfrwt beam="1">  1        1 0.18021870E+00 0.11791281E+04</pdfrwt>
<pdfrwt beam="2">  1       -1 0.45649434E-01 0.11791281E+04</pdfrwt>
<totfact> 0.52977257E+01</totfact>
</mgrwt>
</event>
<event>
 6    1  0.1762360E-005  0.2745191E+04  0.7818608E-02  0.8320489E-01
         -2   -1    0    0    0  501 -0.00000000000E+00  0.00000000000E+00  0.13000927590E+04  0.13000927590E+04  0.00000000000E+00 0.  1.
          2   -1    0    0  501    0  0.00000000000E+00 -0.00000000000E+00 -0.14491410775E+04  0.14491410775E+04  0.00000000000E+00 0. -1.
         23    2    1    2    0    0 -0.51647841667E+03  0.12319182806E+04  0.23483878617E+03  0.13593626502E+04  0.91350721526E+02 0.  0.
         13    1    3    3    0    0 -0.16705364422E+03  0.46952532993E+03  0.12273429769E+03  0.51324912404E+03  0.00000000000E+00 0. -1.
        -13    1    3    3    0    0 -0.34942477245E+03  0.76239295070E+03  0.11210448848E+03  0.84611352619E+03  0.00000000000E+00 0.  1.
         22    1    1    2    0    0  0.51647841667E+03 -0.12319182806E+04 -0.38388710466E+03  0.13898711862E+04  0.00000000000E+00 0. -1.
<mgrwt>
<rscale>  0 0.27451906E+04</rscale>
<asrwt>0</asrwt>
<pdfrwt beam="1">  1        2 0.22294478E+00 0.27451906E+04</pdfrwt>
<pdfrwt beam="2">  1       -2 0.20001427E+00 0.27451906E+04</pdfrwt>
<totfact> 0.15767915E+00</totfact>
</mgrwt>
</event>
<event>
 6    1  0.1762360E-005  0.1943533E+04  0.7818608E-02  0.8633485E-01
          2   -1    0    0  501    0  0.00000000000E+00  0.00000000000E+00  0.10087551160E+04  0.10087551160E+04  0.00000000000E+00 0. -1.
         -2   -1    0    0    0  501 -0.00000000000E+00 -0.00000000000E+00 -0.93613431828E+03  0.93613431828E+03  0.00000000000E+00 0.  1.
         23    2    1    2    0    0  0.58998948944E+03 -0.29885366157E+03  0.74616521858E+03  0.10009279967E+04  0.87710960116E+02 0.  0.
         11    1    3    3    0    0  0.31036912935E+03 -0.15209953650E+03  0.32425516556E+03  0.47392475969E+03  0.00000000000E+00 0. -1.
        -11    1    3    3    0    0  0.27962036009E+03 -0.14675412507E+03  0.42191005302E+03  0.52700323703E+03  0.00000000000E+00 0.  1.
         22    1    1    2    0    0 -0.58998948944E+03  0.29885366157E+03 -0.67354442087E+03  0.94396143754E+03  0.00000000000E+00 0.  1.
<mgrwt>
<rscale>  0 0.19435332E+04</rscale>
<asrwt>0</asrwt>
<pdfrwt beam="1">  1        2 0.15519309E+00 0.19435332E+04</pdfrwt>
<pdfrwt beam="2">  1       -2 0.14402066E+00 0.19435332E+04</pdfrwt>
<totfact> 0.77400187E+00</totfact>
</mgrwt>
</event>
<event>
 6    1  0.1762360E-005  0.1188109E+04  0.7818608E-02  0.9123329E-01
          1   -1    0    0  501    0  0.00000000000E+00  0.00000000000E+00  0.10003846551E+04  0.10003846551E+04  0.00000000000E+00 0. -1.
         -1   -1    0    0    0  501 -0.00000000000E+00 -0.00000000000E+00 -0.35276522431E+03  0.35276522431E+03  0.00000000000E+00 0.  1.
         23    2    1    2    0    0 -0.35381358238E+03 -0.33574751342E+03 -0.53238814144E+02  0.49926890214E+03  0.92328876689E+02 0.  0.
         13    1    3    3    0    0 -0.32408324658E+03 -0.33386393427E+03 -0.41104436128E+02  0.46710239990E+03  0.00000000000E+00 0.  1.
        -13    1    3    3    0    0 -0.29730335795E+02 -0.18835791564E+01 -0.12134378017E+02  0.32166502246E+02  0.00000000000E+00 0. -1.
         22    1    1    2    0    0  0.35381358238E+03  0.33574751342E+03  0.70085824492E+03  0.85388097725E+03  0.00000000000E+00 0. -1.
<mgrwt>
<rscale>  0 0.11881093E+04</rscale>
<asrwt>0</asrwt>
<pdfrwt beam="1">  1        1 0.15390533E+00 0.11881093E+04</pdfrwt>
<pdfrwt beam="2">  1       -1 0.54271573E-01 0.11881093E+04</pdfrwt>
<totfact> 0.51345255E+01</totfact>
</mgrwt>
</event>
<event>
 6    1  0.1762360E-005  0.3048570E+04  0.7818608E-02  0.8229996E-01
         -2   -1    0    0    0  501 -0.00000000000E+00  0.00000000000E+00  0.10452550004E+04  0.10452550004E+04  0.00000000000E+00 0. -1.
          2   -1    0    0  501    0  0.00000000000E+00 -0.00000000000E+00 -0.22228496725E+04  0.22228496725E+04  0.00000000000E+00 0.  1.
         23    2    1    2    0    0 -0.44455818901E+02  0.96445787769E+03  0.67314291453E+03  0.11806696603E+04  0.93296010894E+02 0.  0.
         13    1    3    3    0    0 -0.44291195157E+01  0.59405351820E+03  0.36545397697E+03  0.69747817806E+03  0.00000000000E+00 0. -1.
        -13    1    3    3    0    0 -0.40026699385E+02  0.37040435949E+03  0.30768893756E+03  0.48319148222E+03  0.00000000000E+00 0.  1.
         22    1    1    2    0    0  0.44455818901E+02 -0.96445787769E+03 -0.18507375866E+04  0.20874350127E+04  0.00000000000E+00 0.  1.
<mgrwt>
<rscale>  0 0.30485700E+04</rscale>
<asrwt>0</asrwt>
<pdfrwt beam="1">  1        2 0.34197687E+00 0.30485700E+04</pdfrwt>
<pdfrwt beam="2">  1       -2 0.16080846E+00 0.30485700E+04</pdfrwt>
<totfact> 0.10618867E+00</totfact>
</mgrwt>
</event>
<event>
 6    1  0.1762360E-005  0.2675523E+04  0.7818608E-02  0.8342991E-01
         -2   -1    0    0    0  501 -0.00000000000E+00  0.00000000000E+00  0.13101060341E+04  0.13101060341E+04  0.00000000000E+00 0.  1.
          2   -1    0    0  501    0  0.00000000000E+00 -0.00000000000E+00 -0.13660003767E+04  0.13660003767E+04  0.00000000000E+00 0. -1.
         23    2    1    2    0    0  0.11715198520E+04  0.34050803603E+03 -0.57115921346E+03  0.13517566181E+04  0.11233263673E+03 0.  0.
         11    1    3    3    0    0  0.87465202108E+03  0.28474634191E+03 -0.47179818698E+03  0.10337747175E+04  0.00000000000E+00 0.  1.
        -11    1    3    3    0    0  0.29686783090E+03  0.55761694115E+02 -0.99361026473E+02  0.31798190064E+03  0.00000000000E+00 0. -1.
         22    1    1    2    0    0 -0.11715198520E+04 -0.34050803603E+03  0.51526487084E+03  0.13243497927E+04  0.00000000000E+00 0.  1.
<mgrwt>
<rscale>  0 0.26755226E+04</rscale>
<asrwt>0</asrwt>
<pdfrwt beam="1">  1        2 0.21015390E+00 0.26755226E+04</pdfrwt>
<pdfrwt beam="2">  1       -2 0.20155478E+00 0.26755226E+04</pdfrwt>
<totfact> 0.17287279E+00</totfact>
</mgrwt>
</event>
<event>
 6    1  0.1762360E-005  0.3423710E+04  0.7818608E-02  0.8132112E-01
         -2   -1    0    0    0  501 -0.00000000000E+00  0.00000000000E+00  0.20713288760E+04  0.20713288760E+04  0.00000000000E+00 0. -1.
          2   -1    0    0  501    0  0.00000000000E+00 -0.00000000000E+00 -0.14147667263E+04  0.14147667263E+04  0.00000000000E+00 0.  1.
         23    2    1    2    0    0  0.80488662056E+03  0.80067635635E+03  0.16314072802E+04  0.19896838515E+04  0.91798777339E+02 0.  0.
         13    1    3    3    0    0  0.39975758469E+02  0.70492439339E+02  0.10158423566E+03  0.12994845980E+03  0.00000000000E+00 0. -1.
        -13    1    3    3    0    0  0.76491086209E+03  0.73018391701E+03  0.15298230445E+04  0.18597353917E+04  0.00000000000E+00 0.  1.
         22    1    1    2    0    0 -0.80488662056E+03 -0.80067635635E+03 -0.97484513049E+03  0.14964117508E+04  0.00000000000E+00 0.  1.
<mgrwt>
<rscale>  0 0.34237098E+04</rscale>
<asrwt>0</asrwt>
<pdfrwt beam="1">  1        2 0.21765642E+00 0.34237098E+04</pdfrwt>
<pdfrwt beam="2">  1       -2 0.31866598E+00 0.34237098E+04</pdfrwt>
<totfact> 0.28628944E-01</totfact>
</mgrwt>
</event>
<event>
 6    1  0.1762360E-005  0.2994740E+04  0.7818608E-02  0.8245234E-01
          2   -1    0    0  501    0  0.00000000000E+00  0.00000000000E+00  0.29367941891E+04  0.29367941891E+04  0.00000000000E+00 0.  1.
         -2   -1    0    0    0  501 -0.00000000000E+00 -0.00000000000E+00 -0.76345736232E+03  0.76345736232E+03  0.00000000000E+00 0. -1.
         23    2    1    2    0    0  0.12831134621E+03  0.14750816821E+04  0.82354247071E+03  0.16966860860E+04  0.90508026759E+02 0.  0.
         13    1    3    3    0    0  0.40969766600E+02  0.64563088594E+03  0.31157820230E+03  0.71805204463E+03  0.00000000000E+00 0. -1.
        -13    1    3    3    0    0  0.87341579608E+02  0.82945079618E+03  0.51196426841E+03  0.97863404138E+03  0.00000000000E+00 0.  1.
         22    1    1    2    0    0 -0.12831134621E+03 -0.14750816821E+04  0.13497943560E+04  0.20035654654E+04  0.00000000000E+00 0.  1.
<mgrwt>
<rscale>  0 0.29947402E+04</rscale>
<asrwt>0</asrwt>
<pdfrwt beam="1">  1        2 0.45181449E+00 0.29947402E+04</pdfrwt>
<pdfrwt beam="2">  1       -2 0.11745498E+00 0.29947402E+04</pdfrwt>
<totfact> 0.91372319E-01</totfact>
</mgrwt>
</event>
<event>
 6    1  0.1762360E-005  0.2040935E+04  0.7818608E-02  0.8587718E-01
          1   -1    0    0  501    0  0.00000000000E+00  0.00000000000E+00  0.17208401535E+04  0.17208401535E+04  0.00000000000E+00 0. -1.
         -1   -1    0    0    0  501 -0.00000000000E+00 -0.00000000000E+00 -0.60514258157E+03  0.60514258157E+03  0.00000000000E+00 0.  1.
         23    2    1    2    0    0 -0.18227666329E+03  0.27790562875E+03 -0.53830474940E+03  0.63892019935E+03  0.89390701132E+02 0.  0.
         13    1    3    3    0    0 -0.12089057996E+03  0.22565065335E+03 -0.34603040461E+03  0.43042977429E+03  0.00000000000E+00 0. -1.
        -13    1    3    3    0    0 -0.61386083330E+02  0.52254975399E+02 -0.19227434478E+03  0.20849042506E+03  0.00000000000E+00 0.  1.
         22    1    1    2    0    0  0.18227666329E+03 -0.27790562875E+03  0.16540023213E+04  0.16870625357E+04  0.00000000000E+00 0. -1.
<mgrwt>
<rscale>  0 0.20409347E+04</rscale>
<asrwt>0</asrwt>
<pdfrwt beam="1">  1        1 0.26474464E+00 0.20409347E+04</pdfrwt>
<pdfrwt beam="2">  1       -1 0.93098860E-01 0.20409347E+04</pdfrwt>
<totfact> 0.47765212E+00</totfact>
</mgrwt>
</event>
<event>
 6    1  0.1762360E-005  0.3458393E+04  0.7818608E-02  0.8123722E-01
          1   -1    0    0  501    0  0.00000000000E+00  0.00000000000E+00  0.13352283398E+04  0.13352283398E+04  0.00000000000E+00 0. -1.
         -1   -1    0    0    0  501 -0.00000000000E+00 -0.00000000000E+00 -0.22394073174E+04  0.22394073174E+04  0.00000000000E+00 0.  1.
         23    2    1    2    0    0  0.60360304598E+03 -0.15680895382E+04 -0.86933116670E+03  0.18940239213E+04  0.91370125639E+02 0.  0.
         11    1    3    3    0    0  0.21629326669E+03 -0.44606267652E+03 -0.25446515215E+03  0.55723173120E+03  0.00000000000E+00 0.  1.
        -11    1    3    3    0    0  0.38730977929E+03 -0.11220268617E+04 -0.61486601455E+03  0.13367921901E+04  0.00000000000E+00 0. -1.
         22    1    1    2    0    0 -0.60360304598E+03  0.15680895382E+04 -0.34847810839E+02  0.16806117359E+04  0.00000000000E+00 0. -1.
<mgrwt>
<rscale>  0 0.34583928E+04</rscale>
<asrwt>0</asrwt>
<pdfrwt beam="1">  1        1 0.20541974E+00 0.34583928E+04</pdfrwt>
<pdfrwt beam="2">  1       -1 0.34452421E+00 0.34583928E+04</pdfrwt>
<totfact> 0.11800497E-01</totfact>
</mgrwt>
</event>
<event>
 6    1  0.1762360E-005  0.5948127E+04  0.7818608E-02  0.7696867E-01
          2   -1    0    0  501    0  0.00000000000E+00  0.00000000000E+00  0.33049671972E+04  0.33049671972E+04  0.00000000000E+00 0. -1.
         -2   -1    0    0    0  501 -0.00000000000E+00 -0.00000000000E+00 -0.26762905608E+04  0.26762905608E+04  0.00000000000E+00 0.  1.
         23    2    1    2    0    0  0.19412576992E+04 -0.15449710514E+04 -0.13334185783E+04  0.28181525375E+04  0.92528996330E+02 0.  0.
         11    1    3    3    0    0  0.13605749397E+04 -0.10617304333E+04 -0.97169062309E+03  0.19805601093E+04  0.00000000000E+00 0. -1.
        -11    1    3    3    0    0  0.58068275954E+03 -0.48324061815E+03 -0.36172795523E+03  0.83759242824E+03  0.00000000000E+00 0.  1.
         22    1    1    2    0    0 -0.19412576992E+04  0.15449710514E+04  0.19620952147E+04  0.31631052205E+04  0.00000000000E+00 0. -1.
<mgrwt>
<rscale>  0 0.59481266E+04</rscale>
<asrwt>0</asrwt>
<pdfrwt beam="1">  1        2 0.50845649E+00 0.59481266E+04</pdfrwt>
<pdfrwt beam="2">  1       -2 0.41173701E+00 0.59481266E+04</pdfrwt>
<totfact> 0.46458946E-03</totfact>
</mgrwt>
</event>
<event>
 6    1  0.1762360E-005  0.8104584E+03  0.7818608E-02  0.9545001E-01
          2   -1    0    0  501    0  0.00000000000E+00  0.00000000000E+00  0.10046823108E+03  0.10046823108E+03  0.00000000000E+00 0. -1.
         -2   -1    0    0    0  501 -0.00000000000E+00 -0.00000000000E+00 -0.16344540937E+04  0.16344540937E+04  0.00000000000E+00 0.  1.
         23    2    1    2    0    0  0.11269026960E+03 -0.12617408334E+02 -0.15979954376E+04  0.16047089555E+04  0.92968368118E+02 0.  0.
         13    1    3    3    0    0  0.31965119132E+02  0.14415012230E+02 -0.10073369086E+04  0.10079470268E+04  0.00000000000E+00 0. -1.
        -13    1    3    3    0    0  0.80725150464E+02 -0.27032420564E+02 -0.59065852905E+03  0.59676192877E+03  0.00000000000E+00 0.  1.
         22    1    1    2    0    0 -0.11269026960E+03  0.12617408334E+02  0.64009574963E+02  0.13021336929E+03  0.00000000000E+00 0. -1.
<mgrwt>
<rscale>  0 0.81045842E+03</rscale>
<asrwt>0</asrwt>
<pdfrwt beam="1">  1        2 0.15456650E-01 0.81045842E+03</pdfrwt>
<pdfrwt beam="2">  1       -2 0.25145449E+00 0.81045842E+03</pdfrwt>
<totfact> 0.24898232E+01</totfact>
</mgrwt>
</event>
<event>
 6    1  0.1762360E-005  0.4539364E+04  0.7818608E-02  0.7903781E-01
         -2   -1    0    0    0  501 -0.00000000000E+00  0.00000000000E+00  0.16297889002E+04  0.16297889002E+04  0.00000000000E+00 0.  1.
          2   -1    0    0  501    0  0.00000000000E+00 -0.00000000000E+00 -0.31608121111E+04  0.31608121111E+04  0.00000000000E+00 0. -1.
         23    2    1    2    0    0  0.52687098368E+02 -0.13759788511E+04 -0.26687365092E+04  0.30044080548E+04  0.90661324218E+02 0.  0.
         11    1    3    3    0    0 -0.23389624712E+02 -0.41109005954E+03 -0.82682630274E+03  0.92367951503E+03  0.00000000000E+00 0. -1.
        -11    1    3    3    0    0  0.76076723080E+02 -0.96488879156E+03 -0.18419102064E+04  0.20807285398E+04  0.00000000000E+00 0.  1.
         22    1    1    2    0    0 -0.52687098368E+02  0.13759788511E+04  0.11377132982E+04  0.17861929565E+04  0.00000000000E+00 0.  1.
<mgrwt>
<rscale>  0 0.45393640E+04</rscale>
<asrwt>0</asrwt>
<pdfrwt beam="1">  1        2 0.48627879E+00 0.45393640E+04</pdfrwt>
<pdfrwt beam="2">  1       -2 0.25073675E+00 0.45393640E+04</pdfrwt>
<totfact> 0.65994472E-02</totfact>
</mgrwt>
</event>
<event>
 6    1  0.1762360E-005  0.2622479E+04  0.7818608E-02  0.8360605E-01
          2   -1    0    0  501    0  0.00000000000E+00  0.00000000000E+00  0.17314280353E+04  0.17314280353E+04  0.00000000000E+00 0. -1.
         -2   -1    0    0    0  501 -0.00000000000E+00 -0.00000000000E+00 -0.99302396473E+03  0.99302396473E+03  0.00000000000E+00 0.  1.
         23    2    1    2    0    0  0.12519961247E+04  0.12983730233E+02  0.76876105217E+03  0.14720205968E+04  0.90488721257E+02 0.  0.
         11    1    3    3    0    0  0.16667273624E+03 -0.11307557459E+02  0.13647635773E+03  0.21571615165E+03  0.00000000000E+00 0.  1.
        -11    1    3    3    0    0  0.10853233884E+04  0.24291287692E+02  0.63228469444E+03  0.12563044451E+04  0.00000000000E+00 0. -1.
         22    1    1    2    0    0 -0.12519961247E+04 -0.12983730233E+02 -0.30356981626E+02  0.12524314032E+04  0.00000000000E+00 0.  1.
<mgrwt>
<rscale>  0 0.26224794E+04</rscale>
<asrwt>0</asrwt>
<pdfrwt beam="1">  1        2 0.26637354E+00 0.26224794E+04</pdfrwt>
<pdfrwt beam="2">  1       -2 0.15277292E+00 0.26224794E+04</pdfrwt>
<totfact> 0.23737362E+00</totfact>
</mgrwt>
</event>
<event>
 6    1  0.1762360E-005  0.9733441E+03  0.7818608E-02  0.9338274E-01
          1   -1    0    0  501    0  0.00000000000E+00  0.00000000000E+00  0.21892411838E+04  0.21892411838E+04  0.00000000000E+00 0. -1.
         -1   -1    0    0    0  501 -0.00000000000E+00 -0.00000000000E+00 -0.10818803171E+03  0.10818803171E+03  0.00000000000E+00 0.  1.
         23    2    1    2    0    0  0.30735576955E+03 -0.31548981556E+03  0.15143264341E+04  0.15796684158E+04  0.90367924809E+02 0.  0.
         11    1    3    3    0    0  0.61054355507E+02 -0.36009557156E+02  0.15911524881E+03  0.17418950868E+03  0.00000000000E+00 0. -1.
        -11    1    3    3    0    0  0.24630141405E+03 -0.27948025840E+03  0.13552111853E+04  0.14054789071E+04  0.00000000000E+00 0.  1.
         22    1    1    2    0    0 -0.30735576955E+03  0.31548981556E+03  0.56672671790E+03  0.71776079970E+03  0.00000000000E+00 0.  1.
<mgrwt>
<rscale>  0 0.97334412E+03</rscale>
<asrwt>0</asrwt>
<pdfrwt beam="1">  1        1 0.33680630E+00 0.97334412E+03</pdfrwt>
<pdfrwt beam="2">  1       -1 0.16644314E-01 0.97334412E+03</pdfrwt>
<totfact> 0.62256426E+01</totfact>
</mgrwt>
</event>
<event>
 6    1  0.1762360E-005  0.1990795E+04  0.7818608E-02  0.8610936E-01
          1   -1    0    0  501    0  0.00000000000E+00  0.00000000000E+00  0.14172141720E+04  0.14172141720E+04  0.00000000000E+00 0. -1.
         -1   -1    0    0    0  501 -0.00000000000E+00 -0.00000000000E+00 -0.69912966860E+03  0.69912966860E+03  0.00000000000E+00 0.  1.
         23    2    1    2    0    0 -0.64454345698E+03  0.64518612003E+03 -0.58915708599E+02  0.91824921709E+03  0.89493946957E+02 0.  0.
         13    1    3    3    0    0 -0.48536348234E+03  0.50541578889E+03 -0.98179242522E+01  0.70079898779E+03  0.00000000000E+00 0.  1.
        -13    1    3    3    0    0 -0.15917997464E+03  0.13977033114E+03 -0.49097784347E+02  0.21745022930E+03  0.00000000000E+00 0. -1.
         22    1    1    2    0    0  0.64454345698E+03 -0.64518612003E+03  0.77700021199E+03  0.11980946235E+04  0.00000000000E+00 0. -1.
<mgrwt>
<rscale>  0 0.19907953E+04</rscale>
<asrwt>0</asrwt>
<pdfrwt beam="1">  1        1 0.21803295E+00 0.19907953E+04</pdfrwt>
<pdfrwt beam="2">  1       -1 0.10755841E+00 0.19907953E+04</pdfrwt>
<totfact> 0.55820093E+00</totfact>
</mgrwt>
</event>
<event>
 6    1  0.1762360E-005  0.4199513E+04  0.7818608E-02  0.7965465E-01
          2   -1    0    0  501    0  0.00000000000E+00  0.00000000000E+00  0.14059226300E+04  0.14059226300E+04  0.00000000000E+00 0. -1.
         -2   -1    0    0    0  501 -0.00000000000E+00 -0.00000000000E+00 -0.31360029642E+04  0.31360029642E+04  0.00000000000E+00 0.  1.
         23    2    1    2    0    0 -0.22065746006E+02  0.80978107696E+03  0.12285182786E+04  0.14744285621E+04  0.91924610951E+02 0.  0.
         11    1    3    3    0    0  0.21110669165E+02  0.62527536081E+03  0.95508662541E+03  0.11417554025E+04  0.00000000000E+00 0.  1.
        -11    1    3    3    0    0 -0.43176415171E+02  0.18450571615E+03  0.27343165322E+03  0.33267315958E+03  0.00000000000E+00 0. -1.
         22    1    1    2    0    0  0.22065746006E+02 -0.80978107696E+03 -0.29585986129E+04  0.30674970321E+04  0.00000000000E+00 0.  1.
<mgrwt>
<rscale>  0 0.41995131E+04</rscale>
<asrwt>0</asrwt>
<pdfrwt beam="1">  1        2 0.21629579E+00 0.41995131E+04</pdfrwt>
<pdfrwt beam="2">  1       -2 0.48246199E+00 0.41995131E+04</pdfrwt>
<totfact> 0.23770235E-02</totfact>
</mgrwt>
</event>
<event>
 6    1  0.1762360E-005  0.1674936E+04  0.7818608E-02  0.8775790E-01
         -2   -1    0    0    0  501 -0.00000000000E+00  0.00000000000E+00  0.29612926258E+03  0.29612926258E+03  0.00000000000E+00 0.  1.
          2   -1    0    0  501    0  0.00000000000E+00 -0.00000000000E+00 -0.23683996597E+04  0.23683996597E+04  0.00000000000E+00 0. -1.
         23    2    1    2    0    0 -0.74584521310E+03  0.37307451383E+03 -0.11055013565E+04  0.13877705063E+04  0.91126583810E+02 0.  0.
         11    1    3    3    0    0 -0.29522357982E+03  0.10053597241E+03 -0.39030829703E+03  0.49960485443E+03  0.00000000000E+00 0. -1.
        -11    1    3    3    0    0 -0.45062163327E+03  0.27253854142E+03 -0.71519305944E+03  0.88816565190E+03  0.00000000000E+00 0.  1.
         22    1    1    2    0    0  0.74584521310E+03 -0.37307451383E+03 -0.96676904065E+03  0.12767584160E+04  0.00000000000E+00 0.  1.
<mgrwt>
<rscale>  0 0.16749358E+04</rscale>
<asrwt>0</asrwt>
<pdfrwt beam="1">  1        2 0.36436918E+00 0.16749358E+04</pdfrwt>
<pdfrwt beam="2">  1       -2 0.45558348E-01 0.16749358E+04</pdfrwt>
<totfact> 0.18074654E+01</totfact>
</mgrwt>
</event>
<event>
 6    1  0.1762360E-005  0.1632407E+04  0.7818608E-02  0.8800883E-01
         -2   -1    0    0    0  501 -0.00000000000E+00  0.00000000000E+00  0.32785931107E+03  0.32785931107E+03  0.00000000000E+00 0.  1.
          2   -1    0    0  501    0  0.00000000000E+00 -0.00000000000E+00 -0.20319336774E+04  0.20319336774E+04  0.00000000000E+00 0. -1.
         23    2    1    2    0    0 -0.24939601152E+03  0.10413509561E+03 -0.19640114930E+04  0.19848132576E+04  0.95394100575E+02 0.  0.
         11    1    3    3    0    0 -0.40961870421E+02 -0.95345690929E+01 -0.16830105866E+03  0.17347630727E+03  0.00000000000E+00 0.  1.
        -11    1    3    3    0    0 -0.20843414110E+03  0.11366966470E+03 -0.17957104343E+04  0.18113369504E+04  0.00000000000E+00 0. -1.
         22    1    1    2    0    0  0.24939601152E+03 -0.10413509561E+03  0.25993712668E+03  0.37497973082E+03  0.00000000000E+00 0.  1.
<mgrwt>
<rscale>  0 0.16324073E+04</rscale>
<asrwt>0</asrwt>
<pdfrwt beam="1">  1        2 0.31260518E+00 0.16324073E+04</pdfrwt>
<pdfrwt beam="2">  1       -2 0.50439894E-01 0.16324073E+04</pdfrwt>
<totfact> 0.22807975E+01</totfact>
</mgrwt>
</event>
<event>
 6    1  0.1762360E-005  0.1292783E+04  0.7818608E-02  0.9035308E-01
          2   -1    0    0  501    0  0.00000000000E+00  0.00000000000E+00  0.30789741302E+03  0.30789741302E+03  0.00000000000E+00 0. -1.
         -2   -1    0    0    0  501 -0.00000000000E+00 -0.00000000000E+00 -0.13570168832E+04  0.13570168832E+04  0.00000000000E+00 0.  1.
         23    2    1    2    0    0  0.36313151403E+03 -0.11564256798E+02 -0.12106449150E+04  0.12673106017E+04  0.91743241977E+02 0.  0.
         11    1    3    3    0    0  0.36950450536E+02 -0.24607113244E+02 -0.21433590796E+03  0.21888519195E+03  0.00000000000E+00 0.  1.
        -11    1    3    3    0    0  0.32618106349E+03  0.13042856446E+02 -0.99630900709E+03  0.10484254098E+04  0.00000000000E+00 0. -1.
         22    1    1    2    0    0 -0.36313151403E+03  0.11564256798E+02  0.16152544487E+03  0.39760369447E+03  0.00000000000E+00 0. -1.
<mgrwt>
<rscale>  0 0.12927830E+04</rscale>
<asrwt>0</asrwt>
<pdfrwt beam="1">  1        2 0.47368833E-01 0.12927830E+04</pdfrwt>
<pdfrwt beam="2">  1       -2 0.20877183E+00 0.12927830E+04</pdfrwt>
<totfact> 0.12190148E+01</totfact>
</mgrwt>
</event>
<event>
 6    1  0.1762360E-005  0.9245055E+03  0.7818608E-02  0.9395456E-01
         -2   -1    0    0    0  501 -0.00000000000E+00  0.00000000000E+00  0.32511191695E+03  0.32511191695E+03  0.00000000000E+00 0.  1.
          2   -1    0    0  501    0  0.00000000000E+00 -0.00000000000E+00 -0.65724315433E+03  0.65724315433E+03  0.00000000000E+00 0. -1.
         23    2    1    2    0    0  0.37733976471E+03 -0.11146282528E+03 -0.41975825286E+03  0.57925737432E+03  0.67326483766E+02 0.  0.
         11    1    3    3    0    0  0.29591959471E+03 -0.57834661602E+02 -0.32423757883E+03  0.44276772933E+03  0.00000000000E+00 0. -1.
        -11    1    3    3    0    0  0.81420170003E+02 -0.53628163680E+02 -0.95520674031E+02  0.13648964499E+03  0.00000000000E+00 0.  1.
         22    1    1    2    0    0 -0.37733976471E+03  0.11146282528E+03  0.87627015475E+02  0.40309769696E+03  0.00000000000E+00 0.  1.
<mgrwt>
<rscale>  0 0.92450545E+03</rscale>
<asrwt>0</asrwt>
<pdfrwt beam="1">  1        2 0.10111433E+00 0.92450545E+03</pdfrwt>
<pdfrwt beam="2">  1       -2 0.50017218E-01 0.92450545E+03</pdfrwt>
<totfact> 0.16807633E+02</totfact>
</mgrwt>
</event>
<event>
 6    1  0.1762360E-005  0.4174910E+04  0.7818608E-02  0.7970162E-01
          2   -1    0    0  501    0  0.00000000000E+00  0.00000000000E+00  0.14195933741E+04  0.14195933741E+04  0.00000000000E+00 0. -1.
         -2   -1    0    0    0  501 -0.00000000000E+00 -0.00000000000E+00 -0.30695179793E+04  0.30695179793E+04  0.00000000000E+00 0.  1.
         23    2    1    2    0    0 -0.12128858332E+04  0.69136184593E+02 -0.26493829610E+04  0.29159651868E+04  0.88039992980E+02 0.  0.
         11    1    3    3    0    0 -0.45455642067E+03  0.21973849384E+02 -0.10957609353E+04  0.11865059701E+04  0.00000000000E+00 0. -1.
        -11    1    3    3    0    0 -0.75832941250E+03  0.47162335209E+02 -0.15536220257E+04  0.17294592168E+04  0.00000000000E+00 0.  1.
         22    1    1    2    0    0  0.12128858332E+04 -0.69136184593E+02  0.99945835581E+03  0.15731461665E+04  0.00000000000E+00 0. -1.
<mgrwt>
<rscale>  0 0.41749095E+04</rscale>
<asrwt>0</asrwt>
<pdfrwt beam="1">  1        2 0.21839898E+00 0.41749095E+04</pdfrwt>
<pdfrwt beam="2">  1       -2 0.47223353E+00 0.41749095E+04</pdfrwt>
<totfact> 0.27228084E-02</totfact>
</mgrwt>
</event>
<event>
 6    1  0.1762360E-005  0.9447460E+03  0.7818608E-02  0.9371313E-01
         -2   -1    0    0    0  501 -0.00000000000E+00  0.00000000000E+00  0.13232273029E+03  0.13232273029E+03  0.00000000000E+00 0. -1.
          2   -1    0    0  501    0  0.00000000000E+00 -0.00000000000E+00 -0.16863032014E+04  0.16863032014E+04  0.00000000000E+00 0.  1.
         23    2    1    2    0    0 -0.38921264942E+03 -0.16561100074E+03 -0.39848010527E+03  0.58814042365E+03  0.90605041803E+02 0.  0.
         13    1    3    3    0    0 -0.10868195387E+03 -0.88268540792E+01 -0.12754581521E+03  0.16780231055E+03  0.00000000000E+00 0. -1.
        -13    1    3    3    0    0 -0.28053069555E+03 -0.15678414666E+03 -0.27093429006E+03  0.42033811310E+03  0.00000000000E+00 0.  1.
         22    1    1    2    0    0  0.38921264942E+03  0.16561100074E+03 -0.11555003659E+04  0.12304855081E+04  0.00000000000E+00 0.  1.
<mgrwt>
<rscale>  0 0.94474598E+03</rscale>
<asrwt>0</asrwt>
<pdfrwt beam="1">  1        2 0.25943127E+00 0.94474598E+03</pdfrwt>
<pdfrwt beam="2">  1       -2 0.20357342E-01 0.94474598E+03</pdfrwt>
<totfact> 0.20719101E+02</totfact>
</mgrwt>
</event>
<event>
 6    1  0.1762360E-005  0.1510041E+04  0.7818608E-02  0.8877803E-01
          1   -1    0    0  501    0  0.00000000000E+00  0.00000000000E+00  0.25154561743E+03  0.25154561743E+03  0.00000000000E+00 0. -1.
         -1   -1    0    0    0  501 -0.00000000000E+00 -0.00000000000E+00 -0.22662136732E+04  0.22662136732E+04  0.00000000000E+00 0.  1.
         23    2    1    2    0    0  0.11030255978E+03  0.70175728831E+02 -0.22462477690E+04  0.22518261200E+04  0.89445778640E+02 0.  0.
         13    1    3    3    0    0  0.35341953759E+02  0.39825025920E+02 -0.36735767255E+03  0.37119637116E+03  0.00000000000E+00 0.  1.
        -13    1    3    3    0    0  0.74960606021E+02  0.30350702911E+02 -0.18788900965E+04  0.18806297489E+04  0.00000000000E+00 0. -1.
         22    1    1    2    0    0 -0.11030255978E+03 -0.70175728831E+02  0.23157971328E+03  0.26593317058E+03  0.00000000000E+00 0. -1.
<mgrwt>
<rscale>  0 0.15100412E+04</rscale>
<asrwt>0</asrwt>
<pdfrwt beam="1">  1        1 0.38699325E-01 0.15100412E+04</pdfrwt>
<pdfrwt beam="2">  1       -1 0.34864826E+00 0.15100412E+04</pdfrwt>
<totfact> 0.16996602E+00</totfact>
</mgrwt>
</event>
<event>
 6    1  0.1762360E-005  0.7666232E+03  0.7818608E-02  0.9609626E-01
          2   -1    0    0  501    0  0.00000000000E+00  0.00000000000E+00  0.81659050271E+03  0.81659050271E+03  0.00000000000E+00 0. -1.
         -2   -1    0    0    0  501 -0.00000000000E+00 -0.00000000000E+00 -0.17992835627E+03  0.17992835627E+03  0.00000000000E+00 0.  1.
         23    2    1    2    0    0 -0.25836961129E+03  0.88602003770E+02 -0.17125417363E+02  0.28796868454E+03  0.89596385228E+02 0.  0.
         13    1    3    3    0    0 -0.23733819995E+03  0.76859567178E+02  0.12500699950E+02  0.24978607191E+03  0.00000000000E+00 0. -1.
        -13    1    3    3    0    0 -0.21031411340E+02  0.11742436592E+02 -0.29626117312E+02  0.38182612628E+02  0.00000000000E+00 0.  1.
         22    1    1    2    0    0  0.25836961129E+03 -0.88602003770E+02  0.65378756380E+03  0.70855017443E+03  0.00000000000E+00 0. -1.
<mgrwt>
<rscale>  0 0.76662321E+03</rscale>
<asrwt>0</asrwt>
<pdfrwt beam="1">  1        2 0.12562931E+00 0.76662321E+03</pdfrwt>
<pdfrwt beam="2">  1       -2 0.27681286E-01 0.76662321E+03</pdfrwt>
<totfact> 0.40086624E+02</totfact>
</mgrwt>
</event>
<event>
 6    1  0.1762360E-005  0.1916322E+04  0.7818608E-02  0.8646774E-01
         -2   -1    0    0    0  501 -0.00000000000E+00  0.00000000000E+00  0.73395312665E+03  0.73395312665E+03  0.00000000000E+00 0.  1.
          2   -1    0    0  501    0  0.00000000000E+00 -0.00000000000E+00 -0.12508605075E+04  0.12508605075E+04  0.00000000000E+00 0. -1.
         23    2    1    2    0    0  0.77687682587E+03  0.37367749759E+03  0.16914580470E+03  0.88306890500E+03  0.89598621371E+02 0.  0.
         11    1    3    3    0    0  0.37670339018E+03  0.17909515989E+03  0.12744871439E+03  0.43614641495E+03  0.00000000000E+00 0. -1.
        -11    1    3    3    0    0  0.40017343569E+03  0.19458233770E+03  0.41697090306E+02  0.44692249006E+03  0.00000000000E+00 0.  1.
         22    1    1    2    0    0 -0.77687682587E+03 -0.37367749759E+03 -0.68605318553E+03  0.11017447291E+04  0.00000000000E+00 0. -1.
<mgrwt>
<rscale>  0 0.19163225E+04</rscale>
<asrwt>0</asrwt>
<pdfrwt beam="1">  1        2 0.19244008E+00 0.19163225E+04</pdfrwt>
<pdfrwt beam="2">  1       -2 0.11291587E+00 0.19163225E+04</pdfrwt>
<totfact> 0.10190161E+01</totfact>
</mgrwt>
</event>
<event>
 6    1  0.1762360E-005  0.2793278E+04  0.7818608E-02  0.8305358E-01
         -1   -1    0    0    0  501 -0.00000000000E+00  0.00000000000E+00  0.90526527478E+03  0.90526527478E+03  0.00000000000E+00 0.  1.
          1   -1    0    0  501    0  0.00000000000E+00 -0.00000000000E+00 -0.21547283768E+04  0.21547283768E+04  0.00000000000E+00 0. -1.
         23    2    1    2    0    0  0.95929017090E+03  0.91887786544E+03 -0.10923255532E+04  0.17223590330E+04  0.93655543031E+02 0.  0.
         13    1    3    3    0    0  0.75387726440E+03  0.70412687764E+03 -0.89433861014E+03  0.13652718188E+04  0.00000000000E+00 0. -1.
        -13    1    3    3    0    0  0.20541290651E+03  0.21475098779E+03 -0.19798694306E+03  0.35708721419E+03  0.00000000000E+00 0.  1.
         22    1    1    2    0    0 -0.95929017090E+03 -0.91887786544E+03 -0.15713754880E+03  0.13376346186E+04  0.00000000000E+00 0. -1.
<mgrwt>
<rscale>  0 0.27932782E+04</rscale>
<asrwt>0</asrwt>
<pdfrwt beam="1">  1        1 0.33149667E+00 0.27932782E+04</pdfrwt>
<pdfrwt beam="2">  1       -1 0.13927158E+00 0.27932782E+04</pdfrwt>
<totfact> 0.86075461E-01</totfact>
</mgrwt>
</event>
<event>
 6    1  0.1762360E-005  0.3602249E+04  0.7818608E-02  0.8089977E-01
         -2   -1    0    0    0  501 -0.00000000000E+00  0.00000000000E+00  0.19978781868E+04  0.19978781868E+04  0.00000000000E+00 0.  1.
          2   -1    0    0  501    0  0.00000000000E+00 -0.00000000000E+00 -0.16237475553E+04  0.16237475553E+04  0.00000000000E+00 0. -1.
         23    2    1    2    0    0 -0.13395685142E+04  0.70591913360E+03  0.11656253549E+04  0.19130504511E+04  0.91180770492E+02 0.  0.
         11    1    3    3    0    0 -0.84750680249E+03  0.41565481663E+03  0.68209264857E+03  0.11645973931E+04  0.00000000000E+00 0.  1.
        -11    1    3    3    0    0 -0.49206171175E+03  0.29026431697E+03  0.48353270638E+03  0.74845305799E+03  0.00000000000E+00 0. -1.
         22    1    1    2    0    0  0.13395685142E+04 -0.70591913360E+03 -0.79149472347E+03  0.17085752909E+04  0.00000000000E+00 0. -1.
<mgrwt>
<rscale>  0 0.36022492E+04</rscale>
<asrwt>0</asrwt>
<pdfrwt beam="1">  1        2 0.24980732E+00 0.36022492E+04</pdfrwt>
<pdfrwt beam="2">  1       -2 0.30736587E+00 0.36022492E+04</pdfrwt>
<totfact> 0.25242546E-01</totfact>
</mgrwt>
</event>
<event>
 6    1  0.1762360E-005  0.2492394E+04  0.7818608E-02  0.8405700E-01
          2   -1    0    0  501    0  0.00000000000E+00  0.00000000000E+00  0.21640492616E+04  0.21640492616E+04  0.00000000000E+00 0. -1.
         -2   -1    0    0    0  501 -0.00000000000E+00 -0.00000000000E+00 -0.71763911799E+03  0.71763911799E+03  0.00000000000E+00 0.  1.
         23    2    1    2    0    0 -0.51522343339E+03  0.23013086139E+03  0.20067509614E+04  0.20864543060E+04  0.88468922752E+02 0.  0.
         13    1    3    3    0    0 -0.55014096441E+02  0.45441222082E+02  0.34453666891E+03  0.35184793832E+03  0.00000000000E+00 0.  1.
        -13    1    3    3    0    0 -0.46020933695E+03  0.18468963931E+03  0.16622142925E+04  0.17346063677E+04  0.00000000000E+00 0. -1.
         22    1    1    2    0    0  0.51522343339E+03 -0.23013086139E+03 -0.56034081780E+03  0.79523407358E+03  0.00000000000E+00 0.  1.
<mgrwt>
<rscale>  0 0.24923936E+04</rscale>
<asrwt>0</asrwt>
<pdfrwt beam="1">  1        2 0.33293065E+00 0.24923936E+04</pdfrwt>
<pdfrwt beam="2">  1       -2 0.11040602E+00 0.24923936E+04</pdfrwt>
<totfact> 0.31435077E+00</totfact>
</mgrwt>
</event>
<event>
 6    1  0.1762360E-005  0.1049928E+04  0.7818608E-02  0.9255418E-01
         -1   -1    0    0    0  501 -0.00000000000E+00  0.00000000000E+00  0.16403242264E+03  0.16403242264E+03  0.00000000000E+00 0.  1.
          1   -1    0    0  501    0  0.00000000000E+00 -0.00000000000E+00 -0.16800776622E+04  0.16800776622E+04  0.00000000000E+00 0. -1.
         23    2    1    2    0    0 -0.28329386953E+03  0.33728361736E+03 -0.12523994740E+04  0.13307634722E+04  0.91713256212E+02 0.  0.
         13    1    3    3    0    0 -0.89548781112E+02  0.94431548292E+02 -0.25799105327E+03  0.28895619924E+03  0.00000000000E+00 0.  1.
        -13    1    3    3    0    0 -0.19374508842E+03  0.24285206907E+03 -0.99440842073E+03  0.10418072729E+04  0.00000000000E+00 0. -1.
         22    1    1    2    0    0  0.28329386953E+03 -0.33728361736E+03 -0.26364576559E+03  0.51334661270E+03  0.00000000000E+00 0.  1.
<mgrwt>
<rscale>  0 0.10499280E+04</rscale>
<asrwt>0</asrwt>
<pdfrwt beam="1">  1        1 0.25847348E+00 0.10499280E+04</pdfrwt>
<pdfrwt beam="2">  1       -1 0.25235758E-01 0.10499280E+04</pdfrwt>
<totfact> 0.67812690E+01</totfact>
</mgrwt>
</event>
<event>
 6    1  0.1762360E-005  0.2181908E+04  0.7818608E-02  0.8525996E-01
         -1   -1    0    0    0  501 -0.00000000000E+00  0.00000000000E+00  0.58620484927E+03  0.58620484927E+03  0.00000000000E+00 0.  1.
          1   -1    0    0  501    0  0.00000000000E+00 -0.00000000000E+00 -0.20303153169E+04  0.20303153169E+04  0.00000000000E+00 0. -1.
         23    2    1    2    0    0  0.84275824942E+02 -0.82110725581E+03  0.12907271925E+03  0.83994343557E+03  0.86750607374E+02 0.  0.
         13    1    3    3    0    0  0.45357791936E+02 -0.26847294572E+03  0.55356327553E+01  0.27233379354E+03  0.00000000000E+00 0. -1.
        -13    1    3    3    0    0  0.38918033006E+02 -0.55263431009E+03  0.12353708649E+03  0.56760964203E+03  0.00000000000E+00 0.  1.
         22    1    1    2    0    0 -0.84275824942E+02  0.82110725581E+03 -0.15731831869E+04  0.17765767306E+04  0.00000000000E+00 0. -1.
<mgrwt>
<rscale>  0 0.21819080E+04</rscale>
<asrwt>0</asrwt>
<pdfrwt beam="1">  1        1 0.31235621E+00 0.21819080E+04</pdfrwt>
<pdfrwt beam="2">  1       -1 0.90185360E-01 0.21819080E+04</pdfrwt>
<totfact> 0.31201649E+00</totfact>
</mgrwt>
</event>
<event>
 6    1  0.1762360E-005  0.1623828E+04  0.7818608E-02  0.8806042E-01
          1   -1    0    0  501    0  0.00000000000E+00  0.00000000000E+00  0.66233267008E+03  0.66233267008E+03  0.00000000000E+00 0. -1.
         -1   -1    0    0    0  501 -0.00000000000E+00 -0.00000000000E+00 -0.99527620208E+03  0.99527620208E+03  0.00000000000E+00 0.  1.
         23    2    1    2    0    0 -0.68361657753E+03  0.41491516018E+03 -0.38595854062E+02  0.80547814819E+03  0.88426195367E+02 0.  0.
         13    1    3    3    0    0 -0.43419350501E+03  0.28071507759E+03  0.14838955876E+02  0.51724766717E+03  0.00000000000E+00 0.  1.
        -13    1    3    3    0    0 -0.24942307252E+03  0.13420008259E+03 -0.53434809937E+02  0.28823048102E+03  0.00000000000E+00 0. -1.
         22    1    1    2    0    0  0.68361657753E+03 -0.41491516018E+03 -0.29434767793E+03  0.85213072397E+03  0.00000000000E+00 0.  1.
<mgrwt>
<rscale>  0 0.16238275E+04</rscale>
<asrwt>0</asrwt>
<pdfrwt beam="1">  1        1 0.10189733E+00 0.16238275E+04</pdfrwt>
<pdfrwt beam="2">  1       -1 0.15311942E+00 0.16238275E+04</pdfrwt>
<totfact> 0.93583947E+00</totfact>
</mgrwt>
</event>
<event>
 6    1  0.1762360E-005  0.3854568E+04  0.7818608E-02  0.8034545E-01
          2   -1    0    0  501    0  0.00000000000E+00  0.00000000000E+00  0.21931597068E+04  0.21931597068E+04  0.00000000000E+00 0. -1.
         -2   -1    0    0    0  501 -0.00000000000E+00 -0.00000000000E+00 -0.16936405545E+04  0.16936405545E+04  0.00000000000E+00 0.  1.
         23    2    1    2    0    0  0.15835266886E+04 -0.79257776529E+03 -0.51446907774E+03  0.18462345510E+04  0.90373103729E+02 0.  0.
         13    1    3    3    0    0  0.86389446026E+03 -0.46624629770E+03 -0.31955577290E+03  0.10323832334E+04  0.00000000000E+00 0. -1.
        -13    1    3    3    0    0  0.71963222830E+03 -0.32633146759E+03 -0.19491330484E+03  0.81385131760E+03  0.00000000000E+00 0.  1.
         22    1    1    2    0    0 -0.15835266886E+04  0.79257776529E+03  0.10139882300E+04  0.20405657103E+04  0.00000000000E+00 0. -1.
<mgrwt>
<rscale>  0 0.38545683E+04</rscale>
<asrwt>0</asrwt>
<pdfrwt beam="1">  1        2 0.33740918E+00 0.38545683E+04</pdfrwt>
<pdfrwt beam="2">  1       -2 0.26056009E+00 0.38545683E+04</pdfrwt>
<totfact> 0.23021645E-01</totfact>
</mgrwt>
</event>
<event>
 6    1  0.1762360E-005  0.3740955E+04  0.7818608E-02  0.8058946E-01
         -2   -1    0    0    0  501 -0.00000000000E+00  0.00000000000E+00  0.16325912318E+04  0.16325912318E+04  0.00000000000E+00 0.  1.
          2   -1    0    0  501    0  0.00000000000E+00 -0.00000000000E+00 -0.21430262463E+04  0.21430262463E+04  0.00000000000E+00 0. -1.
         23    2    1    2    0    0 -0.26484011377E+03 -0.16441631194E+04 -0.11122553241E+04  0.20048548362E+04  0.94437064865E+02 0.  0.
         11    1    3    3    0    0 -0.15405669727E+03 -0.71690962903E+03 -0.45644911219E+03  0.86373530332E+03  0.00000000000E+00 0.  1.
        -11    1    3    3    0    0 -0.11078341650E+03 -0.92725349035E+03 -0.65580621191E+03  0.11411195329E+04  0.00000000000E+00 0. -1.
         22    1    1    2    0    0  0.26484011377E+03  0.16441631194E+04  0.60182030962E+03  0.17707626419E+04  0.00000000000E+00 0.  1.
<mgrwt>
<rscale>  0 0.37409549E+04</rscale>
<asrwt>0</asrwt>
<pdfrwt beam="1">  1        2 0.32969635E+00 0.37409549E+04</pdfrwt>
<pdfrwt beam="2">  1       -2 0.25116788E+00 0.37409549E+04</pdfrwt>
<totfact> 0.28310454E-01</totfact>
</mgrwt>
</event>
<event>
 6    1  0.1762360E-005  0.2844455E+04  0.7818608E-02  0.8289598E-01
         -2   -1    0    0    0  501 -0.00000000000E+00  0.00000000000E+00  0.15915253770E+04  0.15915253770E+04  0.00000000000E+00 0.  1.
          2   -1    0    0  501    0  0.00000000000E+00 -0.00000000000E+00 -0.12709383892E+04  0.12709383892E+04  0.00000000000E+00 0. -1.
         23    2    1    2    0    0  0.89574021431E+03  0.45437845613E+03 -0.85065494149E+03  0.13195386320E+04  0.93584501939E+02 0.  0.
         11    1    3    3    0    0  0.63864448744E+03  0.36991595110E+03 -0.63022861564E+03  0.97051156624E+03  0.00000000000E+00 0. -1.
        -11    1    3    3    0    0  0.25709572687E+03  0.84462505028E+02 -0.22042632585E+03  0.34902706579E+03  0.00000000000E+00 0.  1.
         22    1    1    2    0    0 -0.89574021431E+03 -0.45437845613E+03  0.11712419293E+04  0.15429251342E+04  0.00000000000E+00 0.  1.
<mgrwt>
<rscale>  0 0.28444547E+04</rscale>
<asrwt>0</asrwt>
<pdfrwt beam="1">  1        2 0.19552898E+00 0.28444547E+04</pdfrwt>
<pdfrwt beam="2">  1       -2 0.24485006E+00 0.28444547E+04</pdfrwt>
<totfact> 0.10304880E+00</totfact>
</mgrwt>
</event>
<event>
 6    1  0.1762360E-005  0.2417997E+04  0.7818608E-02  0.8432796E-01
         -2   -1    0    0    0  501 -0.00000000000E+00  0.00000000000E+00  0.50756855175E+03  0.50756855175E+03  0.00000000000E+00 0.  1.
          2   -1    0    0  501    0  0.00000000000E+00 -0.00000000000E+00 -0.28797632956E+04  0.28797632956E+04  0.00000000000E+00 0. -1.
         23    2    1    2    0    0  0.73651078967E+03 -0.54753150956E+02 -0.25256223801E+04  0.26330201807E+04  0.92632686221E+02 0.  0.
         13    1    3    3    0    0  0.55869222134E+03 -0.78618252461E+02 -0.19645602016E+04  0.20439703064E+04  0.00000000000E+00 0. -1.
        -13    1    3    3    0    0  0.17781856834E+03  0.23865101505E+02 -0.56106217851E+03  0.58904987434E+03  0.00000000000E+00 0.  1.
         22    1    1    2    0    0 -0.73651078967E+03  0.54753150956E+02  0.15342763622E+03  0.75431166662E+03  0.00000000000E+00 0.  1.
<mgrwt>
<rscale>  0 0.24179969E+04</rscale>
<asrwt>0</asrwt>
<pdfrwt beam="1">  1        2 0.44304050E+00 0.24179969E+04</pdfrwt>
<pdfrwt beam="2">  1       -2 0.78087470E-01 0.24179969E+04</pdfrwt>
<totfact> 0.27098988E+00</totfact>
</mgrwt>
</event>
<event>
 6    1  0.1762360E-005  0.2339595E+04  0.7818608E-02  0.8462471E-01
          1   -1    0    0  501    0  0.00000000000E+00  0.00000000000E+00  0.16938468758E+04  0.16938468758E+04  0.00000000000E+00 0.  1.
         -1   -1    0    0    0  501 -0.00000000000E+00 -0.00000000000E+00 -0.80788068996E+03  0.80788068996E+03  0.00000000000E+00 0. -1.
         23    2    1    2    0    0 -0.49243844003E+03 -0.10349717999E+04  0.68403583882E+03  0.13379242709E+04  0.92054777390E+02 0.  0.
         13    1    3    3    0    0 -0.16015795135E+03 -0.27687851699E+03  0.15362916087E+03  0.35484391163E+03  0.00000000000E+00 0. -1.
        -13    1    3    3    0    0 -0.33228048869E+03 -0.75809328296E+03  0.53040667795E+03  0.98308035930E+03  0.00000000000E+00 0.  1.
         22    1    1    2    0    0  0.49243844003E+03  0.10349717999E+04  0.20193034698E+03  0.11638032948E+04  0.00000000000E+00 0. -1.
<mgrwt>
<rscale>  0 0.23395950E+04</rscale>
<asrwt>0</asrwt>
<pdfrwt beam="1">  1        1 0.26059182E+00 0.23395950E+04</pdfrwt>
<pdfrwt beam="2">  1       -1 0.12428934E+00 0.23395950E+04</pdfrwt>
<totfact> 0.24605142E+00</totfact>
</mgrwt>
</event>
<event>
 6    1  0.1762360E-005  0.1999431E+04  0.7818608E-02  0.8606887E-01
         -1   -1    0    0    0  501 -0.00000000000E+00  0.00000000000E+00  0.92087530598E+03  0.92087530598E+03  0.00000000000E+00 0.  1.
          1   -1    0    0  501    0  0.00000000000E+00 -0.00000000000E+00 -0.10853051232E+04  0.10853051232E+04  0.00000000000E+00 0. -1.
         23    2    1    2    0    0  0.49392481467E+03  0.70687608280E+03  0.42097532977E+03  0.96390661432E+03  0.90885718725E+02 0.  0.
         13    1    3    3    0    0  0.11003119337E+03  0.14982017651E+03  0.13339844266E+03  0.22879705703E+03  0.00000000000E+00 0.  1.
        -13    1    3    3    0    0  0.38389362130E+03  0.55705590630E+03  0.28757688711E+03  0.73510955729E+03  0.00000000000E+00 0. -1.
         22    1    1    2    0    0 -0.49392481467E+03 -0.70687608280E+03 -0.58540514696E+03  0.10422738148E+04  0.00000000000E+00 0. -1.
<mgrwt>
<rscale>  0 0.19994306E+04</rscale>
<asrwt>0</asrwt>
<pdfrwt beam="1">  1        1 0.16697002E+00 0.19994306E+04</pdfrwt>
<pdfrwt beam="2">  1       -1 0.14167312E+00 0.19994306E+04</pdfrwt>
<totfact> 0.49030189E+00</totfact>
</mgrwt>
</event>
<event>
 6    1  0.1762360E-005  0.1433445E+04  0.7818608E-02  0.8929959E-01
         -2   -1    0    0    0  501 -0.00000000000E+00  0.00000000000E+00  0.34069648896E+03  0.34069648896E+03  0.00000000000E+00 0.  1.
          2   -1    0    0  501    0  0.00000000000E+00 -0.00000000000E+00 -0.15077670086E+04  0.15077670086E+04  0.00000000000E+00 0. -1.
         23    2    1    2    0    0  0.15309370177E+03  0.55128599118E+03 -0.35384198597E+02  0.58036734394E+03  0.90665797353E+02 0.  0.
         13    1    3    3    0    0  0.96009945864E+02  0.18855795523E+03 -0.24571350857E+02  0.21301587609E+03  0.00000000000E+00 0.  1.
        -13    1    3    3    0    0  0.57083755902E+02  0.36272803595E+03 -0.10812847740E+02  0.36735146784E+03  0.00000000000E+00 0. -1.
         22    1    1    2    0    0 -0.15309370177E+03 -0.55128599118E+03 -0.11316863210E+04  0.12680961536E+04  0.00000000000E+00 0. -1.
<mgrwt>
<rscale>  0 0.14334447E+04</rscale>
<asrwt>0</asrwt>
<pdfrwt beam="1">  1        2 0.23196415E+00 0.14334447E+04</pdfrwt>
<pdfrwt beam="2">  1       -2 0.52414845E-01 0.14334447E+04</pdfrwt>
<totfact> 0.41903630E+01</totfact>
</mgrwt>
</event>
<event>
 6    1  0.1762360E-005  0.7325456E+03  0.7818608E-02  0.9663139E-01
          1   -1    0    0  501    0  0.00000000000E+00  0.00000000000E+00  0.11082471937E+04  0.11082471937E+04  0.00000000000E+00 0. -1.
         -1   -1    0    0    0  501 -0.00000000000E+00 -0.00000000000E+00 -0.12105221550E+03  0.12105221550E+03  0.00000000000E+00 0.  1.
         23    2    1    2    0    0  0.26542698267E+03  0.19813026536E+03  0.26158319355E+03  0.43166569175E+03  0.90567196611E+02 0.  0.
         11    1    3    3    0    0  0.18040085515E+03  0.10915169668E+03  0.21193669884E+03  0.29895773236E+03  0.00000000000E+00 0. -1.
        -11    1    3    3    0    0  0.85026127523E+02  0.88978568685E+02  0.49646494711E+02  0.13270795938E+03  0.00000000000E+00 0.  1.
         22    1    1    2    0    0 -0.26542698267E+03 -0.19813026536E+03  0.72561178468E+03  0.79763371747E+03  0.00000000000E+00 0. -1.
<mgrwt>
<rscale>  0 0.73254564E+03</rscale>
<asrwt>0</asrwt>
<pdfrwt beam="1">  1        1 0.17049956E+00 0.73254564E+03</pdfrwt>
<pdfrwt beam="2">  1       -1 0.18623419E-01 0.73254564E+03</pdfrwt>
<totfact> 0.29165587E+02</totfact>
</mgrwt>
</event>
<event>
 6    1  0.1762360E-005  0.1952425E+04  0.7818608E-02  0.8629192E-01
          2   -1    0    0  501    0  0.00000000000E+00  0.00000000000E+00  0.17665975658E+04  0.17665975658E+04  0.00000000000E+00 0. -1.
         -2   -1    0    0    0  501 -0.00000000000E+00 -0.00000000000E+00 -0.53945001913E+03  0.53945001913E+03  0.00000000000E+00 0.  1.
         23    2    1    2    0    0 -0.61865673723E+03  0.40177378238E+03 -0.13636290470E+03  0.75578338753E+03  0.91953011665E+02 0.  0.
         11    1    3    3    0    0 -0.28892719070E+03  0.23338213369E+03 -0.94049769161E+02  0.38313378985E+03  0.00000000000E+00 0. -1.
        -11    1    3    3    0    0 -0.32972954654E+03  0.16839164869E+03 -0.42313135536E+02  0.37264959767E+03  0.00000000000E+00 0.  1.
         22    1    1    2    0    0  0.61865673723E+03 -0.40177378238E+03  0.13635104513E+04  0.15502641974E+04  0.00000000000E+00 0. -1.
<mgrwt>
<rscale>  0 0.19524253E+04</rscale>
<asrwt>0</asrwt>
<pdfrwt beam="1">  1        2 0.27178424E+00 0.19524253E+04</pdfrwt>
<pdfrwt beam="2">  1       -2 0.82992312E-01 0.19524253E+04</pdfrwt>
<totfact> 0.10684146E+01</totfact>
</mgrwt>
</event>
<event>
 6    1  0.1762360E-005  0.1279443E+04  0.7818608E-02  0.9046028E-01
         -1   -1    0    0    0  501 -0.00000000000E+00  0.00000000000E+00  0.10593583255E+04  0.10593583255E+04  0.00000000000E+00 0.  1.
          1   -1    0    0  501    0  0.00000000000E+00 -0.00000000000E+00 -0.38631261493E+03  0.38631261493E+03  0.00000000000E+00 0. -1.
         23    2    1    2    0    0 -0.19796799801E+03 -0.18157227044E+03  0.99021272233E+03  0.10300332003E+04  0.91034832454E+02 0.  0.
         13    1    3    3    0    0 -0.17643473602E+03 -0.13122273709E+03  0.87878861984E+03  0.90587971672E+03  0.00000000000E+00 0.  1.
        -13    1    3    3    0    0 -0.21533261988E+02 -0.50349533352E+02  0.11142410249E+03  0.12415348362E+03  0.00000000000E+00 0. -1.
         22    1    1    2    0    0  0.19796799801E+03  0.18157227044E+03 -0.31716701177E+03  0.41563774009E+03  0.00000000000E+00 0. -1.
<mgrwt>
<rscale>  0 0.12794428E+04</rscale>
<asrwt>0</asrwt>
<pdfrwt beam="1">  1        1 0.59432710E-01 0.12794428E+04</pdfrwt>
<pdfrwt beam="2">  1       -1 0.16297820E+00 0.12794428E+04</pdfrwt>
<totfact> 0.17160295E+01</totfact>
</mgrwt>
</event>
<event>
 6    1  0.1762360E-005  0.2580466E+04  0.7818608E-02  0.8374867E-01
         -2   -1    0    0    0  501 -0.00000000000E+00  0.00000000000E+00  0.14728707626E+04  0.14728707626E+04  0.00000000000E+00 0.  1.
          2   -1    0    0  501    0  0.00000000000E+00 -0.00000000000E+00 -0.11302426011E+04  0.11302426011E+04  0.00000000000E+00 0. -1.
         23    2    1    2    0    0  0.94757212772E+03 -0.87237066458E+03  0.13068841473E+03  0.12978003860E+04  0.91010254267E+02 0.  0.
         11    1    3    3    0    0  0.65524470406E+03 -0.56912494025E+03  0.12262128444E+03  0.87651856752E+03  0.00000000000E+00 0.  1.
        -11    1    3    3    0    0  0.29232742366E+03 -0.30324572433E+03  0.80671302828E+01  0.42128181844E+03  0.00000000000E+00 0. -1.
         22    1    1    2    0    0 -0.94757212772E+03  0.87237066458E+03  0.21193974672E+03  0.13053129778E+04  0.00000000000E+00 0.  1.
<mgrwt>
<rscale>  0 0.25804661E+04</rscale>
<asrwt>0</asrwt>
<pdfrwt beam="1">  1        2 0.17388348E+00 0.25804661E+04</pdfrwt>
<pdfrwt beam="2">  1       -2 0.22659550E+00 0.25804661E+04</pdfrwt>
<totfact> 0.16606967E+00</totfact>
</mgrwt>
</event>
<event>
 6    1  0.1762360E-005  0.1329847E+04  0.7818608E-02  0.9006225E-01
          2   -1    0    0  501    0  0.00000000000E+00  0.00000000000E+00  0.32823466508E+04  0.32823466508E+04  0.00000000000E+00 0. -1.
         -2   -1    0    0    0  501 -0.00000000000E+00 -0.00000000000E+00 -0.13469739746E+03  0.13469739746E+03  0.00000000000E+00 0.  1.
         23    2    1    2    0    0 -0.43887535727E+03  0.48784254241E+03  0.13641032111E+04  0.15166129366E+04  0.93462845410E+02 0.  0.
         11    1    3    3    0    0 -0.33525867091E+03  0.39926980117E+03  0.99837310688E+03  0.11263052921E+04  0.00000000000E+00 0. -1.
        -11    1    3    3    0    0 -0.10361668636E+03  0.88572741242E+02  0.36573010421E+03  0.39030764444E+03  0.00000000000E+00 0.  1.
         22    1    1    2    0    0  0.43887535727E+03 -0.48784254241E+03  0.17835460423E+04  0.19004311117E+04  0.00000000000E+00 0. -1.
<mgrwt>
<rscale>  0 0.13298474E+04</rscale>
<asrwt>0</asrwt>
<pdfrwt beam="1">  1        2 0.50497635E+00 0.13298474E+04</pdfrwt>
<pdfrwt beam="2">  1       -2 0.20722679E-01 0.13298474E+04</pdfrwt>
<totfact> 0.22825805E+01</totfact>
</mgrwt>
</event>
<event>
 6    1  0.1762360E-005  0.2924500E+04  0.7818608E-02  0.8265625E-01
         -3   -1    0    0    0  501 -0.00000000000E+00  0.00000000000E+00  0.29446584311E+04  0.29446584311E+04  0.00000000000E+00 0.  1.
          3   -1    0    0  501    0  0.00000000000E+00 -0.00000000000E+00 -0.72611984036E+03  0.72611984036E+03  0.00000000000E+00 0. -1.
         23    2    1    2    0    0  0.91637777992E+03 -0.13227429343E+03 -0.30787029421E+03  0.98005595613E+03  0.92091448250E+02 0.  0.
         13    1    3    3    0    0  0.30331201606E+03 -0.42165306174E+02 -0.14797098841E+03  0.34010513895E+03  0.00000000000E+00 0. -1.
        -13    1    3    3    0    0  0.61306576386E+03 -0.90108987259E+02 -0.15989930581E+03  0.63995081718E+03  0.00000000000E+00 0.  1.
         22    1    1    2    0    0 -0.91637777992E+03  0.13227429343E+03  0.25264088850E+04  0.26907223154E+04  0.00000000000E+00 0.  1.
<mgrwt>
<rscale>  0 0.29244999E+04</rscale>
<asrwt>0</asrwt>
<pdfrwt beam="1">  1        3 0.11171075E+00 0.29244999E+04</pdfrwt>
<pdfrwt beam="2">  1       -3 0.45302437E+00 0.29244999E+04</pdfrwt>
<totfact> 0.81598147E-03</totfact>
</mgrwt>
</event>
<event>
 6    1  0.1762360E-005  0.2566063E+04  0.7818608E-02  0.8379821E-01
         -1   -1    0    0    0  501 -0.00000000000E+00  0.00000000000E+00  0.66505329720E+03  0.66505329720E+03  0.00000000000E+00 0.  1.
          1   -1    0    0  501    0  0.00000000000E+00 -0.00000000000E+00 -0.24752459222E+04  0.24752459222E+04  0.00000000000E+00 0. -1.
         23    2    1    2    0    0 -0.70073090468E+03 -0.88462372365E+03 -0.16341532266E+03  0.11439379253E+04  0.91139870417E+02 0.  0.
         11    1    3    3    0    0 -0.36141784290E+03 -0.38316809643E+03 -0.78600346517E+02  0.53255859936E+03  0.00000000000E+00 0. -1.
        -11    1    3    3    0    0 -0.33931306178E+03 -0.50145562722E+03 -0.84814976146E+02  0.61137932591E+03  0.00000000000E+00 0.  1.
         22    1    1    2    0    0  0.70073090468E+03  0.88462372365E+03 -0.16467773023E+04  0.19963612941E+04  0.00000000000E+00 0. -1.
<mgrwt>
<rscale>  0 0.25660635E+04</rscale>
<asrwt>0</asrwt>
<pdfrwt beam="1">  1        1 0.38080706E+00 0.25660635E+04</pdfrwt>
<pdfrwt beam="2">  1       -1 0.10231589E+00 0.25660635E+04</pdfrwt>
<totfact> 0.11252101E+00</totfact>
</mgrwt>
</event>
<event>
 6    1  0.1762360E-005  0.2460842E+04  0.7818608E-02  0.8417070E-01
          2   -1    0    0  501    0  0.00000000000E+00  0.00000000000E+00  0.18820196261E+04  0.18820196261E+04  0.00000000000E+00 0. -1.
         -2   -1    0    0    0  501 -0.00000000000E+00 -0.00000000000E+00 -0.80442100708E+03  0.80442100708E+03  0.00000000000E+00 0.  1.
         23    2    1    2    0    0 -0.54130983338E+03  0.10632479526E+04  0.85766714535E+03  0.14732290286E+04  0.10629343382E+03 0.  0.
         13    1    3    3    0    0 -0.26090384631E+03  0.52900776102E+03  0.35930883561E+03  0.69066842087E+03  0.00000000000E+00 0.  1.
        -13    1    3    3    0    0 -0.28040598707E+03  0.53424019157E+03  0.49835830973E+03  0.78256060772E+03  0.00000000000E+00 0. -1.
         22    1    1    2    0    0  0.54130983338E+03 -0.10632479526E+04  0.21993147367E+03  0.12132116046E+04  0.00000000000E+00 0.  1.
<mgrwt>
<rscale>  0 0.24608422E+04</rscale>
<asrwt>0</asrwt>
<pdfrwt beam="1">  1        2 0.28954148E+00 0.24608422E+04</pdfrwt>
<pdfrwt beam="2">  1       -2 0.12375708E+00 0.24608422E+04</pdfrwt>
<totfact> 0.34183235E+00</totfact>
</mgrwt>
</event>
<event>
 6    1  0.1762360E-005  0.8234856E+03  0.7818608E-02  0.9526631E-01
          1   -1    0    0  501    0  0.00000000000E+00  0.00000000000E+00  0.45335515744E+03  0.45335515744E+03  0.00000000000E+00 0. -1.
         -1   -1    0    0    0  501 -0.00000000000E+00 -0.00000000000E+00 -0.37394993278E+03  0.37394993278E+03  0.00000000000E+00 0.  1.
         23    2    1    2    0    0  0.21703568904E+03 -0.27707130240E+03  0.24609903423E+03  0.43786982850E+03  0.85394702005E+02 0.  0.
         13    1    3    3    0    0  0.12366269519E+03 -0.10332085781E+03  0.14226947947E+03  0.21496108166E+03  0.00000000000E+00 0.  1.
        -13    1    3    3    0    0  0.93372993846E+02 -0.17375044459E+03  0.10382955476E+03  0.22290874684E+03  0.00000000000E+00 0. -1.
         22    1    1    2    0    0 -0.21703568904E+03  0.27707130240E+03 -0.16669380956E+03  0.38943526172E+03  0.00000000000E+00 0.  1.
<mgrwt>
<rscale>  0 0.82348559E+03</rscale>
<asrwt>0</asrwt>
<pdfrwt beam="1">  1        1 0.69746948E-01 0.82348559E+03</pdfrwt>
<pdfrwt beam="2">  1       -1 0.57530759E-01 0.82348559E+03</pdfrwt>
<totfact> 0.15684934E+02</totfact>
</mgrwt>
</event>
<event>
 6    1  0.1762360E-005  0.9477120E+03  0.7818608E-02  0.9367829E-01
          1   -1    0    0  501    0  0.00000000000E+00  0.00000000000E+00  0.45064031119E+03  0.45064031119E+03  0.00000000000E+00 0. -1.
         -1   -1    0    0    0  501 -0.00000000000E+00 -0.00000000000E+00 -0.49826768742E+03  0.49826768742E+03  0.00000000000E+00 0.  1.
         23    2    1    2    0    0  0.13929047933E+03  0.33960370474E+03  0.26978140358E+03  0.46364431008E+03  0.86322225663E+02 0.  0.
         13    1    3    3    0    0  0.75022021088E+02  0.13218585108E+03  0.15866965056E+03  0.21972132551E+03  0.00000000000E+00 0. -1.
        -13    1    3    3    0    0  0.64268458243E+02  0.20741785366E+03  0.11111175302E+03  0.24392298457E+03  0.00000000000E+00 0.  1.
         22    1    1    2    0    0 -0.13929047933E+03 -0.33960370474E+03 -0.31740877981E+03  0.48526368853E+03  0.00000000000E+00 0.  1.
<mgrwt>
<rscale>  0 0.94771199E+03</rscale>
<asrwt>0</asrwt>
<pdfrwt beam="1">  1        1 0.69329279E-01 0.94771199E+03</pdfrwt>
<pdfrwt beam="2">  1       -1 0.76656567E-01 0.94771199E+03</pdfrwt>
<totfact> 0.87803422E+01</totfact>
</mgrwt>
</event>
<event>
 6    1  0.1762360E-005  0.2421262E+04  0.7818608E-02  0.8431586E-01
         -1   -1    0    0    0  501 -0.00000000000E+00  0.00000000000E+00  0.18882286959E+04  0.18882286959E+04  0.00000000000E+00 0. -1.
          1   -1    0    0  501    0  0.00000000000E+00 -0.00000000000E+00 -0.77619197676E+03  0.77619197676E+03  0.00000000000E+00 0.  1.
         23    2    1    2    0    0 -0.46139829024E+02  0.18719031756E+03  0.18700624517E+04  0.18822620506E+04  0.92777986587E+02 0.  0.
         13    1    3    3    0    0 -0.39113171740E+02  0.18998891326E+02  0.50249924888E+03  0.50437713390E+03  0.00000000000E+00 0. -1.
        -13    1    3    3    0    0 -0.70266572844E+01  0.16819142623E+03  0.13675632029E+04  0.13778849167E+04  0.00000000000E+00 0.  1.
         22    1    1    2    0    0  0.46139829024E+02 -0.18719031756E+03 -0.75802573260E+03  0.78215862208E+03  0.00000000000E+00 0.  1.
<mgrwt>
<rscale>  0 0.24212625E+04</rscale>
<asrwt>0</asrwt>
<pdfrwt beam="1">  1        1 0.11941415E+00 0.24212625E+04</pdfrwt>
<pdfrwt beam="2">  1       -1 0.29049672E+00 0.24212625E+04</pdfrwt>
<totfact> 0.78995314E-01</totfact>
</mgrwt>
</event>
<event>
 6    1  0.1762360E-005  0.1162427E+04  0.7818608E-02  0.9146395E-01
          1   -1    0    0  501    0  0.00000000000E+00  0.00000000000E+00  0.31489500379E+03  0.31489500379E+03  0.00000000000E+00 0. -1.
         -1   -1    0    0    0  501 -0.00000000000E+00 -0.00000000000E+00 -0.10727679443E+04  0.10727679443E+04  0.00000000000E+00 0.  1.
         23    2    1    2    0    0  0.51369380104E+03  0.19722085681E+03 -0.59327684357E+03  0.81332048693E+03  0.82069566555E+02 0.  0.
         13    1    3    3    0    0  0.76202862866E+02  0.22621816977E+02 -0.48419503147E+02  0.93075620854E+02  0.00000000000E+00 0. -1.
        -13    1    3    3    0    0  0.43749093817E+03  0.17459903983E+03 -0.54485734042E+03  0.72024486607E+03  0.00000000000E+00 0.  1.
         22    1    1    2    0    0 -0.51369380104E+03 -0.19722085681E+03 -0.16459609695E+03  0.57434246118E+03  0.00000000000E+00 0.  1.
<mgrwt>
<rscale>  0 0.11624272E+04</rscale>
<asrwt>0</asrwt>
<pdfrwt beam="1">  1        1 0.48445385E-01 0.11624272E+04</pdfrwt>
<pdfrwt beam="2">  1       -1 0.16504122E+00 0.11624272E+04</pdfrwt>
<totfact> 0.21868188E+01</totfact>
</mgrwt>
</event>
<event>
 6    1  0.1762360E-005  0.3053756E+04  0.7818608E-02  0.8228545E-01
         -2   -1    0    0    0  501 -0.00000000000E+00  0.00000000000E+00  0.23927064839E+04  0.23927064839E+04  0.00000000000E+00 0.  1.
          2   -1    0    0  501    0  0.00000000000E+00 -0.00000000000E+00 -0.97435929537E+03  0.97435929537E+03  0.00000000000E+00 0. -1.
         23    2    1    2    0    0 -0.23176291293E+03 -0.98323967494E+03  0.19702518450E+04  0.22159476029E+04  0.89761570957E+02 0.  0.
         11    1    3    3    0    0 -0.16934406249E+03 -0.84276443953E+03  0.17025500745E+04  0.19072509191E+04  0.00000000000E+00 0. -1.
        -11    1    3    3    0    0 -0.62418850439E+02 -0.14047523541E+03  0.26770177047E+03  0.30869668376E+03  0.00000000000E+00 0.  1.
         22    1    1    2    0    0  0.23176291293E+03  0.98323967494E+03 -0.55190465649E+03  0.11511181764E+04  0.00000000000E+00 0. -1.
<mgrwt>
<rscale>  0 0.30537556E+04</rscale>
<asrwt>0</asrwt>
<pdfrwt beam="1">  1        2 0.14990143E+00 0.30537556E+04</pdfrwt>
<pdfrwt beam="2">  1       -2 0.36810869E+00 0.30537556E+04</pdfrwt>
<totfact> 0.26614122E-01</totfact>
</mgrwt>
</event>
<event>
 6    1  0.1762360E-005  0.8319168E+03  0.7818608E-02  0.9514934E-01
         -2   -1    0    0    0  501 -0.00000000000E+00  0.00000000000E+00  0.10113112425E+04  0.10113112425E+04  0.00000000000E+00 0.  1.
          2   -1    0    0  501    0  0.00000000000E+00 -0.00000000000E+00 -0.17108618793E+03  0.17108618793E+03  0.00000000000E+00 0. -1.
         23    2    1    2    0    0 -0.66768062173E+02 -0.56202620888E+02  0.99606837763E+03  0.10037809417E+04  0.88358685665E+02 0.  0.
         13    1    3    3    0    0 -0.37577957211E+02  0.19139994274E+02  0.27790232857E+03  0.28108387800E+03  0.00000000000E+00 0.  1.
        -13    1    3    3    0    0 -0.29190104962E+02 -0.75342615163E+02  0.71816604906E+03  0.72269706372E+03  0.00000000000E+00 0. -1.
         22    1    1    2    0    0  0.66768062173E+02  0.56202620888E+02 -0.15584332302E+03  0.17861648875E+03  0.00000000000E+00 0. -1.
<mgrwt>
<rscale>  0 0.83191679E+03</rscale>
<asrwt>0</asrwt>
<pdfrwt beam="1">  1        2 0.26320953E-01 0.83191679E+03</pdfrwt>
<pdfrwt beam="2">  1       -2 0.15558634E+00 0.83191679E+03</pdfrwt>
<totfact> 0.56532498E+01</totfact>
</mgrwt>
</event>
<event>
 6    1  0.1762360E-005  0.1127533E+04  0.7818608E-02  0.9178764E-01
          1   -1    0    0  501    0  0.00000000000E+00  0.00000000000E+00  0.30477785755E+04  0.30477785755E+04  0.00000000000E+00 0. -1.
         -1   -1    0    0    0  501 -0.00000000000E+00 -0.00000000000E+00 -0.10428341165E+03  0.10428341165E+03  0.00000000000E+00 0.  1.
         23    2    1    2    0    0  0.46122950840E+03  0.40852270600E+02  0.23632771321E+04  0.24097315137E+04  0.85589705281E+02 0.  0.
         11    1    3    3    0    0  0.22547234027E+03  0.42935562871E+01  0.13531450591E+04  0.13718082088E+04  0.00000000000E+00 0.  1.
        -11    1    3    3    0    0  0.23575716812E+03  0.36558714313E+02  0.10101320731E+04  0.10379233049E+04  0.00000000000E+00 0. -1.
         22    1    1    2    0    0 -0.46122950840E+03 -0.40852270600E+02  0.58021803177E+03  0.74233047346E+03  0.00000000000E+00 0.  1.
<mgrwt>
<rscale>  0 0.11275331E+04</rscale>
<asrwt>0</asrwt>
<pdfrwt beam="1">  1        1 0.46888894E+00 0.11275331E+04</pdfrwt>
<pdfrwt beam="2">  1       -1 0.16043604E-01 0.11275331E+04</pdfrwt>
<totfact> 0.16445341E+01</totfact>
</mgrwt>
</event>
<event>
 6    1  0.1762360E-005  0.2623748E+04  0.7818608E-02  0.8360179E-01
         -2   -1    0    0    0  501 -0.00000000000E+00  0.00000000000E+00  0.54550737877E+03  0.54550737877E+03  0.00000000000E+00 0.  1.
          2   -1    0    0  501    0  0.00000000000E+00 -0.00000000000E+00 -0.31548867584E+04  0.31548867584E+04  0.00000000000E+00 0. -1.
         23    2    1    2    0    0 -0.59433663161E+03 -0.47399736000E+03 -0.28114863935E+04  0.29137831952E+04  0.88131938933E+02 0.  0.
         11    1    3    3    0    0 -0.23922039852E+03 -0.24499804039E+03 -0.12162635057E+04  0.12635455490E+04  0.00000000000E+00 0. -1.
        -11    1    3    3    0    0 -0.35511623309E+03 -0.22899931960E+03 -0.15952228878E+04  0.16502376462E+04  0.00000000000E+00 0.  1.
         22    1    1    2    0    0  0.59433663161E+03  0.47399736000E+03  0.20210701391E+03  0.78661094197E+03  0.00000000000E+00 0.  1.
<mgrwt>
<rscale>  0 0.26237485E+04</rscale>
<asrwt>0</asrwt>
<pdfrwt beam="1">  1        2 0.48536718E+00 0.26237485E+04</pdfrwt>
<pdfrwt beam="2">  1       -2 0.83924214E-01 0.26237485E+04</pdfrwt>
<totfact> 0.15191868E+00</totfact>
</mgrwt>
</event>
<event>
 6    1  0.1762360E-005  0.1286369E+04  0.7818608E-02  0.9040445E-01
          1   -1    0    0  501    0  0.00000000000E+00  0.00000000000E+00  0.25526431283E+04  0.25526431283E+04  0.00000000000E+00 0. -1.
         -1   -1    0    0    0  501 -0.00000000000E+00 -0.00000000000E+00 -0.16206183249E+03  0.16206183249E+03  0.00000000000E+00 0.  1.
         23    2    1    2    0    0  0.47909760109E+03 -0.15055350527E+03  0.36446167630E+03  0.62727554117E+03  0.91877210105E+02 0.  0.
         11    1    3    3    0    0  0.26833115917E+03 -0.90470585985E+02  0.14917969262E+03  0.32006424136E+03  0.00000000000E+00 0.  1.
        -11    1    3    3    0    0  0.21076644192E+03 -0.60082919287E+02  0.21528198368E+03  0.30721129981E+03  0.00000000000E+00 0. -1.
         22    1    1    2    0    0 -0.47909760109E+03  0.15055350527E+03  0.20261196195E+04  0.20874294196E+04  0.00000000000E+00 0. -1.
<mgrwt>
<rscale>  0 0.12863686E+04</rscale>
<asrwt>0</asrwt>
<pdfrwt beam="1">  1        1 0.39271430E+00 0.12863686E+04</pdfrwt>
<pdfrwt beam="2">  1       -1 0.24932592E-01 0.12863686E+04</pdfrwt>
<totfact> 0.17325751E+01</totfact>
</mgrwt>
</event>
<event>
 6    1  0.1762360E-005  0.8007247E+03  0.7818608E-02  0.9558969E-01
         -2   -1    0    0    0  501 -0.00000000000E+00  0.00000000000E+00  0.60451010848E+02  0.60451010848E+02  0.00000000000E+00 0.  1.
          2   -1    0    0  501    0  0.00000000000E+00 -0.00000000000E+00 -0.26515684394E+04  0.26515684394E+04  0.00000000000E+00 0. -1.
         23    2    1    2    0    0  0.48117181803E+02  0.38621300764E+03 -0.15406541877E+04  0.15917744901E+04  0.93031987340E+02 0.  0.
         13    1    3    3    0    0  0.74271741329E+02  0.27064726674E+03 -0.11336637155E+04  0.11678868329E+04  0.00000000000E+00 0. -1.
        -13    1    3    3    0    0 -0.26154559526E+02  0.11556574090E+03 -0.40699047220E+03  0.42388765719E+03  0.00000000000E+00 0.  1.
         22    1    1    2    0    0 -0.48117181803E+02 -0.38621300764E+03 -0.10504632408E+04  0.11202449602E+04  0.00000000000E+00 0.  1.
<mgrwt>
<rscale>  0 0.80072465E+03</rscale>
<asrwt>0</asrwt>
<pdfrwt beam="1">  1        2 0.40793363E+00 0.80072465E+03</pdfrwt>
<pdfrwt beam="2">  1       -2 0.93001549E-02 0.80072465E+03</pdfrwt>
<totfact> 0.22734697E+02</totfact>
</mgrwt>
</event>
<event>
 6    1  0.1762360E-005  0.1435704E+04  0.7818608E-02  0.8928372E-01
         -1   -1    0    0    0  501 -0.00000000000E+00  0.00000000000E+00  0.17926975811E+03  0.17926975811E+03  0.00000000000E+00 0.  1.
          1   -1    0    0  501    0  0.00000000000E+00 -0.00000000000E+00 -0.28745021317E+04  0.28745021317E+04  0.00000000000E+00 0. -1.
         23    2    1    2    0    0 -0.55759170245E+03  0.16586169440E+03 -0.46942884788E+03  0.75320240740E+03  0.92367824372E+02 0.  0.
         11    1    3    3    0    0 -0.42732034552E+03  0.85652357441E+02 -0.33833093934E+03  0.55173075730E+03  0.00000000000E+00 0. -1.
        -11    1    3    3    0    0 -0.13027135692E+03  0.80209336959E+02 -0.13109790854E+03  0.20147165010E+03  0.00000000000E+00 0.  1.
         22    1    1    2    0    0  0.55759170245E+03 -0.16586169440E+03 -0.22258035257E+04  0.23005694824E+04  0.00000000000E+00 0. -1.
<mgrwt>
<rscale>  0 0.14357037E+04</rscale>
<asrwt>0</asrwt>
<pdfrwt beam="1">  1        1 0.44223107E+00 0.14357037E+04</pdfrwt>
<pdfrwt beam="2">  1       -1 0.27579965E-01 0.14357037E+04</pdfrwt>
<totfact> 0.85223815E+00</totfact>
</mgrwt>
</event>
<event>
 6    1  0.1762360E-005  0.3660368E+04  0.7818608E-02  0.8076802E-01
          2   -1    0    0  501    0  0.00000000000E+00  0.00000000000E+00  0.11650369480E+04  0.11650369480E+04  0.00000000000E+00 0.  1.
         -2   -1    0    0    0  501 -0.00000000000E+00 -0.00000000000E+00 -0.28750786399E+04  0.28750786399E+04  0.00000000000E+00 0. -1.
         23    2    1    2    0    0 -0.43412779198E+03 -0.53616245116E+03 -0.27252276126E+04  0.28127038528E+04  0.92197121583E+02 0.  0.
         13    1    3    3    0    0 -0.37967236159E+03 -0.50923292889E+03 -0.24985884393E+04  0.25780638989E+04  0.00000000000E+00 0.  1.
        -13    1    3    3    0    0 -0.54455430393E+02 -0.26929522271E+02 -0.22663917329E+03  0.23463995385E+03  0.00000000000E+00 0. -1.
         22    1    1    2    0    0  0.43412779198E+03  0.53616245116E+03  0.10151859207E+04  0.12274117351E+04  0.00000000000E+00 0.  1.
<mgrwt>
<rscale>  0 0.36603677E+04</rscale>
<asrwt>0</asrwt>
<pdfrwt beam="1">  1        2 0.17923645E+00 0.36603677E+04</pdfrwt>
<pdfrwt beam="2">  1       -2 0.44231979E+00 0.36603677E+04</pdfrwt>
<totfact> 0.62859245E-02</totfact>
</mgrwt>
</event>
<event>
 6    1  0.1762360E-005  0.5579136E+03  0.7818608E-02  0.9996787E-01
         -2   -1    0    0    0  501 -0.00000000000E+00  0.00000000000E+00  0.11613936294E+03  0.11613936294E+03  0.00000000000E+00 0.  1.
          2   -1    0    0  501    0  0.00000000000E+00 -0.00000000000E+00 -0.67003038152E+03  0.67003038152E+03  0.00000000000E+00 0. -1.
         23    2    1    2    0    0  0.40226277309E+02  0.18630724693E+03 -0.55688261036E+03  0.59554578671E+03  0.90708316631E+02 0.  0.
         13    1    3    3    0    0 -0.18609057201E+02  0.13273033353E+02 -0.29031026202E+02  0.36949572482E+02  0.00000000000E+00 0. -1.
        -13    1    3    3    0    0  0.58835334510E+02  0.17303421358E+03 -0.52785158415E+03  0.55859621423E+03  0.00000000000E+00 0.  1.
         22    1    1    2    0    0 -0.40226277309E+02 -0.18630724693E+03  0.29915917678E+01  0.19062395775E+03  0.00000000000E+00 0.  1.
<mgrwt>
<rscale>  0 0.55791362E+03</rscale>
<asrwt>0</asrwt>
<pdfrwt beam="1">  1        2 0.10308160E+00 0.55791362E+03</pdfrwt>
<pdfrwt beam="2">  1       -2 0.17867594E-01 0.55791362E+03</pdfrwt>
<totfact> 0.11282107E+03</totfact>
</mgrwt>
</event>
<event>
 6    1  0.1762360E-005  0.2190057E+04  0.7818608E-02  0.8522578E-01
         -2   -1    0    0    0  501 -0.00000000000E+00  0.00000000000E+00  0.32114810495E+03  0.32114810495E+03  0.00000000000E+00 0.  1.
          2   -1    0    0  501    0  0.00000000000E+00 -0.00000000000E+00 -0.37337521584E+04  0.37337521584E+04  0.00000000000E+00 0. -1.
         23    2    1    2    0    0  0.71590639549E+03  0.77158553746E+03 -0.22550455696E+04  0.24903530918E+04  0.93604442903E+02 0.  0.
         13    1    3    3    0    0  0.15885695135E+03  0.21898148481E+03 -0.52136077529E+03  0.58737167083E+03  0.00000000000E+00 0.  1.
        -13    1    3    3    0    0  0.55704944413E+03  0.55260405265E+03 -0.17336847944E+04  0.19029814209E+04  0.00000000000E+00 0. -1.
         22    1    1    2    0    0 -0.71590639549E+03 -0.77158553746E+03 -0.11575584838E+04  0.15645471716E+04  0.00000000000E+00 0.  1.
<mgrwt>
<rscale>  0 0.21900570E+04</rscale>
<asrwt>0</asrwt>
<pdfrwt beam="1">  1        2 0.57442338E+00 0.21900570E+04</pdfrwt>
<pdfrwt beam="2">  1       -2 0.49407403E-01 0.21900570E+04</pdfrwt>
<totfact> 0.19644135E+00</totfact>
</mgrwt>
</event>
<event>
 6    1  0.1762360E-005  0.1901944E+04  0.7818608E-02  0.8653889E-01
          2   -1    0    0  501    0  0.00000000000E+00  0.00000000000E+00  0.15733492905E+04  0.15733492905E+04  0.00000000000E+00 0. -1.
         -2   -1    0    0    0  501 -0.00000000000E+00 -0.00000000000E+00 -0.57479142777E+03  0.57479142777E+03  0.00000000000E+00 0.  1.
         23    2    1    2    0    0 -0.84939062346E+03 -0.30747835982E+03  0.17294113410E+03  0.92435546113E+03  0.92287646363E+02 0.  0.
         11    1    3    3    0    0 -0.40602156155E+03 -0.16445184240E+03  0.12770608325E+03  0.45629679005E+03  0.00000000000E+00 0. -1.
        -11    1    3    3    0    0 -0.44336906191E+03 -0.14302651743E+03  0.45235050859E+02  0.46805867108E+03  0.00000000000E+00 0.  1.
         22    1    1    2    0    0  0.84939062346E+03  0.30747835982E+03  0.82561672859E+03  0.12237852571E+04  0.00000000000E+00 0. -1.
<mgrwt>
<rscale>  0 0.19019439E+04</rscale>
<asrwt>0</asrwt>
<pdfrwt beam="1">  1        2 0.24205373E+00 0.19019439E+04</pdfrwt>
<pdfrwt beam="2">  1       -2 0.88429452E-01 0.19019439E+04</pdfrwt>
<totfact> 0.11895580E+01</totfact>
</mgrwt>
</event>
<event>
 6    1  0.1762360E-005  0.2082725E+04  0.7818608E-02  0.8568892E-01
          2   -1    0    0  501    0  0.00000000000E+00  0.00000000000E+00  0.33015383080E+04  0.33015383080E+04  0.00000000000E+00 0. -1.
         -2   -1    0    0    0  501 -0.00000000000E+00 -0.00000000000E+00 -0.32846381625E+03  0.32846381625E+03  0.00000000000E+00 0.  1.
         23    2    1    2    0    0  0.62163129111E+03 -0.58308660185E+03  0.25261539866E+04  0.26676334915E+04  0.91646241906E+02 0.  0.
         11    1    3    3    0    0  0.42149138334E+03 -0.38421221270E+03  0.18172492758E+04  0.19046440458E+04  0.00000000000E+00 0. -1.
        -11    1    3    3    0    0  0.20013990777E+03 -0.19887438915E+03  0.70890471078E+03  0.76298944574E+03  0.00000000000E+00 0.  1.
         22    1    1    2    0    0 -0.62163129111E+03  0.58308660185E+03  0.44692050511E+03  0.96236863271E+03  0.00000000000E+00 0. -1.
<mgrwt>
<rscale>  0 0.20827250E+04</rscale>
<asrwt>0</asrwt>
<pdfrwt beam="1">  1        2 0.50792895E+00 0.20827250E+04</pdfrwt>
<pdfrwt beam="2">  1       -2 0.50532897E-01 0.20827250E+04</pdfrwt>
<totfact> 0.38105087E+00</totfact>
</mgrwt>
</event>
<event>
 6    1  0.1762360E-005  0.1325852E+04  0.7818608E-02  0.9009312E-01
          1   -1    0    0  501    0  0.00000000000E+00  0.00000000000E+00  0.31023132220E+04  0.31023132220E+04  0.00000000000E+00 0. -1.
         -1   -1    0    0    0  501 -0.00000000000E+00 -0.00000000000E+00 -0.14165908023E+03  0.14165908023E+03  0.00000000000E+00 0.  1.
         23    2    1    2    0    0  0.54279367810E+02 -0.17984532527E+02  0.30955756590E+04  0.30974338807E+04  0.90765032913E+02 0.  0.
         13    1    3    3    0    0  0.46509943015E+02  0.29893050466E+02  0.20331627026E+04  0.20339142914E+04  0.00000000000E+00 0.  1.
        -13    1    3    3    0    0  0.77694247949E+01 -0.47877582993E+02  0.10624129564E+04  0.10635195893E+04  0.00000000000E+00 0. -1.
         22    1    1    2    0    0 -0.54279367810E+02  0.17984532527E+02 -0.13492151724E+03  0.14653842157E+03  0.00000000000E+00 0.  1.
<mgrwt>
<rscale>  0 0.13258519E+04</rscale>
<asrwt>0</asrwt>
<pdfrwt beam="1">  1        1 0.47727891E+00 0.13258519E+04</pdfrwt>
<pdfrwt beam="2">  1       -1 0.21793707E-01 0.13258519E+04</pdfrwt>
<totfact> 0.88197716E+00</totfact>
</mgrwt>
</event>
<event>
 6    1  0.1762360E-005  0.8404218E+03  0.7818608E-02  0.9503283E-01
         -2   -1    0    0    0  501 -0.00000000000E+00  0.00000000000E+00  0.23349185176E+03  0.23349185176E+03  0.00000000000E+00 0.  1.
          2   -1    0    0  501    0  0.00000000000E+00 -0.00000000000E+00 -0.75624565916E+03  0.75624565916E+03  0.00000000000E+00 0. -1.
         23    2    1    2    0    0 -0.11878656933E+03 -0.31884910456E+03  0.16072950609E+02  0.35247047452E+03  0.90565419070E+02 0.  0.
         11    1    3    3    0    0 -0.48581672901E+02 -0.57678659466E+02 -0.23859132969E+02  0.79096554449E+02  0.00000000000E+00 0. -1.
        -11    1    3    3    0    0 -0.70204896433E+02 -0.26117044510E+03  0.39932083579E+02  0.27337392007E+03  0.00000000000E+00 0.  1.
         22    1    1    2    0    0  0.11878656933E+03  0.31884910456E+03 -0.53882675801E+03  0.63726703640E+03  0.00000000000E+00 0. -1.
<mgrwt>
<rscale>  0 0.84042180E+03</rscale>
<asrwt>0</asrwt>
<pdfrwt beam="1">  1        2 0.11634548E+00 0.84042180E+03</pdfrwt>
<pdfrwt beam="2">  1       -2 0.35921824E-01 0.84042180E+03</pdfrwt>
<totfact> 0.27144362E+02</totfact>
</mgrwt>
</event>
<event>
 6    1  0.1762360E-005  0.1676236E+04  0.7818608E-02  0.8775035E-01
          1   -1    0    0  501    0  0.00000000000E+00  0.00000000000E+00  0.92402579276E+03  0.92402579276E+03  0.00000000000E+00 0. -1.
         -1   -1    0    0    0  501 -0.00000000000E+00 -0.00000000000E+00 -0.76019703352E+03  0.76019703352E+03  0.00000000000E+00 0.  1.
         23    2    1    2    0    0 -0.38959319771E+03 -0.72600249442E+03  0.21965176957E+03  0.85840281557E+03  0.98721893711E+02 0.  0.
         11    1    3    3    0    0 -0.19775635015E+03 -0.43675696976E+03  0.89507058692E+02  0.48772506416E+03  0.00000000000E+00 0. -1.
        -11    1    3    3    0    0 -0.19183684757E+03 -0.28924552466E+03  0.13014471088E+03  0.37067775141E+03  0.00000000000E+00 0.  1.
         22    1    1    2    0    0  0.38959319771E+03  0.72600249442E+03 -0.55823010338E+02  0.82582001071E+03  0.00000000000E+00 0.  1.
<mgrwt>
<rscale>  0 0.16762359E+04</rscale>
<asrwt>0</asrwt>
<pdfrwt beam="1">  1        1 0.14215781E+00 0.16762359E+04</pdfrwt>
<pdfrwt beam="2">  1       -1 0.11695339E+00 0.16762359E+04</pdfrwt>
<totfact> 0.10933297E+01</totfact>
</mgrwt>
</event>
<event>
 6    1  0.1762360E-005  0.5757478E+03  0.7818608E-02  0.9957040E-01
          3   -1    0    0  501    0  0.00000000000E+00  0.00000000000E+00  0.26362536681E+03  0.26362536681E+03  0.00000000000E+00 0. -1.
         -3   -1    0    0    0  501 -0.00000000000E+00 -0.00000000000E+00 -0.31435287359E+03  0.31435287359E+03  0.00000000000E+00 0.  1.
         23    2    1    2    0    0  0.62745667539E+02 -0.26540140980E+03  0.41492113368E+02  0.29009044028E+03  0.89754893742E+02 0.  0.
         13    1    3    3    0    0 -0.17140255252E+02 -0.97094752031E+02  0.31554763466E+02  0.10352237594E+03  0.00000000000E+00 0.  1.
        -13    1    3    3    0    0  0.79885922791E+02 -0.16830665777E+03  0.99373499023E+01  0.18656806435E+03  0.00000000000E+00 0. -1.
         22    1    1    2    0    0 -0.62745667539E+02  0.26540140980E+03 -0.92219620142E+02  0.28788780012E+03  0.00000000000E+00 0.  1.
<mgrwt>
<rscale>  0 0.57574783E+03</rscale>
<asrwt>0</asrwt>
<pdfrwt beam="1">  1        3 0.40557749E-01 0.57574783E+03</pdfrwt>
<pdfrwt beam="2">  1       -3 0.48361980E-01 0.57574783E+03</pdfrwt>
<totfact> 0.67348593E+01</totfact>
</mgrwt>
</event>
<event>
 6    1  0.1762360E-005  0.1496633E+04  0.7818608E-02  0.8886695E-01
          2   -1    0    0  501    0  0.00000000000E+00  0.00000000000E+00  0.30186508860E+04  0.30186508860E+04  0.00000000000E+00 0. -1.
         -2   -1    0    0    0  501 -0.00000000000E+00 -0.00000000000E+00 -0.18550597075E+03  0.18550597075E+03  0.00000000000E+00 0.  1.
         23    2    1    2    0    0  0.43263877345E+03 -0.32676026321E+03  0.25172730677E+04  0.25766828716E+04  0.93179106236E+02 0.  0.
         13    1    3    3    0    0  0.41882020407E+03 -0.28676199788E+03  0.23034709676E+04  0.23587329873E+04  0.00000000000E+00 0. -1.
        -13    1    3    3    0    0  0.13818569377E+02 -0.39998265329E+02  0.21380210009E+03  0.21794988436E+03  0.00000000000E+00 0.  1.
         22    1    1    2    0    0 -0.43263877345E+03  0.32676026321E+03  0.31587184758E+03  0.62747398512E+03  0.00000000000E+00 0.  1.
<mgrwt>
<rscale>  0 0.14966332E+04</rscale>
<asrwt>0</asrwt>
<pdfrwt beam="1">  1        2 0.46440779E+00 0.14966332E+04</pdfrwt>
<pdfrwt beam="2">  1       -2 0.28539382E-01 0.14966332E+04</pdfrwt>
<totfact> 0.18571479E+01</totfact>
</mgrwt>
</event>
<event>
 6    1  0.1762360E-005  0.1100568E+04  0.7818608E-02  0.9204639E-01
          2   -1    0    0  501    0  0.00000000000E+00  0.00000000000E+00  0.10332038119E+04  0.10332038119E+04  0.00000000000E+00 0. -1.
         -2   -1    0    0    0  501 -0.00000000000E+00 -0.00000000000E+00 -0.29308090855E+03  0.29308090855E+03  0.00000000000E+00 0.  1.
         23    2    1    2    0    0 -0.42986866382E+03  0.17221726076E+03  0.23175407663E+02  0.47278629361E+03  0.92433364503E+02 0.  0.
         13    1    3    3    0    0 -0.21403578559E+03  0.11340532290E+03 -0.26396936845E+02  0.24365730658E+03  0.00000000000E+00 0.  1.
        -13    1    3    3    0    0 -0.21583287823E+03  0.58811937856E+02  0.49572344508E+02  0.22912898703E+03  0.00000000000E+00 0. -1.
         22    1    1    2    0    0  0.42986866382E+03 -0.17221726076E+03  0.71694749571E+03  0.85349842686E+03  0.00000000000E+00 0. -1.
<mgrwt>
<rscale>  0 0.11005677E+04</rscale>
<asrwt>0</asrwt>
<pdfrwt beam="1">  1        2 0.15895443E+00 0.11005677E+04</pdfrwt>
<pdfrwt beam="2">  1       -2 0.45089371E-01 0.11005677E+04</pdfrwt>
<totfact> 0.11103852E+02</totfact>
</mgrwt>
</event>
<event>
 6    1  0.1762360E-005  0.1090756E+04  0.7818608E-02  0.9214248E-01
          1   -1    0    0  501    0  0.00000000000E+00  0.00000000000E+00  0.63607573021E+03  0.63607573021E+03  0.00000000000E+00 0. -1.
         -1   -1    0    0    0  501 -0.00000000000E+00 -0.00000000000E+00 -0.46761314396E+03  0.46761314396E+03  0.00000000000E+00 0.  1.
         23    2    1    2    0    0 -0.24108249075E+02  0.14138583908E+03  0.61308530358E+03  0.63650526579E+03  0.93242698061E+02 0.  0.
         11    1    3    3    0    0  0.32439528636E+02  0.73030113611E+02  0.23743293115E+03  0.25051969445E+03  0.00000000000E+00 0. -1.
        -11    1    3    3    0    0 -0.56547777711E+02  0.68355725473E+02  0.37565237243E+03  0.38598557134E+03  0.00000000000E+00 0.  1.
         22    1    1    2    0    0  0.24108249075E+02 -0.14138583908E+03 -0.44462271734E+03  0.46718360838E+03  0.00000000000E+00 0.  1.
<mgrwt>
<rscale>  0 0.10907564E+04</rscale>
<asrwt>0</asrwt>
<pdfrwt beam="1">  1        1 0.97857805E-01 0.10907564E+04</pdfrwt>
<pdfrwt beam="2">  1       -1 0.71940484E-01 0.10907564E+04</pdfrwt>
<totfact> 0.61170534E+01</totfact>
</mgrwt>
</event>
<event>
 6    1  0.2222143E-005  0.4624230E+04  0.7818608E-02  0.7889242E-01
          3   -1    0    0  501    0  0.00000000000E+00  0.00000000000E+00  0.26209360620E+04  0.26209360620E+04  0.00000000000E+00 0. -1.
         -3   -1    0    0    0  501 -0.00000000000E+00 -0.00000000000E+00 -0.20396816018E+04  0.20396816018E+04  0.00000000000E+00 0.  1.
         23    2    1    2    0    0  0.21629363329E+04  0.56312041053E+03  0.88371956098E+03  0.24052056584E+04  0.93036656760E+02 0.  0.
         13    1    3    3    0    0  0.10887046792E+04  0.32250329504E+03  0.41955242640E+03  0.12105001001E+04  0.00000000000E+00 0. -1.
        -13    1    3    3    0    0  0.10742316537E+04  0.24061711549E+03  0.46416713458E+03  0.11947055582E+04  0.00000000000E+00 0.  1.
         22    1    1    2    0    0 -0.21629363329E+04 -0.56312041053E+03 -0.30246510082E+03  0.22554120055E+04  0.00000000000E+00 0. -1.
<mgrwt>
<rscale>  0 0.46242297E+04</rscale>
<asrwt>0</asrwt>
<pdfrwt beam="1">  1        3 0.40322093E+00 0.46242297E+04</pdfrwt>
<pdfrwt beam="2">  1       -3 0.31379717E+00 0.46242297E+04</pdfrwt>
<totfact> 0.65510272E-04</totfact>
</mgrwt>
</event>
<event>
 6    1  0.1762360E-005  0.2733303E+04  0.7818608E-02  0.8324280E-01
         -1   -1    0    0    0  501 -0.00000000000E+00  0.00000000000E+00  0.84619299317E+03  0.84619299317E+03  0.00000000000E+00 0.  1.
          1   -1    0    0  501    0  0.00000000000E+00 -0.00000000000E+00 -0.22072219387E+04  0.22072219387E+04  0.00000000000E+00 0. -1.
         23    2    1    2    0    0 -0.53824912896E+03 -0.10666099036E+04 -0.14192386657E+04  0.18572723055E+04  0.88618367605E+02 0.  0.
         11    1    3    3    0    0 -0.43651351079E+03 -0.93139052721E+03 -0.12072640274E+04  0.15860387104E+04  0.00000000000E+00 0.  1.
        -11    1    3    3    0    0 -0.10173561817E+03 -0.13521937637E+03 -0.21197463838E+03  0.27123359502E+03  0.00000000000E+00 0. -1.
         22    1    1    2    0    0  0.53824912896E+03  0.10666099036E+04  0.58209720175E+02  0.11961426264E+04  0.00000000000E+00 0.  1.
<mgrwt>
<rscale>  0 0.27333026E+04</rscale>
<asrwt>0</asrwt>
<pdfrwt beam="1">  1        1 0.33957261E+00 0.27333026E+04</pdfrwt>
<pdfrwt beam="2">  1       -1 0.13018354E+00 0.27333026E+04</pdfrwt>
<totfact> 0.94745928E-01</totfact>
</mgrwt>
</event>
<event>
 6    1  0.1762360E-005  0.2097055E+04  0.7818608E-02  0.8562542E-01
          2   -1    0    0  501    0  0.00000000000E+00  0.00000000000E+00  0.18848107017E+04  0.18848107017E+04  0.00000000000E+00 0. -1.
         -2   -1    0    0    0  501 -0.00000000000E+00 -0.00000000000E+00 -0.58330008319E+03  0.58330008319E+03  0.00000000000E+00 0.  1.
         23    2    1    2    0    0  0.91398873077E+03 -0.37476737433E+03  0.10586565521E+04  0.14508575802E+04  0.91695353785E+02 0.  0.
         13    1    3    3    0    0  0.69901128861E+03 -0.24457590161E+03  0.80283977866E+03  0.10922389223E+04  0.00000000000E+00 0.  1.
        -13    1    3    3    0    0  0.21497744217E+03 -0.13019147271E+03  0.25581677349E+03  0.35861865792E+03  0.00000000000E+00 0. -1.
         22    1    1    2    0    0 -0.91398873077E+03  0.37476737433E+03  0.24285406637E+03  0.10172532047E+04  0.00000000000E+00 0. -1.
<mgrwt>
<rscale>  0 0.20970553E+04</rscale>
<asrwt>0</asrwt>
<pdfrwt beam="1">  1        2 0.28997087E+00 0.20970553E+04</pdfrwt>
<pdfrwt beam="2">  1       -2 0.89738475E-01 0.20970553E+04</pdfrwt>
<totfact> 0.75924895E+00</totfact>
</mgrwt>
</event>
<event>
 6    1  0.1762360E-005  0.4575116E+04  0.7818608E-02  0.7897617E-01
         -2   -1    0    0    0  501 -0.00000000000E+00  0.00000000000E+00  0.14136062350E+04  0.14136062350E+04  0.00000000000E+00 0.  1.
          2   -1    0    0  501    0  0.00000000000E+00 -0.00000000000E+00 -0.37018237267E+04  0.37018237267E+04  0.00000000000E+00 0. -1.
         23    2    1    2    0    0 -0.16605334972E+04 -0.10467628542E+04  0.16690623106E+03  0.19720692662E+04  0.90086250675E+02 0.  0.
         13    1    3    3    0    0 -0.72561827660E+03 -0.50273650212E+03  0.98286387084E+02  0.88821511346E+03  0.00000000000E+00 0. -1.
        -13    1    3    3    0    0 -0.93491522056E+03 -0.54402635205E+03  0.68619843978E+02  0.10838541527E+04  0.00000000000E+00 0.  1.
         22    1    1    2    0    0  0.16605334972E+04  0.10467628542E+04 -0.24551237227E+04  0.31433606955E+04  0.00000000000E+00 0. -1.
<mgrwt>
<rscale>  0 0.45751158E+04</rscale>
<asrwt>0</asrwt>
<pdfrwt beam="1">  1        2 0.56951133E+00 0.45751158E+04</pdfrwt>
<pdfrwt beam="2">  1       -2 0.21747789E+00 0.45751158E+04</pdfrwt>
<totfact> 0.44818055E-02</totfact>
</mgrwt>
</event>
<event>
 6    1  0.1762360E-005  0.3325821E+04  0.7818608E-02  0.8156356E-01
         -2   -1    0    0    0  501 -0.00000000000E+00  0.00000000000E+00  0.10696605726E+04  0.10696605726E+04  0.00000000000E+00 0.  1.
          2   -1    0    0  501    0  0.00000000000E+00 -0.00000000000E+00 -0.25851856444E+04  0.25851856444E+04  0.00000000000E+00 0. -1.
         23    2    1    2    0    0 -0.39187879542E+03 -0.18030006229E+02 -0.25328658000E+04  0.25644902069E+04  0.85479758361E+02 0.  0.
         13    1    3    3    0    0 -0.12330764343E+01  0.30695296964E+01 -0.12552028117E+03  0.12556386214E+03  0.00000000000E+00 0.  1.
        -13    1    3    3    0    0 -0.39064571899E+03 -0.21099535926E+02 -0.24073455188E+04  0.24389263447E+04  0.00000000000E+00 0. -1.
         22    1    1    2    0    0  0.39187879542E+03  0.18030006229E+02  0.10173407282E+04  0.10903560100E+04  0.00000000000E+00 0.  1.
<mgrwt>
<rscale>  0 0.33258209E+04</rscale>
<asrwt>0</asrwt>
<pdfrwt beam="1">  1        2 0.39772087E+00 0.33258209E+04</pdfrwt>
<pdfrwt beam="2">  1       -2 0.16456317E+00 0.33258209E+04</pdfrwt>
<totfact> 0.60334792E-01</totfact>
</mgrwt>
</event>
<event>
 6    1  0.1762360E-005  0.2411894E+04  0.7818608E-02  0.8435064E-01
         -1   -1    0    0    0  501 -0.00000000000E+00  0.00000000000E+00  0.13387926509E+04  0.13387926509E+04  0.00000000000E+00 0. -1.
          1   -1    0    0  501    0  0.00000000000E+00 -0.00000000000E+00 -0.10862832583E+04  0.10862832583E+04  0.00000000000E+00 0.  1.
         23    2    1    2    0    0  0.71782531749E+03  0.13949181440E+03  0.10884741817E+04  0.13144147182E+04  0.90437018533E+02 0.  0.
         11    1    3    3    0    0  0.29706981998E+03  0.31556048592E+02  0.50924435977E+03  0.59040331986E+03  0.00000000000E+00 0. -1.
        -11    1    3    3    0    0  0.42075549751E+03  0.10793576580E+03  0.57922982196E+03  0.72401139830E+03  0.00000000000E+00 0.  1.
         22    1    1    2    0    0 -0.71782531749E+03 -0.13949181440E+03 -0.83596478909E+03  0.11106611911E+04  0.00000000000E+00 0.  1.
<mgrwt>
<rscale>  0 0.24118939E+04</rscale>
<asrwt>0</asrwt>
<pdfrwt beam="1">  1        1 0.16712050E+00 0.24118939E+04</pdfrwt>
<pdfrwt beam="2">  1       -1 0.20596810E+00 0.24118939E+04</pdfrwt>
<totfact> 0.15919202E+00</totfact>
</mgrwt>
</event>
<event>
 6    1  0.1762360E-005  0.2489216E+04  0.7818608E-02  0.8406838E-01
          2   -1    0    0  501    0  0.00000000000E+00  0.00000000000E+00  0.21795110469E+04  0.21795110469E+04  0.00000000000E+00 0.  1.
         -2   -1    0    0    0  501 -0.00000000000E+00 -0.00000000000E+00 -0.71073209595E+03  0.71073209595E+03  0.00000000000E+00 0. -1.
         23    2    1    2    0    0 -0.44794500185E+02 -0.85306850982E+03 -0.31293683322E+03  0.91432726275E+03  0.91282266293E+02 0.  0.
         11    1    3    3    0    0 -0.40784871139E+02 -0.33572539761E+03 -0.83341007184E+02  0.34831117093E+03  0.00000000000E+00 0. -1.
        -11    1    3    3    0    0 -0.40096290458E+01 -0.51734311221E+03 -0.22959582603E+03  0.56601609182E+03  0.00000000000E+00 0.  1.
         22    1    1    2    0    0  0.44794500185E+02  0.85306850982E+03  0.17817157842E+04  0.19759158801E+04  0.00000000000E+00 0.  1.
<mgrwt>
<rscale>  0 0.24892155E+04</rscale>
<asrwt>0</asrwt>
<pdfrwt beam="1">  1        2 0.33530939E+00 0.24892155E+04</pdfrwt>
<pdfrwt beam="2">  1       -2 0.10934340E+00 0.24892155E+04</pdfrwt>
<totfact> 0.31551208E+00</totfact>
</mgrwt>
</event>
<event>
 6    1  0.1762360E-005  0.6916305E+03  0.7818608E-02  0.9731653E-01
          1   -1    0    0  501    0  0.00000000000E+00  0.00000000000E+00  0.14906428339E+03  0.14906428339E+03  0.00000000000E+00 0. -1.
         -1   -1    0    0    0  501 -0.00000000000E+00 -0.00000000000E+00 -0.80225908611E+03  0.80225908611E+03  0.00000000000E+00 0.  1.
         23    2    1    2    0    0 -0.10667218977E+03 -0.13246019323E+03 -0.73696736567E+03  0.76173829318E+03  0.90552031348E+02 0.  0.
         13    1    3    3    0    0 -0.10020936135E+02 -0.51169153816E+02 -0.36980449029E+03  0.37346226382E+03  0.00000000000E+00 0. -1.
        -13    1    3    3    0    0 -0.96651253632E+02 -0.81291039409E+02 -0.36716287538E+03  0.38827602936E+03  0.00000000000E+00 0.  1.
         22    1    1    2    0    0  0.10667218977E+03  0.13246019323E+03  0.83772562950E+02  0.18958507632E+03  0.00000000000E+00 0. -1.
<mgrwt>
<rscale>  0 0.69163047E+03</rscale>
<asrwt>0</asrwt>
<pdfrwt beam="1">  1        1 0.22932966E-01 0.69163047E+03</pdfrwt>
<pdfrwt beam="2">  1       -1 0.12342448E+00 0.69163047E+03</pdfrwt>
<totfact> 0.12860287E+02</totfact>
</mgrwt>
</event>
<event>
 6    1  0.1762360E-005  0.2768241E+04  0.7818608E-02  0.8313197E-01
          1   -1    0    0  501    0  0.00000000000E+00  0.00000000000E+00  0.13365526616E+04  0.13365526616E+04  0.00000000000E+00 0. -1.
         -1   -1    0    0    0  501 -0.00000000000E+00 -0.00000000000E+00 -0.14333813406E+04  0.14333813406E+04  0.00000000000E+00 0.  1.
         23    2    1    2    0    0 -0.84647825986E+03  0.10925044444E+04 -0.23251510612E+02  0.13859162981E+04  0.10065757398E+03 0.  0.
         11    1    3    3    0    0 -0.64428441512E+03  0.79659819017E+03 -0.55793659998E+02  0.10260526383E+04  0.00000000000E+00 0. -1.
        -11    1    3    3    0    0 -0.20219384474E+03  0.29590625424E+03  0.32542149386E+02  0.35986365978E+03  0.00000000000E+00 0.  1.
         22    1    1    2    0    0  0.84647825986E+03 -0.10925044444E+04 -0.73577168389E+02  0.13840177041E+04  0.00000000000E+00 0. -1.
<mgrwt>
<rscale>  0 0.27682411E+04</rscale>
<asrwt>0</asrwt>
<pdfrwt beam="1">  1        1 0.20562349E+00 0.27682411E+04</pdfrwt>
<pdfrwt beam="2">  1       -1 0.22052021E+00 0.27682411E+04</pdfrwt>
<totfact> 0.80731346E-01</totfact>
</mgrwt>
</event>
<event>
 6    1  0.1762360E-005  0.2363282E+04  0.7818608E-02  0.8453380E-01
          2   -1    0    0  501    0  0.00000000000E+00  0.00000000000E+00  0.35502908779E+03  0.35502908779E+03  0.00000000000E+00 0. -1.
         -2   -1    0    0    0  501 -0.00000000000E+00 -0.00000000000E+00 -0.39328476308E+04  0.39328476308E+04  0.00000000000E+00 0.  1.
         23    2    1    2    0    0  0.71910947187E+03  0.22904531480E+03 -0.14610474685E+03  0.77415507799E+03  0.91593116362E+02 0.  0.
         11    1    3    3    0    0  0.46401031708E+03  0.19224184285E+03 -0.10585072695E+03  0.51329024624E+03  0.00000000000E+00 0. -1.
        -11    1    3    3    0    0  0.25509915480E+03  0.36803471950E+02 -0.40254019896E+02  0.26086483175E+03  0.00000000000E+00 0.  1.
         22    1    1    2    0    0 -0.71910947187E+03 -0.22904531480E+03 -0.34317137961E+04  0.35137216406E+04  0.00000000000E+00 0.  1.
<mgrwt>
<rscale>  0 0.23632819E+04</rscale>
<asrwt>0</asrwt>
<pdfrwt beam="1">  1        2 0.54619857E-01 0.23632819E+04</pdfrwt>
<pdfrwt beam="2">  1       -2 0.60505351E+00 0.23632819E+04</pdfrwt>
<totfact> 0.39044528E-02</totfact>
</mgrwt>
</event>
<event>
 6    1  0.1762360E-005  0.3467983E+04  0.7818608E-02  0.8121420E-01
          2   -1    0    0  501    0  0.00000000000E+00  0.00000000000E+00  0.15705577470E+04  0.15705577470E+04  0.00000000000E+00 0. -1.
         -2   -1    0    0    0  501 -0.00000000000E+00 -0.00000000000E+00 -0.19144324978E+04  0.19144324978E+04  0.00000000000E+00 0.  1.
         23    2    1    2    0    0  0.68417137508E+03 -0.78715234492E+03 -0.15627567653E+04  0.18808167348E+04  0.86968948091E+02 0.  0.
         11    1    3    3    0    0  0.18904961116E+03 -0.18829478498E+03 -0.34254355149E+03  0.43420129686E+03  0.00000000000E+00 0.  1.
        -11    1    3    3    0    0  0.49512176392E+03 -0.59885755994E+03 -0.12202132138E+04  0.14466154380E+04  0.00000000000E+00 0. -1.
         22    1    1    2    0    0 -0.68417137508E+03  0.78715234492E+03  0.12188820145E+04  0.16041735099E+04  0.00000000000E+00 0. -1.
<mgrwt>
<rscale>  0 0.34679832E+04</rscale>
<asrwt>0</asrwt>
<pdfrwt beam="1">  1        2 0.24162427E+00 0.34679832E+04</pdfrwt>
<pdfrwt beam="2">  1       -2 0.29452808E+00 0.34679832E+04</pdfrwt>
<totfact> 0.32761122E-01</totfact>
</mgrwt>
</event>
<event>
 6    1  0.1762360E-005  0.9770928E+03  0.7818608E-02  0.9334032E-01
          2   -1    0    0  501    0  0.00000000000E+00  0.00000000000E+00  0.25464041661E+04  0.25464041661E+04  0.00000000000E+00 0. -1.
         -2   -1    0    0    0  501 -0.00000000000E+00 -0.00000000000E+00 -0.93731231865E+02  0.93731231865E+02  0.00000000000E+00 0.  1.
         23    2    1    2    0    0 -0.10783804025E+03 -0.40550033598E+03  0.58562814566E+03  0.72652211207E+03  0.93885509717E+02 0.  0.
         11    1    3    3    0    0 -0.17969065174E+02 -0.14454634911E+03  0.13801854662E+03  0.20066303485E+03  0.00000000000E+00 0.  1.
        -11    1    3    3    0    0 -0.89868975071E+02 -0.26095398687E+03  0.44760959903E+03  0.52585907722E+03  0.00000000000E+00 0. -1.
         22    1    1    2    0    0  0.10783804025E+03  0.40550033598E+03  0.18670447886E+04  0.19136132859E+04  0.00000000000E+00 0. -1.
<mgrwt>
<rscale>  0 0.97709283E+03</rscale>
<asrwt>0</asrwt>
<pdfrwt beam="1">  1        2 0.39175443E+00 0.97709283E+03</pdfrwt>
<pdfrwt beam="2">  1       -2 0.14420191E-01 0.97709283E+03</pdfrwt>
<totfact> 0.12451473E+02</totfact>
</mgrwt>
</event>
<event>
 6    1  0.1762360E-005  0.1104911E+04  0.7818608E-02  0.9200418E-01
         -2   -1    0    0    0  501 -0.00000000000E+00  0.00000000000E+00  0.17664971541E+03  0.17664971541E+03  0.00000000000E+00 0.  1.
          2   -1    0    0  501    0  0.00000000000E+00 -0.00000000000E+00 -0.17277539949E+04  0.17277539949E+04  0.00000000000E+00 0. -1.
         23    2    1    2    0    0  0.40489555278E+03  0.36486181981E+03 -0.68131553147E+03  0.87795496712E+03  0.97721618099E+02 0.  0.
         13    1    3    3    0    0  0.24192510738E+03  0.17061377699E+03 -0.31321060590E+03  0.43097297146E+03  0.00000000000E+00 0.  1.
        -13    1    3    3    0    0  0.16297044541E+03  0.19424804282E+03 -0.36810492557E+03  0.44698199566E+03  0.00000000000E+00 0. -1.
         22    1    1    2    0    0 -0.40489555278E+03 -0.36486181981E+03 -0.86978874797E+03  0.10264487431E+04  0.00000000000E+00 0. -1.
<mgrwt>
<rscale>  0 0.11049113E+04</rscale>
<asrwt>0</asrwt>
<pdfrwt beam="1">  1        2 0.26580832E+00 0.11049113E+04</pdfrwt>
<pdfrwt beam="2">  1       -2 0.27176877E-01 0.11049113E+04</pdfrwt>
<totfact> 0.11571286E+02</totfact>
</mgrwt>
</event>
<event>
 6    1  0.1762360E-005  0.1294495E+04  0.7818608E-02  0.9033942E-01
          1   -1    0    0  501    0  0.00000000000E+00  0.00000000000E+00  0.90618475443E+03  0.90618475443E+03  0.00000000000E+00 0. -1.
         -1   -1    0    0    0  501 -0.00000000000E+00 -0.00000000000E+00 -0.46230016288E+03  0.46230016288E+03  0.00000000000E+00 0.  1.
         23    2    1    2    0    0 -0.28511794029E+02 -0.21475320251E+03  0.86424227527E+03  0.89558699740E+03  0.90716587040E+02 0.  0.
         13    1    3    3    0    0 -0.47143162799E+02 -0.18368551325E+03  0.61060377542E+03  0.63937455074E+03  0.00000000000E+00 0.  1.
        -13    1    3    3    0    0  0.18631368770E+02 -0.31067689257E+02  0.25363849985E+03  0.25621244666E+03  0.00000000000E+00 0. -1.
         22    1    1    2    0    0  0.28511794029E+02  0.21475320251E+03 -0.42035768373E+03  0.47289791991E+03  0.00000000000E+00 0.  1.
<mgrwt>
<rscale>  0 0.12944951E+04</rscale>
<asrwt>0</asrwt>
<pdfrwt beam="1">  1        1 0.13941304E+00 0.12944951E+04</pdfrwt>
<pdfrwt beam="2">  1       -1 0.71123102E-01 0.12944951E+04</pdfrwt>
<totfact> 0.35305673E+01</totfact>
</mgrwt>
</event>
<event>
 6    1  0.2447104E-005  0.2577899E+04  0.7818608E-02  0.8375747E-01
          2   -1    0    0  501    0  0.00000000000E+00  0.00000000000E+00  0.15646696892E+04  0.15646696892E+04  0.00000000000E+00 0.  1.
         -2   -1    0    0    0  501 -0.00000000000E+00 -0.00000000000E+00 -0.10618159180E+04  0.10618159180E+04  0.00000000000E+00 0. -1.
         23    2    1    2    0    0 -0.71413104427E+03 -0.37561346871E+03 -0.77019646947E+03  0.11192611576E+04  0.92056021077E+02 0.  0.
         13    1    3    3    0    0 -0.45390441590E+03 -0.19122463976E+03 -0.48923760545E+03  0.69422583949E+03  0.00000000000E+00 0. -1.
        -13    1    3    3    0    0 -0.26022662837E+03 -0.18438882895E+03 -0.28095886402E+03  0.42503531809E+03  0.00000000000E+00 0.  1.
         22    1    1    2    0    0  0.71413104427E+03  0.37561346871E+03  0.12730502407E+04  0.15072244496E+04  0.00000000000E+00 0.  1.
<mgrwt>
<rscale>  0 0.25778993E+04</rscale>
<asrwt>0</asrwt>
<pdfrwt beam="1">  1        2 0.24071842E+00 0.25778993E+04</pdfrwt>
<pdfrwt beam="2">  1       -2 0.16335629E+00 0.25778993E+04</pdfrwt>
<totfact> 0.24620639E+00</totfact>
</mgrwt>
</event>
<event>
 6    1  0.1762360E-005  0.2286223E+04  0.7818608E-02  0.8483373E-01
          2   -1    0    0  501    0  0.00000000000E+00  0.00000000000E+00  0.19078854213E+04  0.19078854213E+04  0.00000000000E+00 0. -1.
         -2   -1    0    0    0  501 -0.00000000000E+00 -0.00000000000E+00 -0.68489670778E+03  0.68489670778E+03  0.00000000000E+00 0.  1.
         23    2    1    2    0    0 -0.29776980748E+03  0.85733711694E+03  0.13971593200E+04  0.16686451314E+04  0.92890357986E+02 0.  0.
         13    1    3    3    0    0 -0.13709639022E+03  0.52763524829E+03  0.81110131189E+03  0.97728179846E+03  0.00000000000E+00 0. -1.
        -13    1    3    3    0    0 -0.16067341726E+03  0.32970186865E+03  0.58605800813E+03  0.69136333291E+03  0.00000000000E+00 0.  1.
         22    1    1    2    0    0  0.29776980748E+03 -0.85733711694E+03 -0.17417060651E+03  0.92413699769E+03  0.00000000000E+00 0.  1.
<mgrwt>
<rscale>  0 0.22862235E+04</rscale>
<asrwt>0</asrwt>
<pdfrwt beam="1">  1        2 0.29352083E+00 0.22862235E+04</pdfrwt>
<pdfrwt beam="2">  1       -2 0.10536873E+00 0.22862235E+04</pdfrwt>
<totfact> 0.49732601E+00</totfact>
</mgrwt>
</event>
<event>
 6    1  0.1762360E-005  0.2215354E+04  0.7818608E-02  0.8512065E-01
          1   -1    0    0  501    0  0.00000000000E+00  0.00000000000E+00  0.22523710316E+04  0.22523710316E+04  0.00000000000E+00 0. -1.
         -1   -1    0    0    0  501 -0.00000000000E+00 -0.00000000000E+00 -0.54473628365E+03  0.54473628365E+03  0.00000000000E+00 0.  1.
         23    2    1    2    0    0  0.78334656316E+03 -0.31820062296E+03 -0.44666861645E+02  0.85148545953E+03  0.90271173636E+02 0.  0.
         13    1    3    3    0    0  0.91353755803E+02 -0.68868808487E+02 -0.14574540289E+02  0.11532926214E+03  0.00000000000E+00 0. -1.
        -13    1    3    3    0    0  0.69199280736E+03 -0.24933181447E+03 -0.30092321357E+02  0.73615619738E+03  0.00000000000E+00 0.  1.
         22    1    1    2    0    0 -0.78334656316E+03  0.31820062296E+03  0.17523016096E+04  0.19456218557E+04  0.00000000000E+00 0. -1.
<mgrwt>
<rscale>  0 0.22153539E+04</rscale>
<asrwt>0</asrwt>
<pdfrwt beam="1">  1        1 0.34651862E+00 0.22153539E+04</pdfrwt>
<pdfrwt beam="2">  1       -1 0.83805583E-01 0.22153539E+04</pdfrwt>
<totfact> 0.25784515E+00</totfact>
</mgrwt>
</event>
<event>
 6    1  0.1762360E-005  0.1907964E+04  0.7818608E-02  0.8650902E-01
         -2   -1    0    0    0  501 -0.00000000000E+00  0.00000000000E+00  0.56840521747E+03  0.56840521747E+03  0.00000000000E+00 0.  1.
          2   -1    0    0  501    0  0.00000000000E+00 -0.00000000000E+00 -0.16011141434E+04  0.16011141434E+04  0.00000000000E+00 0. -1.
         23    2    1    2    0    0  0.63518310363E+03  0.21328680831E+03  0.25112371543E+03  0.72135670122E+03  0.91342937394E+02 0.  0.
         11    1    3    3    0    0  0.57693475475E+03  0.17742473708E+03  0.19969182654E+03  0.63577517580E+03  0.00000000000E+00 0.  1.
        -11    1    3    3    0    0  0.58248348874E+02  0.35862071229E+02  0.51431888890E+02  0.85581525426E+02  0.00000000000E+00 0. -1.
         22    1    1    2    0    0 -0.63518310363E+03 -0.21328680831E+03 -0.12838326413E+04  0.14481626596E+04  0.00000000000E+00 0. -1.
<mgrwt>
<rscale>  0 0.19079640E+04</rscale>
<asrwt>0</asrwt>
<pdfrwt beam="1">  1        2 0.24632525E+00 0.19079640E+04</pdfrwt>
<pdfrwt beam="2">  1       -2 0.87446956E-01 0.19079640E+04</pdfrwt>
<totfact> 0.11769381E+01</totfact>
</mgrwt>
</event>
<event>
 6    1  0.1762360E-005  0.1798625E+04  0.7818608E-02  0.8707031E-01
         -2   -1    0    0    0  501 -0.00000000000E+00  0.00000000000E+00  0.29175581664E+03  0.29175581664E+03  0.00000000000E+00 0.  1.
          2   -1    0    0  501    0  0.00000000000E+00 -0.00000000000E+00 -0.27720539326E+04  0.27720539326E+04  0.00000000000E+00 0. -1.
         23    2    1    2    0    0 -0.83577696365E+03  0.81298197830E+02 -0.17809157386E+04  0.19709839444E+04  0.89354972728E+02 0.  0.
         11    1    3    3    0    0 -0.52780427024E+03  0.92235019756E+02 -0.10979350051E+04  0.12216979667E+04  0.00000000000E+00 0. -1.
        -11    1    3    3    0    0 -0.30797269341E+03 -0.10936821927E+02 -0.68298073355E+03  0.74928597769E+03  0.00000000000E+00 0.  1.
         22    1    1    2    0    0  0.83577696365E+03 -0.81298197830E+02 -0.69938237731E+03  0.10928258048E+04  0.00000000000E+00 0.  1.
<mgrwt>
<rscale>  0 0.17986249E+04</rscale>
<asrwt>0</asrwt>
<pdfrwt beam="1">  1        2 0.42646983E+00 0.17986249E+04</pdfrwt>
<pdfrwt beam="2">  1       -2 0.44885511E-01 0.17986249E+04</pdfrwt>
<totfact> 0.10710878E+01</totfact>
</mgrwt>
</event>
<event>
 6    1  0.1762360E-005  0.5781978E+04  0.7818608E-02  0.7718037E-01
          2   -1    0    0  501    0  0.00000000000E+00  0.00000000000E+00  0.28246768117E+04  0.28246768117E+04  0.00000000000E+00 0. -1.
         -2   -1    0    0    0  501 -0.00000000000E+00 -0.00000000000E+00 -0.29588577500E+04  0.29588577500E+04  0.00000000000E+00 0.  1.
         23    2    1    2    0    0 -0.84031612865E+03 -0.61262008429E+03 -0.27646051632E+04  0.29550073537E+04  0.87133164408E+02 0.  0.
         11    1    3    3    0    0 -0.39131525382E+03 -0.33372135495E+03 -0.13092578057E+04  0.14066462144E+04  0.00000000000E+00 0. -1.
        -11    1    3    3    0    0 -0.44900087483E+03 -0.27889872933E+03 -0.14553473575E+04  0.15483611393E+04  0.00000000000E+00 0.  1.
         22    1    1    2    0    0  0.84031612865E+03  0.61262008429E+03  0.26304242249E+04  0.28285272080E+04  0.00000000000E+00 0. -1.
<mgrwt>
<rscale>  0 0.57819778E+04</rscale>
<asrwt>0</asrwt>
<pdfrwt beam="1">  1        2 0.43456566E+00 0.57819778E+04</pdfrwt>
<pdfrwt beam="2">  1       -2 0.45520889E+00 0.57819778E+04</pdfrwt>
<totfact> 0.49268878E-03</totfact>
</mgrwt>
</event>
<event>
 6    1  0.1762360E-005  0.9360543E+03  0.7818608E-02  0.9381601E-01
          1   -1    0    0  501    0  0.00000000000E+00  0.00000000000E+00  0.16612143764E+04  0.16612143764E+04  0.00000000000E+00 0. -1.
         -1   -1    0    0    0  501 -0.00000000000E+00 -0.00000000000E+00 -0.13186100679E+03  0.13186100679E+03  0.00000000000E+00 0.  1.
         23    2    1    2    0    0  0.23459645040E+03  0.30110159451E+03  0.12758509833E+04  0.13348602322E+04  0.91424521083E+02 0.  0.
         13    1    3    3    0    0  0.96768766083E+02  0.16713564958E+03  0.51245035346E+03  0.54763480917E+03  0.00000000000E+00 0.  1.
        -13    1    3    3    0    0  0.13782768432E+03  0.13396594493E+03  0.76340062984E+03  0.78722542299E+03  0.00000000000E+00 0. -1.
         22    1    1    2    0    0 -0.23459645040E+03 -0.30110159451E+03  0.25350238631E+03  0.45821515102E+03  0.00000000000E+00 0.  1.
<mgrwt>
<rscale>  0 0.93605427E+03</rscale>
<asrwt>0</asrwt>
<pdfrwt beam="1">  1        1 0.25557143E+00 0.93605427E+03</pdfrwt>
<pdfrwt beam="2">  1       -1 0.20286310E-01 0.93605427E+03</pdfrwt>
<totfact> 0.10200570E+02</totfact>
</mgrwt>
</event>
<event>
 6    1  0.1762360E-005  0.2053622E+04  0.7818608E-02  0.8581953E-01
          2   -1    0    0  501    0  0.00000000000E+00  0.00000000000E+00  0.22110809836E+04  0.22110809836E+04  0.00000000000E+00 0. -1.
         -2   -1    0    0    0  501 -0.00000000000E+00 -0.00000000000E+00 -0.47684406749E+03  0.47684406749E+03  0.00000000000E+00 0.  1.
         23    2    1    2    0    0  0.86412175489E+02  0.72542070236E+03  0.18094565058E+04  0.19535135547E+04  0.91542899995E+02 0.  0.
         13    1    3    3    0    0 -0.27823319814E+01  0.35092098860E+03  0.89323236731E+03  0.95969648516E+03  0.00000000000E+00 0.  1.
        -13    1    3    3    0    0  0.89194507471E+02  0.37449971376E+03  0.91622413845E+03  0.99381706951E+03  0.00000000000E+00 0. -1.
         22    1    1    2    0    0 -0.86412175489E+02 -0.72542070236E+03 -0.75219589592E+02  0.73441149647E+03  0.00000000000E+00 0.  1.
<mgrwt>
<rscale>  0 0.20536220E+04</rscale>
<asrwt>0</asrwt>
<pdfrwt beam="1">  1        2 0.34016630E+00 0.20536220E+04</pdfrwt>
<pdfrwt beam="2">  1       -2 0.73360627E-01 0.20536220E+04</pdfrwt>
<totfact> 0.78956267E+00</totfact>
</mgrwt>
</event>
<event>
 6    1  0.1762360E-005  0.1662330E+04  0.7818608E-02  0.8783145E-01
          1   -1    0    0  501    0  0.00000000000E+00  0.00000000000E+00  0.14087616171E+04  0.14087616171E+04  0.00000000000E+00 0. -1.
         -1   -1    0    0    0  501 -0.00000000000E+00 -0.00000000000E+00 -0.49038473094E+03  0.49038473094E+03  0.00000000000E+00 0.  1.
         23    2    1    2    0    0  0.19318180006E+03 -0.19873884264E+03  0.13527569309E+04  0.13838771381E+04  0.91368942162E+02 0.  0.
         11    1    3    3    0    0  0.18181167577E+03 -0.15817071916E+03  0.12463353327E+04  0.12694192465E+04  0.00000000000E+00 0.  1.
        -11    1    3    3    0    0  0.11370124296E+02 -0.40568123473E+02  0.10642159824E+03  0.11445789156E+03  0.00000000000E+00 0. -1.
         22    1    1    2    0    0 -0.19318180006E+03  0.19873884264E+03 -0.43438004478E+03  0.51526920998E+03  0.00000000000E+00 0.  1.
<mgrwt>
<rscale>  0 0.16623299E+04</rscale>
<asrwt>0</asrwt>
<pdfrwt beam="1">  1        1 0.21673255E+00 0.16623299E+04</pdfrwt>
<pdfrwt beam="2">  1       -1 0.75443805E-01 0.16623299E+04</pdfrwt>
<totfact> 0.12768955E+01</totfact>
</mgrwt>
</event>
<event>
 6    1  0.1762360E-005  0.1338968E+04  0.7818608E-02  0.8999222E-01
         -2   -1    0    0    0  501 -0.00000000000E+00  0.00000000000E+00  0.18949619173E+03  0.18949619173E+03  0.00000000000E+00 0.  1.
          2   -1    0    0  501    0  0.00000000000E+00 -0.00000000000E+00 -0.23652640507E+04  0.23652640507E+04  0.00000000000E+00 0. -1.
         23    2    1    2    0    0 -0.30766072261E+02 -0.40266712464E+03 -0.80617201335E+02  0.42104431882E+03  0.87703026128E+02 0.  0.
         13    1    3    3    0    0  0.18553250138E+02 -0.24069791780E+03 -0.24391574041E+02  0.24264100974E+03  0.00000000000E+00 0. -1.
        -13    1    3    3    0    0 -0.49319322398E+02 -0.16196920685E+03 -0.56225627294E+02  0.17840330909E+03  0.00000000000E+00 0.  1.
         22    1    1    2    0    0  0.30766072261E+02  0.40266712464E+03 -0.20951506576E+04  0.21337159236E+04  0.00000000000E+00 0. -1.
<mgrwt>
<rscale>  0 0.13389676E+04</rscale>
<asrwt>0</asrwt>
<pdfrwt beam="1">  1        2 0.36388677E+00 0.13389676E+04</pdfrwt>
<pdfrwt beam="2">  1       -2 0.29153261E-01 0.13389676E+04</pdfrwt>
<totfact> 0.44141102E+01</totfact>
</mgrwt>
</event>
<event>
 6    1  0.1762360E-005  0.8874955E+03  0.7818608E-02  0.9441349E-01
         -1   -1    0    0    0  501 -0.00000000000E+00  0.00000000000E+00  0.33691698574E+03  0.33691698574E+03  0.00000000000E+00 0.  1.
          1   -1    0    0  501    0  0.00000000000E+00 -0.00000000000E+00 -0.58445277828E+03  0.58445277828E+03  0.00000000000E+00 0. -1.
         23    2    1    2    0    0  0.23738354766E+02  0.39203623861E+03  0.80852620276E+02  0.40941774327E+03  0.82642727612E+02 0.  0.
         11    1    3    3    0    0  0.22010256122E+02  0.38680756052E+03  0.65272651040E+02  0.39289319060E+03  0.00000000000E+00 0. -1.
        -11    1    3    3    0    0  0.17280986436E+01  0.52286780962E+01  0.15579969235E+02  0.16524552669E+02  0.00000000000E+00 0.  1.
         22    1    1    2    0    0 -0.23738354766E+02 -0.39203623861E+03 -0.32838841282E+03  0.51195202075E+03  0.00000000000E+00 0. -1.
<mgrwt>
<rscale>  0 0.88749551E+03</rscale>
<asrwt>0</asrwt>
<pdfrwt beam="1">  1        1 0.89915812E-01 0.88749551E+03</pdfrwt>
<pdfrwt beam="2">  1       -1 0.51833383E-01 0.88749551E+03</pdfrwt>
<totfact> 0.13436670E+02</totfact>
</mgrwt>
</event>
<event>
 6    1  0.1762360E-005  0.1495089E+04  0.7818608E-02  0.8887725E-01
         -2   -1    0    0    0  501 -0.00000000000E+00  0.00000000000E+00  0.16925261221E+03  0.16925261221E+03  0.00000000000E+00 0.  1.
          2   -1    0    0  501    0  0.00000000000E+00 -0.00000000000E+00 -0.33017088032E+04  0.33017088032E+04  0.00000000000E+00 0. -1.
         23    2    1    2    0    0  0.16490444035E+03 -0.63703262082E+03 -0.23817574592E+04  0.24726865934E+04  0.91686203816E+02 0.  0.
         11    1    3    3    0    0  0.14457219844E+03 -0.50219752740E+03 -0.20059252285E+04  0.20728819309E+04  0.00000000000E+00 0. -1.
        -11    1    3    3    0    0  0.20332241913E+02 -0.13483509342E+03 -0.37583223073E+03  0.39980466247E+03  0.00000000000E+00 0.  1.
         22    1    1    2    0    0 -0.16490444035E+03  0.63703262082E+03 -0.75069873172E+03  0.99827482200E+03  0.00000000000E+00 0.  1.
<mgrwt>
<rscale>  0 0.14950891E+04</rscale>
<asrwt>0</asrwt>
<pdfrwt beam="1">  1        2 0.50795517E+00 0.14950891E+04</pdfrwt>
<pdfrwt beam="2">  1       -2 0.26038865E-01 0.14950891E+04</pdfrwt>
<totfact> 0.14466056E+01</totfact>
</mgrwt>
</event>
<event>
 6    1  0.1762360E-005  0.1438321E+04  0.7818608E-02  0.8926538E-01
          1   -1    0    0  501    0  0.00000000000E+00  0.00000000000E+00  0.11758109359E+04  0.11758109359E+04  0.00000000000E+00 0. -1.
         -1   -1    0    0    0  501 -0.00000000000E+00 -0.00000000000E+00 -0.43985966252E+03  0.43985966252E+03  0.00000000000E+00 0.  1.
         23    2    1    2    0    0 -0.24504842072E+03  0.70599075376E+02 -0.38199249874E+03  0.46900969144E+03  0.94967697828E+02 0.  0.
         11    1    3    3    0    0 -0.13775786586E+03  0.85533469423E+02 -0.25380617818E+03  0.30118230373E+03  0.00000000000E+00 0.  1.
        -11    1    3    3    0    0 -0.10729055485E+03 -0.14934394047E+02 -0.12818632057E+03  0.16782738771E+03  0.00000000000E+00 0. -1.
         22    1    1    2    0    0  0.24504842072E+03 -0.70599075376E+02  0.11179437721E+04  0.11466609069E+04  0.00000000000E+00 0. -1.
<mgrwt>
<rscale>  0 0.14383210E+04</rscale>
<asrwt>0</asrwt>
<pdfrwt beam="1">  1        1 0.18089399E+00 0.14383210E+04</pdfrwt>
<pdfrwt beam="2">  1       -1 0.67670717E-01 0.14383210E+04</pdfrwt>
<totfact> 0.23931785E+01</totfact>
</mgrwt>
</event>
<event>
 6    1  0.1762360E-005  0.2601980E+04  0.7818608E-02  0.8367529E-01
          2   -1    0    0  501    0  0.00000000000E+00  0.00000000000E+00  0.15622068217E+04  0.15622068217E+04  0.00000000000E+00 0. -1.
         -2   -1    0    0    0  501 -0.00000000000E+00 -0.00000000000E+00 -0.10834510355E+04  0.10834510355E+04  0.00000000000E+00 0.  1.
         23    2    1    2    0    0  0.12584144734E+04 -0.98941656594E+02  0.55287695322E+03  0.13811854827E+04  0.92757608290E+02 0.  0.
         11    1    3    3    0    0  0.75654957726E+03 -0.71948367885E+02  0.38017170395E+03  0.84974958369E+03  0.00000000000E+00 0. -1.
        -11    1    3    3    0    0  0.50186489616E+03 -0.26993288709E+02  0.17270524927E+03  0.53143589901E+03  0.00000000000E+00 0.  1.
         22    1    1    2    0    0 -0.12584144734E+04  0.98941656594E+02 -0.74121167064E+02  0.12644723744E+04  0.00000000000E+00 0.  1.
<mgrwt>
<rscale>  0 0.26019797E+04</rscale>
<asrwt>0</asrwt>
<pdfrwt beam="1">  1        2 0.24033951E+00 0.26019797E+04</pdfrwt>
<pdfrwt beam="2">  1       -2 0.16668478E+00 0.26019797E+04</pdfrwt>
<totfact> 0.23317047E+00</totfact>
</mgrwt>
</event>
<event>
 6    1  0.1762360E-005  0.1660044E+04  0.7818608E-02  0.8784487E-01
          2   -1    0    0  501    0  0.00000000000E+00  0.00000000000E+00  0.35592557066E+04  0.35592557066E+04  0.00000000000E+00 0. -1.
         -2   -1    0    0    0  501 -0.00000000000E+00 -0.00000000000E+00 -0.19356187428E+03  0.19356187428E+03  0.00000000000E+00 0.  1.
         23    2    1    2    0    0 -0.47389260354E+03 -0.10356381165E+03  0.32035600491E+04  0.32413617896E+04  0.91266643960E+02 0.  0.
         11    1    3    3    0    0 -0.20697075549E+03 -0.88613378904E+02  0.13571474493E+04  0.13756956145E+04  0.00000000000E+00 0.  1.
        -11    1    3    3    0    0 -0.26692184805E+03 -0.14950432747E+02  0.18464125997E+04  0.18656661751E+04  0.00000000000E+00 0. -1.
         22    1    1    2    0    0  0.47389260354E+03  0.10356381165E+03  0.16213378326E+03  0.51145579129E+03  0.00000000000E+00 0.  1.
<mgrwt>
<rscale>  0 0.16600436E+04</rscale>
<asrwt>0</asrwt>
<pdfrwt beam="1">  1        2 0.54757775E+00 0.16600436E+04</pdfrwt>
<pdfrwt beam="2">  1       -2 0.29778753E-01 0.16600436E+04</pdfrwt>
<totfact> 0.74118606E+00</totfact>
</mgrwt>
</event>
<event>
 6    1  0.1762360E-005  0.3603178E+04  0.7818608E-02  0.8089764E-01
         -3   -1    0    0    0  501 -0.00000000000E+00  0.00000000000E+00  0.25348415485E+04  0.25348415485E+04  0.00000000000E+00 0. -1.
          3   -1    0    0  501    0  0.00000000000E+00 -0.00000000000E+00 -0.12804443954E+04  0.12804443954E+04  0.00000000000E+00 0.  1.
         23    2    1    2    0    0  0.11083251927E+03  0.60951237500E+03  0.24176438829E+04  0.24973587317E+04  0.89495852521E+02 0.  0.
         11    1    3    3    0    0  0.61918235911E+02  0.34607710158E+03  0.11917905663E+04  0.12425650816E+04  0.00000000000E+00 0. -1.
        -11    1    3    3    0    0  0.48914283359E+02  0.26343527342E+03  0.12258533166E+04  0.12547936501E+04  0.00000000000E+00 0.  1.
         22    1    1    2    0    0 -0.11083251927E+03 -0.60951237500E+03 -0.11632467298E+04  0.13179272123E+04  0.00000000000E+00 0.  1.
<mgrwt>
<rscale>  0 0.36031784E+04</rscale>
<asrwt>0</asrwt>
<pdfrwt beam="1">  1        3 0.19699145E+00 0.36031784E+04</pdfrwt>
<pdfrwt beam="2">  1       -3 0.38997562E+00 0.36031784E+04</pdfrwt>
<totfact> 0.38900339E-03</totfact>
</mgrwt>
</event>
<event>
 6    1  0.1762360E-005  0.9524649E+03  0.7818608E-02  0.9362274E-01
          1   -1    0    0  501    0  0.00000000000E+00  0.00000000000E+00  0.33465119205E+04  0.33465119205E+04  0.00000000000E+00 0. -1.
         -1   -1    0    0    0  501 -0.00000000000E+00 -0.00000000000E+00 -0.67771259546E+02  0.67771259546E+02  0.00000000000E+00 0.  1.
         23    2    1    2    0    0  0.72677890837E+02  0.82749111734E+02  0.32991647688E+04  0.33022714151E+04  0.91535979995E+02 0.  0.
         13    1    3    3    0    0  0.44784367730E+02  0.29285277377E+01  0.19154155321E+04  0.19159412508E+04  0.00000000000E+00 0. -1.
        -13    1    3    3    0    0  0.27893523108E+02  0.79820583996E+02  0.13837492367E+04  0.13863301643E+04  0.00000000000E+00 0.  1.
         22    1    1    2    0    0 -0.72677890837E+02 -0.82749111734E+02 -0.20424107876E+02  0.11201176497E+03  0.00000000000E+00 0.  1.
<mgrwt>
<rscale>  0 0.95246486E+03</rscale>
<asrwt>0</asrwt>
<pdfrwt beam="1">  1        1 0.51484786E+00 0.95246486E+03</pdfrwt>
<pdfrwt beam="2">  1       -1 0.10426350E-01 0.95246486E+03</pdfrwt>
<totfact> 0.20226464E+01</totfact>
</mgrwt>
</event>
<event>
 6    1  0.1762360E-005  0.3165747E+04  0.7818608E-02  0.8197922E-01
         -1   -1    0    0    0  501 -0.00000000000E+00  0.00000000000E+00  0.82581382326E+03  0.82581382326E+03  0.00000000000E+00 0.  1.
          1   -1    0    0  501    0  0.00000000000E+00 -0.00000000000E+00 -0.30339621141E+04  0.30339621141E+04  0.00000000000E+00 0. -1.
         23    2    1    2    0    0 -0.67720825370E+03 -0.10310319411E+04 -0.23117886879E+04  0.26218828829E+04  0.90912220566E+02 0.  0.
         11    1    3    3    0    0 -0.41115986781E+03 -0.62154029812E+03 -0.13012110209E+04  0.14995048850E+04  0.00000000000E+00 0.  1.
        -11    1    3    3    0    0 -0.26604838589E+03 -0.40949164294E+03 -0.10105776670E+04  0.11223779979E+04  0.00000000000E+00 0. -1.
         22    1    1    2    0    0  0.67720825370E+03  0.10310319411E+04  0.10364039704E+03  0.12378930545E+04  0.00000000000E+00 0.  1.
<mgrwt>
<rscale>  0 0.31657466E+04</rscale>
<asrwt>0</asrwt>
<pdfrwt beam="1">  1        1 0.46676340E+00 0.31657466E+04</pdfrwt>
<pdfrwt beam="2">  1       -1 0.12704828E+00 0.31657466E+04</pdfrwt>
<totfact> 0.25430258E-01</totfact>
</mgrwt>
</event>
<event>
 6    1  0.1762360E-005  0.1029239E+04  0.7818608E-02  0.9277044E-01
         -2   -1    0    0    0  501 -0.00000000000E+00  0.00000000000E+00  0.65394799710E+03  0.65394799710E+03  0.00000000000E+00 0.  1.
          2   -1    0    0  501    0  0.00000000000E+00 -0.00000000000E+00 -0.40497631254E+03  0.40497631254E+03  0.00000000000E+00 0. -1.
         23    2    1    2    0    0 -0.23662515798E+03  0.45187639462E+03  0.14468433338E+03  0.53829047188E+03  0.92948019828E+02 0.  0.
         13    1    3    3    0    0 -0.61709744263E+02  0.13398939916E+03  0.85964266376E+02  0.17073695182E+03  0.00000000000E+00 0. -1.
        -13    1    3    3    0    0 -0.17491541372E+03  0.31788699546E+03  0.58720067000E+02  0.36755352006E+03  0.00000000000E+00 0.  1.
         22    1    1    2    0    0  0.23662515798E+03 -0.45187639462E+03  0.10428735118E+03  0.52063383776E+03  0.00000000000E+00 0.  1.
<mgrwt>
<rscale>  0 0.10292394E+04</rscale>
<asrwt>0</asrwt>
<pdfrwt beam="1">  1        2 0.62304048E-01 0.10292394E+04</pdfrwt>
<pdfrwt beam="2">  1       -2 0.10060738E+00 0.10292394E+04</pdfrwt>
<totfact> 0.63659249E+01</totfact>
</mgrwt>
</event>
<event>
 6    1  0.1762360E-005  0.1090799E+04  0.7818608E-02  0.9214206E-01
         -1   -1    0    0    0  501 -0.00000000000E+00  0.00000000000E+00  0.24513131681E+03  0.24513131681E+03  0.00000000000E+00 0.  1.
          1   -1    0    0  501    0  0.00000000000E+00 -0.00000000000E+00 -0.12134756486E+04  0.12134756486E+04  0.00000000000E+00 0. -1.
         23    2    1    2    0    0  0.51439203482E+02 -0.25683183917E+03 -0.11213650602E+04  0.11552525051E+04  0.92413024194E+02 0.  0.
         13    1    3    3    0    0 -0.57811229009E+00 -0.58412746024E+02 -0.43460099999E+03  0.43850930697E+03  0.00000000000E+00 0. -1.
        -13    1    3    3    0    0  0.52017315773E+02 -0.19841909314E+03 -0.68676406024E+03  0.71674319816E+03  0.00000000000E+00 0.  1.
         22    1    1    2    0    0 -0.51439203482E+02  0.25683183917E+03  0.15302072841E+03  0.30335446031E+03  0.00000000000E+00 0.  1.
<mgrwt>
<rscale>  0 0.10907995E+04</rscale>
<asrwt>0</asrwt>
<pdfrwt beam="1">  1        1 0.18668856E+00 0.10907995E+04</pdfrwt>
<pdfrwt beam="2">  1       -1 0.37712510E-01 0.10907995E+04</pdfrwt>
<totfact> 0.70579732E+01</totfact>
</mgrwt>
</event>
<event>
 6    1  0.1762360E-005  0.4120870E+04  0.7818608E-02  0.7980597E-01
          2   -1    0    0  501    0  0.00000000000E+00  0.00000000000E+00  0.15576051272E+04  0.15576051272E+04  0.00000000000E+00 0. -1.
         -2   -1    0    0    0  501 -0.00000000000E+00 -0.00000000000E+00 -0.27255896088E+04  0.27255896088E+04  0.00000000000E+00 0.  1.
         23    2    1    2    0    0 -0.18688688898E+04  0.86045614867E+03 -0.49184620702E+03  0.21175034659E+04  0.94087861981E+02 0.  0.
         13    1    3    3    0    0 -0.74243758102E+03  0.34101014453E+03 -0.24274474036E+03  0.85230657005E+03  0.00000000000E+00 0. -1.
        -13    1    3    3    0    0 -0.11264313088E+04  0.51944600415E+03 -0.24910146667E+03  0.12651968959E+04  0.00000000000E+00 0.  1.
         22    1    1    2    0    0  0.18688688898E+04 -0.86045614867E+03 -0.67613827458E+03  0.21656912701E+04  0.00000000000E+00 0. -1.
<mgrwt>
<rscale>  0 0.41208700E+04</rscale>
<asrwt>0</asrwt>
<pdfrwt beam="1">  1        2 0.23963156E+00 0.41208700E+04</pdfrwt>
<pdfrwt beam="2">  1       -2 0.41932147E+00 0.41208700E+04</pdfrwt>
<totfact> 0.50969394E-02</totfact>
</mgrwt>
</event>
<event>
 6    1  0.2116314E-005  0.1882745E+04  0.7818608E-02  0.8663493E-01
         -1   -1    0    0    0  501 -0.00000000000E+00  0.00000000000E+00  0.69853514075E+03  0.69853514075E+03  0.00000000000E+00 0.  1.
          1   -1    0    0  501    0  0.00000000000E+00 -0.00000000000E+00 -0.12686292782E+04  0.12686292782E+04  0.00000000000E+00 0. -1.
         23    2    1    2    0    0 -0.62688544088E+03  0.20318221768E+03  0.41358649846E+03  0.78314754280E+03  0.89431048914E+02 0.  0.
         13    1    3    3    0    0 -0.42067502818E+03  0.17931469662E+03  0.29203410014E+03  0.54259114940E+03  0.00000000000E+00 0.  1.
        -13    1    3    3    0    0 -0.20621041271E+03  0.23867521056E+02  0.12155239831E+03  0.24055639340E+03  0.00000000000E+00 0. -1.
         22    1    1    2    0    0  0.62688544088E+03 -0.20318221768E+03 -0.98368063592E+03  0.11840168762E+04  0.00000000000E+00 0. -1.
<mgrwt>
<rscale>  0 0.18827449E+04</rscale>
<asrwt>0</asrwt>
<pdfrwt beam="1">  1        1 0.19517373E+00 0.18827449E+04</pdfrwt>
<pdfrwt beam="2">  1       -1 0.10746695E+00 0.18827449E+04</pdfrwt>
<totfact> 0.71982500E+00</totfact>
</mgrwt>
</event>
<event>
 6    1  0.1762360E-005  0.7647422E+03  0.7818608E-02  0.9612502E-01
          1   -1    0    0  501    0  0.00000000000E+00  0.00000000000E+00  0.11583642480E+04  0.11583642480E+04  0.00000000000E+00 0. -1.
         -1   -1    0    0    0  501 -0.00000000000E+00 -0.00000000000E+00 -0.12621907879E+03  0.12621907879E+03  0.00000000000E+00 0.  1.
         23    2    1    2    0    0  0.16650488746E+03 -0.75068449561E+02  0.10773175103E+04  0.10964352732E+04  0.90543584134E+02 0.  0.
         13    1    3    3    0    0  0.27152897685E+02 -0.50504411333E+02  0.43182032410E+03  0.43561079845E+03  0.00000000000E+00 0.  1.
        -13    1    3    3    0    0  0.13935198978E+03 -0.24564038228E+02  0.64549718623E+03  0.66082447477E+03  0.00000000000E+00 0. -1.
         22    1    1    2    0    0 -0.16650488746E+03  0.75068449561E+02 -0.45172341107E+02  0.18814805359E+03  0.00000000000E+00 0.  1.
<mgrwt>
<rscale>  0 0.76474223E+03</rscale>
<asrwt>0</asrwt>
<pdfrwt beam="1">  1        1 0.17820988E+00 0.76474223E+03</pdfrwt>
<pdfrwt beam="2">  1       -1 0.19418321E-01 0.76474223E+03</pdfrwt>
<totfact> 0.24942267E+02</totfact>
</mgrwt>
</event>
<event>
 6    1  0.1762360E-005  0.3525318E+04  0.7818608E-02  0.8107816E-01
          2   -1    0    0  501    0  0.00000000000E+00  0.00000000000E+00  0.21363387029E+04  0.21363387029E+04  0.00000000000E+00 0. -1.
         -2   -1    0    0    0  501 -0.00000000000E+00 -0.00000000000E+00 -0.14543417910E+04  0.14543417910E+04  0.00000000000E+00 0.  1.
         23    2    1    2    0    0  0.99476995369E+03 -0.42392022834E+03 -0.10749067808E+04  0.15276763236E+04  0.95366354508E+02 0.  0.
         13    1    3    3    0    0  0.56697962266E+03 -0.23107343605E+03 -0.67310074136E+03  0.90990407922E+03  0.00000000000E+00 0. -1.
        -13    1    3    3    0    0  0.42779033103E+03 -0.19284679229E+03 -0.40180603945E+03  0.61777224440E+03  0.00000000000E+00 0.  1.
         22    1    1    2    0    0 -0.99476995369E+03  0.42392022834E+03  0.17569036927E+04  0.20630041702E+04  0.00000000000E+00 0. -1.
<mgrwt>
<rscale>  0 0.35253179E+04</rscale>
<asrwt>0</asrwt>
<pdfrwt beam="1">  1        2 0.32866749E+00 0.35253179E+04</pdfrwt>
<pdfrwt beam="2">  1       -2 0.22374489E+00 0.35253179E+04</pdfrwt>
<totfact> 0.43034014E-01</totfact>
</mgrwt>
</event>
<event>
 6    1  0.1762360E-005  0.1050139E+04  0.7818608E-02  0.9255200E-01
         -1   -1    0    0    0  501 -0.00000000000E+00  0.00000000000E+00  0.37961428924E+03  0.37961428924E+03  0.00000000000E+00 0.  1.
          1   -1    0    0  501    0  0.00000000000E+00 -0.00000000000E+00 -0.72625845655E+03  0.72625845655E+03  0.00000000000E+00 0. -1.
         23    2    1    2    0    0 -0.46128931964E+03  0.20895583691E+03 -0.44577413990E+02  0.51621631900E+03  0.89675882928E+02 0.  0.
         11    1    3    3    0    0 -0.12387985927E+03  0.91840105901E+02  0.11695599942E+02  0.15465319797E+03  0.00000000000E+00 0. -1.
        -11    1    3    3    0    0 -0.33740946036E+03  0.11711573101E+03 -0.56273013931E+02  0.36156312103E+03  0.00000000000E+00 0.  1.
         22    1    1    2    0    0  0.46128931964E+03 -0.20895583691E+03 -0.30206675333E+03  0.58965642679E+03  0.00000000000E+00 0. -1.
<mgrwt>
<rscale>  0 0.10501392E+04</rscale>
<asrwt>0</asrwt>
<pdfrwt beam="1">  1        1 0.11173207E+00 0.10501392E+04</pdfrwt>
<pdfrwt beam="2">  1       -1 0.58402199E-01 0.10501392E+04</pdfrwt>
<totfact> 0.76469566E+01</totfact>
</mgrwt>
</event>
<event>
 6    1  0.1762360E-005  0.2300460E+04  0.7818608E-02  0.8477740E-01
         -2   -1    0    0    0  501 -0.00000000000E+00  0.00000000000E+00  0.12608972763E+04  0.12608972763E+04  0.00000000000E+00 0.  1.
          2   -1    0    0  501    0  0.00000000000E+00 -0.00000000000E+00 -0.10492757675E+04  0.10492757675E+04  0.00000000000E+00 0. -1.
         23    2    1    2    0    0 -0.10466956567E+04 -0.25931596646E+03  0.50256888032E+03  0.11932724478E+04  0.92233871411E+02 0.  0.
         11    1    3    3    0    0 -0.50717305111E+03 -0.92829004990E+02  0.20323185716E+03  0.55420656411E+03  0.00000000000E+00 0. -1.
        -11    1    3    3    0    0 -0.53952260562E+03 -0.16648696147E+03  0.29933702316E+03  0.63906588373E+03  0.00000000000E+00 0.  1.
         22    1    1    2    0    0  0.10466956567E+04  0.25931596646E+03 -0.29094737155E+03  0.11169005960E+04  0.00000000000E+00 0. -1.
<mgrwt>
<rscale>  0 0.23004599E+04</rscale>
<asrwt>0</asrwt>
<pdfrwt beam="1">  1        2 0.16142704E+00 0.23004599E+04</pdfrwt>
<pdfrwt beam="2">  1       -2 0.19398420E+00 0.23004599E+04</pdfrwt>
<totfact> 0.30962182E+00</totfact>
</mgrwt>
</event>
<event>
 6    1  0.1762360E-005  0.2706294E+04  0.7818608E-02  0.8332966E-01
         -2   -1    0    0    0  501 -0.00000000000E+00  0.00000000000E+00  0.87892508513E+03  0.87892508513E+03  0.00000000000E+00 0. -1.
          2   -1    0    0  501    0  0.00000000000E+00 -0.00000000000E+00 -0.20832341990E+04  0.20832341990E+04  0.00000000000E+00 0.  1.
         23    2    1    2    0    0 -0.15450942233E+03  0.12619692683E+04 -0.10057901445E+03  0.12785145092E+04  0.89686211269E+02 0.  0.
         11    1    3    3    0    0 -0.15873333524E+03  0.12576791019E+04 -0.10339855039E+03  0.12718664456E+04  0.00000000000E+00 0.  1.
        -11    1    3    3    0    0  0.42239129070E+01  0.42901663611E+01  0.28195359384E+01  0.66480636699E+01  0.00000000000E+00 0. -1.
         22    1    1    2    0    0  0.15450942233E+03 -0.12619692683E+04 -0.11037300995E+04  0.16836447749E+04  0.00000000000E+00 0.  1.
<mgrwt>
<rscale>  0 0.27062940E+04</rscale>
<asrwt>0</asrwt>
<pdfrwt beam="1">  1        2 0.32049757E+00 0.27062940E+04</pdfrwt>
<pdfrwt beam="2">  1       -2 0.13521924E+00 0.27062940E+04</pdfrwt>
<totfact> 0.20683734E+00</totfact>
</mgrwt>
</event>
<event>
 6    1  0.1762360E-005  0.3812262E+04  0.7818608E-02  0.8043529E-01
         -2   -1    0    0    0  501 -0.00000000000E+00  0.00000000000E+00  0.13558986279E+04  0.13558986279E+04  0.00000000000E+00 0.  1.
          2   -1    0    0  501    0  0.00000000000E+00 -0.00000000000E+00 -0.26796506826E+04  0.26796506826E+04  0.00000000000E+00 0. -1.
         23    2    1    2    0    0 -0.13772707624E+04 -0.64281112902E+03  0.55355270664E+03  0.16201085500E+04  0.90830689894E+02 0.  0.
         11    1    3    3    0    0 -0.37987769360E+03 -0.21632113812E+03  0.18138339324E+03  0.47328831830E+03  0.00000000000E+00 0. -1.
        -11    1    3    3    0    0 -0.99739306878E+03 -0.42648999090E+03  0.37216931340E+03  0.11468202317E+04  0.00000000000E+00 0.  1.
         22    1    1    2    0    0  0.13772707624E+04  0.64281112902E+03 -0.18773047614E+04  0.24154407605E+04  0.00000000000E+00 0. -1.
<mgrwt>
<rscale>  0 0.38122616E+04</rscale>
<asrwt>0</asrwt>
<pdfrwt beam="1">  1        2 0.41225395E+00 0.38122616E+04</pdfrwt>
<pdfrwt beam="2">  1       -2 0.20859979E+00 0.38122616E+04</pdfrwt>
<totfact> 0.25567130E-01</totfact>
</mgrwt>
</event>
<event>
 6    1  0.1762360E-005  0.1233884E+04  0.7818608E-02  0.9083704E-01
          2   -1    0    0  501    0  0.00000000000E+00  0.00000000000E+00  0.13114800090E+04  0.13114800090E+04  0.00000000000E+00 0. -1.
         -2   -1    0    0    0  501 -0.00000000000E+00 -0.00000000000E+00 -0.29021962109E+03  0.29021962109E+03  0.00000000000E+00 0.  1.
         23    2    1    2    0    0 -0.16503648142E+03  0.19548148353E+03  0.12372971025E+04  0.12668535272E+04  0.92540202568E+02 0.  0.
         13    1    3    3    0    0 -0.13381228322E+03  0.16116703260E+03  0.11396930238E+04  0.11587841594E+04  0.00000000000E+00 0.  1.
        -13    1    3    3    0    0 -0.31224198197E+02  0.34314450931E+02  0.97604078681E+02  0.10806936787E+03  0.00000000000E+00 0. -1.
         22    1    1    2    0    0  0.16503648142E+03 -0.19548148353E+03 -0.21603671452E+03  0.33484610290E+03  0.00000000000E+00 0.  1.
<mgrwt>
<rscale>  0 0.12338837E+04</rscale>
<asrwt>0</asrwt>
<pdfrwt beam="1">  1        2 0.20176615E+00 0.12338837E+04</pdfrwt>
<pdfrwt beam="2">  1       -2 0.44649173E-01 0.12338837E+04</pdfrwt>
<totfact> 0.76207969E+01</totfact>
</mgrwt>
</event>
<event>
 6    1  0.1762360E-005  0.3758438E+04  0.7818608E-02  0.8055133E-01
         -1   -1    0    0    0  501 -0.00000000000E+00  0.00000000000E+00  0.15230120956E+04  0.15230120956E+04  0.00000000000E+00 0.  1.
          1   -1    0    0  501    0  0.00000000000E+00 -0.00000000000E+00 -0.23187367086E+04  0.23187367086E+04  0.00000000000E+00 0. -1.
         23    2    1    2    0    0 -0.28627778019E+03 -0.69865563973E+03  0.13597142706E+04  0.15578942880E+04  0.90205568790E+02 0.  0.
         11    1    3    3    0    0 -0.52197486240E+02 -0.83141440890E+02  0.23326682161E+03  0.25308197650E+03  0.00000000000E+00 0. -1.
        -11    1    3    3    0    0 -0.23408029395E+03 -0.61551419884E+03  0.11264474490E+04  0.13048123115E+04  0.00000000000E+00 0.  1.
         22    1    1    2    0    0  0.28627778019E+03  0.69865563973E+03 -0.21554388836E+04  0.22838545162E+04  0.00000000000E+00 0. -1.
<mgrwt>
<rscale>  0 0.37584380E+04</rscale>
<asrwt>0</asrwt>
<pdfrwt beam="1">  1        1 0.35672872E+00 0.37584380E+04</pdfrwt>
<pdfrwt beam="2">  1       -1 0.23430955E+00 0.37584380E+04</pdfrwt>
<totfact> 0.12752158E-01</totfact>
</mgrwt>
</event>
<event>
 6    1  0.1762360E-005  0.2426198E+04  0.7818608E-02  0.8429760E-01
          2   -1    0    0  501    0  0.00000000000E+00  0.00000000000E+00  0.22961183837E+04  0.22961183837E+04  0.00000000000E+00 0. -1.
         -2   -1    0    0    0  501 -0.00000000000E+00 -0.00000000000E+00 -0.64091152693E+03  0.64091152693E+03  0.00000000000E+00 0.  1.
         23    2    1    2    0    0 -0.11496386719E+04 -0.13223889495E+03  0.39534563812E+03  0.12263556309E+04  0.92161589535E+02 0.  0.
         11    1    3    3    0    0 -0.80513417298E+03 -0.69507875476E+02  0.23789873751E+03  0.84241806163E+03  0.00000000000E+00 0.  1.
        -11    1    3    3    0    0 -0.34450449890E+03 -0.62731019478E+02  0.15744690062E+03  0.38393756924E+03  0.00000000000E+00 0. -1.
         22    1    1    2    0    0  0.11496386719E+04  0.13223889495E+03  0.12598612187E+04  0.17106742798E+04  0.00000000000E+00 0. -1.
<mgrwt>
<rscale>  0 0.24261976E+04</rscale>
<asrwt>0</asrwt>
<pdfrwt beam="1">  1        2 0.35324898E+00 0.24261976E+04</pdfrwt>
<pdfrwt beam="2">  1       -2 0.98601775E-01 0.24261976E+04</pdfrwt>
<totfact> 0.34911548E+00</totfact>
</mgrwt>
</event>
<event>
 6    1  0.1762360E-005  0.2083206E+04  0.7818608E-02  0.8568678E-01
         -2   -1    0    0    0  501 -0.00000000000E+00  0.00000000000E+00  0.39981076895E+03  0.39981076895E+03  0.00000000000E+00 0.  1.
          2   -1    0    0  501    0  0.00000000000E+00 -0.00000000000E+00 -0.27136249716E+04  0.27136249716E+04  0.00000000000E+00 0. -1.
         23    2    1    2    0    0  0.83343969712E+03 -0.44835519937E+03 -0.51626507821E+03  0.10819764207E+04  0.92191270451E+02 0.  0.
         13    1    3    3    0    0  0.14854444079E+03 -0.53235396838E+02 -0.11524827836E+03  0.19540118739E+03  0.00000000000E+00 0.  1.
        -13    1    3    3    0    0  0.68489525633E+03 -0.39511980253E+03 -0.40101679985E+03  0.88657523328E+03  0.00000000000E+00 0. -1.
         22    1    1    2    0    0 -0.83343969712E+03  0.44835519937E+03 -0.17975491244E+04  0.20314593199E+04  0.00000000000E+00 0. -1.
<mgrwt>
<rscale>  0 0.20832057E+04</rscale>
<asrwt>0</asrwt>
<pdfrwt beam="1">  1        2 0.41748077E+00 0.20832057E+04</pdfrwt>
<pdfrwt beam="2">  1       -2 0.61509348E-01 0.20832057E+04</pdfrwt>
<totfact> 0.59141305E+00</totfact>
</mgrwt>
</event>
<event>
 6    1  0.1762360E-005  0.1020594E+04  0.7818608E-02  0.9286241E-01
         -2   -1    0    0    0  501 -0.00000000000E+00  0.00000000000E+00  0.15949000826E+03  0.15949000826E+03  0.00000000000E+00 0.  1.
          2   -1    0    0  501    0  0.00000000000E+00 -0.00000000000E+00 -0.16327238758E+04  0.16327238758E+04  0.00000000000E+00 0. -1.
         23    2    1    2    0    0  0.30995773404E+03  0.13640204857E+02 -0.40479278060E+02  0.32625154971E+03  0.92421045512E+02 0.  0.
         13    1    3    3    0    0  0.86724605763E+02 -0.22973941096E+02 -0.44182709309E+02  0.10000535494E+03  0.00000000000E+00 0.  1.
        -13    1    3    3    0    0  0.22323312828E+03  0.36614145953E+02  0.37034312485E+01  0.22624619477E+03  0.00000000000E+00 0. -1.
         22    1    1    2    0    0 -0.30995773404E+03 -0.13640204857E+02 -0.14327545895E+04  0.14659623343E+04  0.00000000000E+00 0. -1.
<mgrwt>
<rscale>  0 0.10205942E+04</rscale>
<asrwt>0</asrwt>
<pdfrwt beam="1">  1        2 0.25118828E+00 0.10205942E+04</pdfrwt>
<pdfrwt beam="2">  1       -2 0.24536925E-01 0.10205942E+04</pdfrwt>
<totfact> 0.15821950E+02</totfact>
</mgrwt>
</event>
<event>
 6    1  0.1762360E-005  0.2230189E+04  0.7818608E-02  0.8505967E-01
          1   -1    0    0  501    0  0.00000000000E+00  0.00000000000E+00  0.16398618438E+04  0.16398618438E+04  0.00000000000E+00 0. -1.
         -1   -1    0    0    0  501 -0.00000000000E+00 -0.00000000000E+00 -0.75825613539E+03  0.75825613539E+03  0.00000000000E+00 0.  1.
         23    2    1    2    0    0  0.44220579904E+03 -0.44364826276E+03  0.14311540855E+04  0.15648274124E+04  0.90072551240E+02 0.  0.
         11    1    3    3    0    0  0.27307761488E+03 -0.26276330556E+03  0.75545012291E+03  0.84517502726E+03  0.00000000000E+00 0. -1.
        -11    1    3    3    0    0  0.16912818416E+03 -0.18088495720E+03  0.67570396261E+03  0.71965238518E+03  0.00000000000E+00 0.  1.
         22    1    1    2    0    0 -0.44220579904E+03  0.44364826276E+03 -0.54954837714E+03  0.83329056671E+03  0.00000000000E+00 0.  1.
<mgrwt>
<rscale>  0 0.22301886E+04</rscale>
<asrwt>0</asrwt>
<pdfrwt beam="1">  1        1 0.25228644E+00 0.22301886E+04</pdfrwt>
<pdfrwt beam="2">  1       -1 0.11665479E+00 0.22301886E+04</pdfrwt>
<totfact> 0.31595085E+00</totfact>
</mgrwt>
</event>
<event>
 6    1  0.1762360E-005  0.1455221E+04  0.7818608E-02  0.8914789E-01
          2   -1    0    0  501    0  0.00000000000E+00  0.00000000000E+00  0.18332626918E+04  0.18332626918E+04  0.00000000000E+00 0. -1.
         -2   -1    0    0    0  501 -0.00000000000E+00 -0.00000000000E+00 -0.28878399653E+03  0.28878399653E+03  0.00000000000E+00 0.  1.
         23    2    1    2    0    0  0.45970769157E+03  0.52712130585E+03  0.50302972312E+03  0.86753323908E+03  0.10191656291E+03 0.  0.
         13    1    3    3    0    0  0.37306429002E+03  0.40104950090E+03  0.43792218698E+03  0.70127990739E+03  0.00000000000E+00 0. -1.
        -13    1    3    3    0    0  0.86643401553E+02  0.12607180495E+03  0.65107536137E+02  0.16625333169E+03  0.00000000000E+00 0.  1.
         22    1    1    2    0    0 -0.45970769157E+03 -0.52712130585E+03  0.10414489721E+04  0.12545134492E+04  0.00000000000E+00 0. -1.
<mgrwt>
<rscale>  0 0.14552208E+04</rscale>
<asrwt>0</asrwt>
<pdfrwt beam="1">  1        2 0.28204041E+00 0.14552208E+04</pdfrwt>
<pdfrwt beam="2">  1       -2 0.44428308E-01 0.14552208E+04</pdfrwt>
<totfact> 0.38518194E+01</totfact>
</mgrwt>
</event>
<event>
 6    1  0.1762360E-005  0.3574344E+04  0.7818608E-02  0.8096394E-01
          1   -1    0    0  501    0  0.00000000000E+00  0.00000000000E+00  0.10467119588E+04  0.10467119588E+04  0.00000000000E+00 0. -1.
         -1   -1    0    0    0  501 -0.00000000000E+00 -0.00000000000E+00 -0.30514447596E+04  0.30514447596E+04  0.00000000000E+00 0.  1.
         23    2    1    2    0    0 -0.15896939105E+04  0.61677108042E+03 -0.16122370604E+04  0.23484178233E+04  0.90689796265E+02 0.  0.
         11    1    3    3    0    0 -0.13937358656E+04  0.51256255621E+03 -0.13809341625E+04  0.20278558130E+04  0.00000000000E+00 0. -1.
        -11    1    3    3    0    0 -0.19595804484E+03  0.10420852421E+03 -0.23130289792E+03  0.32056201029E+03  0.00000000000E+00 0.  1.
         22    1    1    2    0    0  0.15896939105E+04 -0.61677108042E+03 -0.39249574035E+03  0.17497388950E+04  0.00000000000E+00 0. -1.
<mgrwt>
<rscale>  0 0.35743440E+04</rscale>
<asrwt>0</asrwt>
<pdfrwt beam="1">  1        1 0.16103261E+00 0.35743440E+04</pdfrwt>
<pdfrwt beam="2">  1       -1 0.46945304E+00 0.35743440E+04</pdfrwt>
<totfact> 0.26845047E-02</totfact>
</mgrwt>
</event>
<event>
 6    1  0.1762360E-005  0.1217455E+04  0.7818608E-02  0.9097714E-01
         -1   -1    0    0    0  501 -0.00000000000E+00  0.00000000000E+00  0.82749930037E+03  0.82749930037E+03  0.00000000000E+00 0.  1.
          1   -1    0    0  501    0  0.00000000000E+00 -0.00000000000E+00 -0.44779425933E+03  0.44779425933E+03  0.00000000000E+00 0. -1.
         23    2    1    2    0    0  0.31428984472E+03 -0.62501027498E+02 -0.34692127529E+03  0.48114603655E+03  0.91992675288E+02 0.  0.
         11    1    3    3    0    0  0.57438338203E+02  0.96268256272E+01 -0.10944715909E+03  0.12397789763E+03  0.00000000000E+00 0. -1.
        -11    1    3    3    0    0  0.25685150652E+03 -0.72127853125E+02 -0.23747411620E+03  0.35716813892E+03  0.00000000000E+00 0.  1.
         22    1    1    2    0    0 -0.31428984472E+03  0.62501027498E+02  0.72662631633E+03  0.79414752314E+03  0.00000000000E+00 0.  1.
<mgrwt>
<rscale>  0 0.12174554E+04</rscale>
<asrwt>0</asrwt>
<pdfrwt beam="1">  1        1 0.68891425E-01 0.12174554E+04</pdfrwt>
<pdfrwt beam="2">  1       -1 0.12730758E+00 0.12174554E+04</pdfrwt>
<totfact> 0.27248243E+01</totfact>
</mgrwt>
</event>
<event>
 6    1  0.1762360E-005  0.2617114E+04  0.7818608E-02  0.8362411E-01
         -2   -1    0    0    0  501 -0.00000000000E+00  0.00000000000E+00  0.49718244706E+03  0.49718244706E+03  0.00000000000E+00 0.  1.
          2   -1    0    0  501    0  0.00000000000E+00 -0.00000000000E+00 -0.34440494237E+04  0.34440494237E+04  0.00000000000E+00 0. -1.
         23    2    1    2    0    0  0.32452781284E+03 -0.12209905412E+04 -0.97109457610E+03  0.15960639062E+04  0.90879667857E+02 0.  0.
         13    1    3    3    0    0  0.24917617164E+03 -0.81209361579E+03 -0.68689915076E+03  0.10924354666E+04  0.00000000000E+00 0. -1.
        -13    1    3    3    0    0  0.75351641192E+02 -0.40889692543E+03 -0.28419542534E+03  0.50362843967E+03  0.00000000000E+00 0.  1.
         22    1    1    2    0    0 -0.32452781284E+03  0.12209905412E+04 -0.19757724005E+04  0.23451679645E+04  0.00000000000E+00 0. -1.
<mgrwt>
<rscale>  0 0.26171136E+04</rscale>
<asrwt>0</asrwt>
<pdfrwt beam="1">  1        2 0.52985375E+00 0.26171136E+04</pdfrwt>
<pdfrwt beam="2">  1       -2 0.76489608E-01 0.26171136E+04</pdfrwt>
<totfact> 0.12011352E+00</totfact>
</mgrwt>
</event>
<event>
 6    1  0.1762360E-005  0.2316129E+04  0.7818608E-02  0.8471589E-01
         -2   -1    0    0    0  501 -0.00000000000E+00  0.00000000000E+00  0.87904458217E+03  0.87904458217E+03  0.00000000000E+00 0.  1.
          2   -1    0    0  501    0  0.00000000000E+00 -0.00000000000E+00 -0.15256493926E+04  0.15256493926E+04  0.00000000000E+00 0. -1.
         23    2    1    2    0    0  0.84031084894E+03  0.79423354396E+03 -0.31748183758E+03  0.12025079757E+04  0.91112398352E+02 0.  0.
         13    1    3    3    0    0  0.35887681342E+03  0.27803442194E+03 -0.12530124011E+03  0.47095234129E+03  0.00000000000E+00 0.  1.
        -13    1    3    3    0    0  0.48143403551E+03  0.51619912203E+03 -0.19218059747E+03  0.73155563437E+03  0.00000000000E+00 0. -1.
         22    1    1    2    0    0 -0.84031084894E+03 -0.79423354396E+03 -0.32912297284E+03  0.12021859991E+04  0.00000000000E+00 0. -1.
<mgrwt>
<rscale>  0 0.23161294E+04</rscale>
<asrwt>0</asrwt>
<pdfrwt beam="1">  1        2 0.23471529E+00 0.23161294E+04</pdfrwt>
<pdfrwt beam="2">  1       -2 0.13523763E+00 0.23161294E+04</pdfrwt>
<totfact> 0.43666579E+00</totfact>
</mgrwt>
</event>
<event>
 6    1  0.1762360E-005  0.1770784E+04  0.7818608E-02  0.8721993E-01
          2   -1    0    0  501    0  0.00000000000E+00  0.00000000000E+00  0.27045580852E+04  0.27045580852E+04  0.00000000000E+00 0. -1.
         -2   -1    0    0    0  501 -0.00000000000E+00 -0.00000000000E+00 -0.28985091742E+03  0.28985091742E+03  0.00000000000E+00 0.  1.
         23    2    1    2    0    0 -0.34507813215E+03  0.79866525683E+03  0.14679941620E+04  0.17086366180E+04  0.86528162465E+02 0.  0.
         13    1    3    3    0    0 -0.77072423909E+02  0.26266637078E+03  0.41773527483E+03  0.49943622286E+03  0.00000000000E+00 0. -1.
        -13    1    3    3    0    0 -0.26800570824E+03  0.53599888605E+03  0.10502588871E+04  0.12092003951E+04  0.00000000000E+00 0.  1.
         22    1    1    2    0    0  0.34507813215E+03 -0.79866525683E+03  0.94671300577E+03  0.12857723846E+04  0.00000000000E+00 0. -1.
<mgrwt>
<rscale>  0 0.17707836E+04</rscale>
<asrwt>0</asrwt>
<pdfrwt beam="1">  1        2 0.41608584E+00 0.17707836E+04</pdfrwt>
<pdfrwt beam="2">  1       -2 0.44592451E-01 0.17707836E+04</pdfrwt>
<totfact> 0.11936462E+01</totfact>
</mgrwt>
</event>
<event>
 6    1  0.1762360E-005  0.1588463E+04  0.7818608E-02  0.8827667E-01
          2   -1    0    0  501    0  0.00000000000E+00  0.00000000000E+00  0.45304187623E+03  0.45304187623E+03  0.00000000000E+00 0. -1.
         -2   -1    0    0    0  501 -0.00000000000E+00 -0.00000000000E+00 -0.13923730969E+04  0.13923730969E+04  0.00000000000E+00 0.  1.
         23    2    1    2    0    0 -0.19566892905E+03  0.47608251535E+03  0.22670904630E+03  0.57082060807E+03  0.97459138660E+02 0.  0.
         11    1    3    3    0    0 -0.18709184458E+03  0.39316374235E+03  0.15937124489E+03  0.46365965999E+03  0.00000000000E+00 0.  1.
        -11    1    3    3    0    0 -0.85770844615E+01  0.82918773003E+02  0.67337801415E+02  0.10716094808E+03  0.00000000000E+00 0. -1.
         22    1    1    2    0    0  0.19566892905E+03 -0.47608251535E+03 -0.11660402670E+04  0.12745943650E+04  0.00000000000E+00 0.  1.
<mgrwt>
<rscale>  0 0.15884626E+04</rscale>
<asrwt>0</asrwt>
<pdfrwt beam="1">  1        2 0.69698750E-01 0.15884626E+04</pdfrwt>
<pdfrwt beam="2">  1       -2 0.21421125E+00 0.15884626E+04</pdfrwt>
<totfact> 0.71210104E+00</totfact>
</mgrwt>
</event>
<event>
 6    1  0.2847289E-005  0.4084224E+04  0.7818608E-02  0.7987768E-01
         -2   -1    0    0    0  501 -0.00000000000E+00  0.00000000000E+00  0.17082332669E+04  0.17082332669E+04  0.00000000000E+00 0.  1.
          2   -1    0    0  501    0  0.00000000000E+00 -0.00000000000E+00 -0.24412477480E+04  0.24412477480E+04  0.00000000000E+00 0. -1.
         23    2    1    2    0    0  0.12521481053E+04 -0.24698168060E+03  0.12505487329E+04  0.17907953953E+04  0.11916872999E+03 0.  0.
         11    1    3    3    0    0  0.38843924990E+03 -0.42175625311E+02  0.44398356956E+03  0.59142644874E+03  0.00000000000E+00 0.  1.
        -11    1    3    3    0    0  0.86370885545E+03 -0.20480605528E+03  0.80656516333E+03  0.11993689466E+04  0.00000000000E+00 0. -1.
         22    1    1    2    0    0 -0.12521481053E+04  0.24698168060E+03 -0.19835632140E+04  0.23586856196E+04  0.00000000000E+00 0. -1.
<mgrwt>
<rscale>  0 0.40842236E+04</rscale>
<asrwt>0</asrwt>
<pdfrwt beam="1">  1        2 0.37557658E+00 0.40842236E+04</pdfrwt>
<pdfrwt beam="2">  1       -2 0.26280512E+00 0.40842236E+04</pdfrwt>
<totfact> 0.15819018E-01</totfact>
</mgrwt>
</event>
<event>
 6    1  0.1762360E-005  0.1410461E+04  0.7818608E-02  0.8946281E-01
          1   -1    0    0  501    0  0.00000000000E+00  0.00000000000E+00  0.97074517356E+03  0.97074517356E+03  0.00000000000E+00 0. -1.
         -1   -1    0    0    0  501 -0.00000000000E+00 -0.00000000000E+00 -0.51233809644E+03  0.51233809644E+03  0.00000000000E+00 0.  1.
         23    2    1    2    0    0 -0.58777646341E+03  0.37752803992E+03  0.14771518334E+03  0.71853239221E+03  0.80376808841E+02 0.  0.
         11    1    3    3    0    0 -0.32383560674E+03  0.25195466303E+03  0.10074000853E+03  0.42249165878E+03  0.00000000000E+00 0. -1.
        -11    1    3    3    0    0 -0.26394085667E+03  0.12557337689E+03  0.46975174805E+02  0.29604073343E+03  0.00000000000E+00 0.  1.
         22    1    1    2    0    0  0.58777646341E+03 -0.37752803992E+03  0.31069189379E+03  0.76455087779E+03  0.00000000000E+00 0.  1.
<mgrwt>
<rscale>  0 0.14104605E+04</rscale>
<asrwt>0</asrwt>
<pdfrwt beam="1">  1        1 0.14934541E+00 0.14104605E+04</pdfrwt>
<pdfrwt beam="2">  1       -1 0.78821246E-01 0.14104605E+04</pdfrwt>
<totfact> 0.25033495E+01</totfact>
</mgrwt>
</event>
<event>
 6    1  0.1762360E-005  0.4659491E+04  0.7818608E-02  0.7883294E-01
         -1   -1    0    0    0  501 -0.00000000000E+00  0.00000000000E+00  0.14595428291E+04  0.14595428291E+04  0.00000000000E+00 0.  1.
          1   -1    0    0  501    0  0.00000000000E+00 -0.00000000000E+00 -0.37187774210E+04  0.37187774210E+04  0.00000000000E+00 0. -1.
         23    2    1    2    0    0 -0.12427137652E+04  0.15420648083E+03 -0.33121826935E+04  0.35422221951E+04  0.93095347343E+02 0.  0.
         13    1    3    3    0    0 -0.83075058032E+03  0.61741917171E+02 -0.22423435669E+04  0.23920834566E+04  0.00000000000E+00 0.  1.
        -13    1    3    3    0    0 -0.41196318487E+03  0.92464563663E+02 -0.10698391266E+04  0.11501387386E+04  0.00000000000E+00 0. -1.
         22    1    1    2    0    0  0.12427137652E+04 -0.15420648083E+03  0.10529481015E+04  0.16360980550E+04  0.00000000000E+00 0.  1.
<mgrwt>
<rscale>  0 0.46594914E+04</rscale>
<asrwt>0</asrwt>
<pdfrwt beam="1">  1        1 0.57211959E+00 0.46594914E+04</pdfrwt>
<pdfrwt beam="2">  1       -1 0.22454505E+00 0.46594914E+04</pdfrwt>
<totfact> 0.12647152E-02</totfact>
</mgrwt>
</event>
<event>
 6    1  0.1762360E-005  0.1554263E+04  0.7818608E-02  0.8849149E-01
         -1   -1    0    0    0  501 -0.00000000000E+00  0.00000000000E+00  0.20083344147E+03  0.20083344147E+03  0.00000000000E+00 0.  1.
          1   -1    0    0  501    0  0.00000000000E+00 -0.00000000000E+00 -0.30071363703E+04  0.30071363703E+04  0.00000000000E+00 0. -1.
         23    2    1    2    0    0  0.51429554558E+03 -0.57577209309E+03 -0.15361760367E+04  0.17216200099E+04  0.90140065385E+02 0.  0.
         13    1    3    3    0    0  0.23560272915E+03 -0.25926172356E+03 -0.79719016343E+03  0.87076830670E+03  0.00000000000E+00 0. -1.
        -13    1    3    3    0    0  0.27869281643E+03 -0.31651036953E+03 -0.73898587325E+03  0.85085170318E+03  0.00000000000E+00 0.  1.
         22    1    1    2    0    0 -0.51429554558E+03  0.57577209309E+03 -0.12701268922E+04  0.14863498019E+04  0.00000000000E+00 0. -1.
<mgrwt>
<rscale>  0 0.15542632E+04</rscale>
<asrwt>0</asrwt>
<pdfrwt beam="1">  1        1 0.46263632E+00 0.15542632E+04</pdfrwt>
<pdfrwt beam="2">  1       -1 0.30897455E-01 0.15542632E+04</pdfrwt>
<totfact> 0.55413239E+00</totfact>
</mgrwt>
</event>
<event>
 6    1  0.1762360E-005  0.2015972E+04  0.7818608E-02  0.8599189E-01
         -2   -1    0    0    0  501 -0.00000000000E+00  0.00000000000E+00  0.33459704382E+03  0.33459704382E+03  0.00000000000E+00 0.  1.
          2   -1    0    0  501    0  0.00000000000E+00 -0.00000000000E+00 -0.30365957980E+04  0.30365957980E+04  0.00000000000E+00 0. -1.
         23    2    1    2    0    0  0.18999722164E+03  0.83890992134E+03 -0.48169239770E+03  0.99009454126E+03  0.91601497116E+02 0.  0.
         13    1    3    3    0    0  0.44947415596E+02  0.25906415194E+03 -0.10226549889E+03  0.28212184823E+03  0.00000000000E+00 0. -1.
        -13    1    3    3    0    0  0.14504980605E+03  0.57984576941E+03 -0.37942689881E+03  0.70797269303E+03  0.00000000000E+00 0.  1.
         22    1    1    2    0    0 -0.18999722164E+03 -0.83890992134E+03 -0.22203063565E+04  0.23810983006E+04  0.00000000000E+00 0. -1.
<mgrwt>
<rscale>  0 0.20159722E+04</rscale>
<asrwt>0</asrwt>
<pdfrwt beam="1">  1        2 0.46716858E+00 0.20159722E+04</pdfrwt>
<pdfrwt beam="2">  1       -2 0.51476469E-01 0.20159722E+04</pdfrwt>
<totfact> 0.54757218E+00</totfact>
</mgrwt>
</event>
<event>
 6    1  0.1762360E-005  0.1310944E+04  0.7818608E-02  0.9020931E-01
         -1   -1    0    0    0  501 -0.00000000000E+00  0.00000000000E+00  0.49984329553E+03  0.49984329553E+03  0.00000000000E+00 0.  1.
          1   -1    0    0  501    0  0.00000000000E+00 -0.00000000000E+00 -0.85955700633E+03  0.85955700633E+03  0.00000000000E+00 0. -1.
         23    2    1    2    0    0  0.47780189148E+03 -0.96778797948E+01 -0.64105928232E+03  0.80483412955E+03  0.91720574403E+02 0.  0.
         11    1    3    3    0    0  0.19990384393E+03  0.28006078240E+02 -0.32205377407E+03  0.38008488608E+03  0.00000000000E+00 0.  1.
        -11    1    3    3    0    0  0.27789804755E+03 -0.37683958035E+02 -0.31900550825E+03  0.42474924346E+03  0.00000000000E+00 0. -1.
         22    1    1    2    0    0 -0.47780189148E+03  0.96778797948E+01  0.28134557152E+03  0.55456617232E+03  0.00000000000E+00 0.  1.
<mgrwt>
<rscale>  0 0.13109444E+04</rscale>
<asrwt>0</asrwt>
<pdfrwt beam="1">  1        1 0.13223954E+00 0.13109444E+04</pdfrwt>
<pdfrwt beam="2">  1       -1 0.76898969E-01 0.13109444E+04</pdfrwt>
<totfact> 0.32751468E+01</totfact>
</mgrwt>
</event>
<event>
 6    1  0.1762360E-005  0.1691722E+04  0.7818608E-02  0.8766099E-01
         -2   -1    0    0    0  501 -0.00000000000E+00  0.00000000000E+00  0.32708277201E+03  0.32708277201E+03  0.00000000000E+00 0.  1.
          2   -1    0    0  501    0  0.00000000000E+00 -0.00000000000E+00 -0.21874623176E+04  0.21874623176E+04  0.00000000000E+00 0. -1.
         23    2    1    2    0    0 -0.62348291545E+03  0.41204509046E+03 -0.15139307866E+04  0.16908103963E+04  0.91330537598E+02 0.  0.
         11    1    3    3    0    0 -0.39602044035E+03  0.22910458677E+03 -0.10018959748E+04  0.11014157458E+04  0.00000000000E+00 0. -1.
        -11    1    3    3    0    0 -0.22746247510E+03  0.18294050369E+03 -0.51203481181E+03  0.58939465044E+03  0.00000000000E+00 0.  1.
         22    1    1    2    0    0  0.62348291545E+03 -0.41204509046E+03 -0.34644875905E+03  0.82373469338E+03  0.00000000000E+00 0.  1.
<mgrwt>
<rscale>  0 0.16917225E+04</rscale>
<asrwt>0</asrwt>
<pdfrwt beam="1">  1        2 0.33653268E+00 0.16917225E+04</pdfrwt>
<pdfrwt beam="2">  1       -2 0.50320425E-01 0.16917225E+04</pdfrwt>
<totfact> 0.18675164E+01</totfact>
</mgrwt>
</event>
<event>
 6    1  0.1762360E-005  0.1904523E+04  0.7818608E-02  0.8652609E-01
          2   -1    0    0  501    0  0.00000000000E+00  0.00000000000E+00  0.23678333222E+04  0.23678333222E+04  0.00000000000E+00 0. -1.
         -2   -1    0    0    0  501 -0.00000000000E+00 -0.00000000000E+00 -0.38296678489E+03  0.38296678489E+03  0.00000000000E+00 0.  1.
         23    2    1    2    0    0  0.73109187116E+03  0.59908991798E+03  0.11320007334E+04  0.14776999015E+04  0.93633779568E+02 0.  0.
         13    1    3    3    0    0  0.54976228535E+03  0.49517509978E+03  0.85475728409E+03  0.11305073925E+04  0.00000000000E+00 0. -1.
        -13    1    3    3    0    0  0.18132958582E+03  0.10391481820E+03  0.27724344928E+03  0.34719250899E+03  0.00000000000E+00 0.  1.
         22    1    1    2    0    0 -0.73109187116E+03 -0.59908991798E+03  0.85286580394E+03  0.12731002056E+04  0.00000000000E+00 0.  1.
<mgrwt>
<rscale>  0 0.19045225E+04</rscale>
<asrwt>0</asrwt>
<pdfrwt beam="1">  1        2 0.36428204E+00 0.19045225E+04</pdfrwt>
<pdfrwt beam="2">  1       -2 0.58917968E-01 0.19045225E+04</pdfrwt>
<totfact> 0.10456269E+01</totfact>
</mgrwt>
</event>
<event>
 6    1  0.1762360E-005  0.2563215E+04  0.7818608E-02  0.8380805E-01
         -1   -1    0    0    0  501 -0.00000000000E+00  0.00000000000E+00  0.46744163977E+03  0.46744163977E+03  0.00000000000E+00 0.  1.
          1   -1    0    0  501    0  0.00000000000E+00 -0.00000000000E+00 -0.35138460843E+04  0.35138460843E+04  0.00000000000E+00 0. -1.
         23    2    1    2    0    0  0.68996807347E+03  0.24861212521E+03  0.10366011490E+03  0.74697625795E+03  0.96768689763E+02 0.  0.
         13    1    3    3    0    0  0.47099586677E+02  0.77514428357E+01  0.30349707775E+02  0.56564659401E+02  0.00000000000E+00 0. -1.
        -13    1    3    3    0    0  0.64286848679E+03  0.24086068237E+03  0.73310407129E+02  0.69041159855E+03  0.00000000000E+00 0.  1.
         22    1    1    2    0    0 -0.68996807347E+03 -0.24861212521E+03 -0.31500645594E+04  0.32343114661E+04  0.00000000000E+00 0. -1.
<mgrwt>
<rscale>  0 0.25632151E+04</rscale>
<asrwt>0</asrwt>
<pdfrwt beam="1">  1        1 0.54059171E+00 0.25632151E+04</pdfrwt>
<pdfrwt beam="2">  1       -1 0.71914098E-01 0.25632151E+04</pdfrwt>
<totfact> 0.42042632E-01</totfact>
</mgrwt>
</event>
<event>
 6    1  0.1762360E-005  0.7372863E+03  0.7818608E-02  0.9655510E-01
          1   -1    0    0  501    0  0.00000000000E+00  0.00000000000E+00  0.24970912933E+03  0.24970912933E+03  0.00000000000E+00 0. -1.
         -1   -1    0    0    0  501 -0.00000000000E+00 -0.00000000000E+00 -0.54422428021E+03  0.54422428021E+03  0.00000000000E+00 0.  1.
         23    2    1    2    0    0  0.21607971112E+03  0.10854029760E+03  0.14356299638E+03  0.29354965594E+03  0.84199933548E+02 0.  0.
         11    1    3    3    0    0  0.17992401088E+03  0.56993661411E+02  0.12991102711E+03  0.22912398848E+03  0.00000000000E+00 0.  1.
        -11    1    3    3    0    0  0.36155700239E+02  0.51546636193E+02  0.13651969278E+02  0.64425667460E+02  0.00000000000E+00 0. -1.
         22    1    1    2    0    0 -0.21607971112E+03 -0.10854029760E+03 -0.43807814726E+03  0.50038375360E+03  0.00000000000E+00 0.  1.
<mgrwt>
<rscale>  0 0.73728630E+03</rscale>
<asrwt>0</asrwt>
<pdfrwt beam="1">  1        1 0.38416790E-01 0.73728630E+03</pdfrwt>
<pdfrwt beam="2">  1       -1 0.83726811E-01 0.73728630E+03</pdfrwt>
<totfact> 0.15981343E+02</totfact>
</mgrwt>
</event>
<event>
 6    1  0.1762360E-005  0.1851236E+04  0.7818608E-02  0.8679517E-01
          2   -1    0    0  501    0  0.00000000000E+00  0.00000000000E+00  0.27100851442E+04  0.27100851442E+04  0.00000000000E+00 0.  1.
         -2   -1    0    0    0  501 -0.00000000000E+00 -0.00000000000E+00 -0.31614099700E+03  0.31614099700E+03  0.00000000000E+00 0. -1.
         23    2    1    2    0    0 -0.53267460878E+03 -0.16051913988E+03  0.24047008740E+04  0.24697871596E+04  0.88055024112E+02 0.  0.
         11    1    3    3    0    0 -0.22742309460E+03 -0.75392723137E+02  0.85027286649E+03  0.88338512221E+03  0.00000000000E+00 0. -1.
        -11    1    3    3    0    0 -0.30525151418E+03 -0.85126416743E+02  0.15544280075E+04  0.15864020374E+04  0.00000000000E+00 0.  1.
         22    1    1    2    0    0  0.53267460878E+03  0.16051913988E+03 -0.10756726753E+02  0.55643898163E+03  0.00000000000E+00 0. -1.
<mgrwt>
<rscale>  0 0.18512364E+04</rscale>
<asrwt>0</asrwt>
<pdfrwt beam="1">  1        2 0.41693616E+00 0.18512364E+04</pdfrwt>
<pdfrwt beam="2">  1       -2 0.48637078E-01 0.18512364E+04</pdfrwt>
<totfact> 0.98761388E+00</totfact>
</mgrwt>
</event>
<event>
 6    1  0.1762360E-005  0.3732728E+04  0.7818608E-02  0.8060747E-01
         -1   -1    0    0    0  501 -0.00000000000E+00  0.00000000000E+00  0.90546283328E+03  0.90546283328E+03  0.00000000000E+00 0.  1.
          1   -1    0    0  501    0  0.00000000000E+00 -0.00000000000E+00 -0.38469995574E+04  0.38469995574E+04  0.00000000000E+00 0. -1.
         23    2    1    2    0    0 -0.38270585021E+02 -0.79656077094E+03  0.67535076280E+03  0.10487009523E+04  0.87757250672E+02 0.  0.
         13    1    3    3    0    0 -0.46885421902E+02 -0.48286082274E+03  0.45619757424E+03  0.66593471426E+03  0.00000000000E+00 0. -1.
        -13    1    3    3    0    0  0.86148368810E+01 -0.31369994821E+03  0.21915318856E+03  0.38276623803E+03  0.00000000000E+00 0.  1.
         22    1    1    2    0    0  0.38270585021E+02  0.79656077094E+03 -0.36168874869E+04  0.37037614384E+04  0.00000000000E+00 0. -1.
<mgrwt>
<rscale>  0 0.37327283E+04</rscale>
<asrwt>0</asrwt>
<pdfrwt beam="1">  1        1 0.59184607E+00 0.37327283E+04</pdfrwt>
<pdfrwt beam="2">  1       -1 0.13930198E+00 0.37327283E+04</pdfrwt>
<totfact> 0.44095604E-02</totfact>
</mgrwt>
</event>
<event>
 6    1  0.1762360E-005  0.3886137E+04  0.7818608E-02  0.8027919E-01
         -2   -1    0    0    0  501 -0.00000000000E+00  0.00000000000E+00  0.98242595276E+03  0.98242595276E+03  0.00000000000E+00 0.  1.
          2   -1    0    0  501    0  0.00000000000E+00 -0.00000000000E+00 -0.38430536074E+04  0.38430536074E+04  0.00000000000E+00 0. -1.
         23    2    1    2    0    0  0.76071608257E+03  0.17407039106E+04 -0.93048462363E+03  0.21173083723E+04  0.91945887172E+02 0.  0.
         13    1    3    3    0    0  0.31363095060E+03  0.60847824341E+03 -0.34156425588E+03  0.76503352003E+03  0.00000000000E+00 0.  1.
        -13    1    3    3    0    0  0.44708513197E+03  0.11322256672E+04 -0.58892036775E+03  0.13522748523E+04  0.00000000000E+00 0. -1.
         22    1    1    2    0    0 -0.76071608257E+03 -0.17407039106E+04 -0.19301430310E+04  0.27081711879E+04  0.00000000000E+00 0. -1.
<mgrwt>
<rscale>  0 0.38861372E+04</rscale>
<asrwt>0</asrwt>
<pdfrwt beam="1">  1        2 0.59123902E+00 0.38861372E+04</pdfrwt>
<pdfrwt beam="2">  1       -2 0.15114245E+00 0.38861372E+04</pdfrwt>
<totfact> 0.10611291E-01</totfact>
</mgrwt>
</event>
<event>
 6    1  0.1762360E-005  0.2064506E+04  0.7818608E-02  0.8577042E-01
          2   -1    0    0  501    0  0.00000000000E+00  0.00000000000E+00  0.27868024120E+04  0.27868024120E+04  0.00000000000E+00 0. -1.
         -2   -1    0    0    0  501 -0.00000000000E+00 -0.00000000000E+00 -0.38235434095E+03  0.38235434095E+03  0.00000000000E+00 0.  1.
         23    2    1    2    0    0 -0.56369372186E+03  0.51400247421E+03  0.14155081189E+03  0.78113389689E+03  0.90467546482E+02 0.  0.
         11    1    3    3    0    0 -0.20948464424E+03  0.13618603013E+03  0.58640926820E+02  0.25664997424E+03  0.00000000000E+00 0. -1.
        -11    1    3    3    0    0 -0.35420907761E+03  0.37781644407E+03  0.82909885074E+02  0.52448392265E+03  0.00000000000E+00 0.  1.
         22    1    1    2    0    0  0.56369372186E+03 -0.51400247421E+03  0.22628972591E+04  0.23880228560E+04  0.00000000000E+00 0. -1.
<mgrwt>
<rscale>  0 0.20645058E+04</rscale>
<asrwt>0</asrwt>
<pdfrwt beam="1">  1        2 0.42873882E+00 0.20645058E+04</pdfrwt>
<pdfrwt beam="2">  1       -2 0.58823747E-01 0.20645058E+04</pdfrwt>
<totfact> 0.58855473E+00</totfact>
</mgrwt>
</event>
<event>
 6    1  0.1762360E-005  0.2954767E+04  0.7818608E-02  0.8256767E-01
         -1   -1    0    0    0  501 -0.00000000000E+00  0.00000000000E+00  0.78387182343E+03  0.78387182343E+03  0.00000000000E+00 0.  1.
          1   -1    0    0  501    0  0.00000000000E+00 -0.00000000000E+00 -0.27844628657E+04  0.27844628657E+04  0.00000000000E+00 0. -1.
         23    2    1    2    0    0  0.27250185127E+02  0.61905422279E+03  0.61645302879E+03  0.87893134022E+03  0.92386475067E+02 0.  0.
         11    1    3    3    0    0  0.17960554093E+02  0.53742890490E+03  0.48624706160E+03  0.72497490593E+03  0.00000000000E+00 0. -1.
        -11    1    3    3    0    0  0.92896310340E+01  0.81625317891E+02  0.13020596719E+03  0.15395643428E+03  0.00000000000E+00 0.  1.
         22    1    1    2    0    0 -0.27250185127E+02 -0.61905422279E+03 -0.26170440711E+04  0.26894033489E+04  0.00000000000E+00 0. -1.
<mgrwt>
<rscale>  0 0.29547670E+04</rscale>
<asrwt>0</asrwt>
<pdfrwt beam="1">  1        1 0.42837889E+00 0.29547670E+04</pdfrwt>
<pdfrwt beam="2">  1       -1 0.12059567E+00 0.29547670E+04</pdfrwt>
<totfact> 0.44644312E-01</totfact>
</mgrwt>
</event>
<event>
 6    1  0.1762360E-005  0.6429437E+04  0.7818608E-02  0.7639323E-01
         -2   -1    0    0    0  501 -0.00000000000E+00  0.00000000000E+00  0.37545170391E+04  0.37545170391E+04  0.00000000000E+00 0.  1.
          2   -1    0    0  501    0  0.00000000000E+00 -0.00000000000E+00 -0.27525288913E+04  0.27525288913E+04  0.00000000000E+00 0. -1.
         23    2    1    2    0    0 -0.31393222300E+04  0.58540664565E+03  0.13363770819E+03  0.31976536160E+04  0.95313199928E+02 0.  0.
         11    1    3    3    0    0 -0.21846948402E+04  0.37200875090E+03  0.11956308960E+03  0.22193641855E+04  0.00000000000E+00 0.  1.
        -11    1    3    3    0    0 -0.95462738977E+03  0.21339789474E+03  0.14074618596E+02  0.97828943042E+03  0.00000000000E+00 0. -1.
         22    1    1    2    0    0  0.31393222300E+04 -0.58540664565E+03  0.86835043961E+03  0.33093923144E+04  0.00000000000E+00 0. -1.
<mgrwt>
<rscale>  0 0.64294375E+04</rscale>
<asrwt>0</asrwt>
<pdfrwt beam="1">  1        2 0.42346598E+00 0.64294375E+04</pdfrwt>
<pdfrwt beam="2">  1       -2 0.57761801E+00 0.64294375E+04</pdfrwt>
<totfact> 0.10370656E-03</totfact>
</mgrwt>
</event>
<event>
 6    1  0.1762360E-005  0.4768778E+04  0.7818608E-02  0.7865200E-01
         -2   -1    0    0    0  501 -0.00000000000E+00  0.00000000000E+00  0.25023373222E+04  0.25023373222E+04  0.00000000000E+00 0. -1.
          2   -1    0    0  501    0  0.00000000000E+00 -0.00000000000E+00 -0.22720001758E+04  0.22720001758E+04  0.00000000000E+00 0.  1.
         23    2    1    2    0    0 -0.14953812558E+04 -0.86139333523E+02  0.19714536235E+04  0.24775850795E+04  0.90627542631E+02 0.  0.
         11    1    3    3    0    0 -0.36701498099E+03 -0.45241773310E+02  0.43667221182E+03  0.57221450078E+03  0.00000000000E+00 0.  1.
        -11    1    3    3    0    0 -0.11283662748E+04 -0.40897560213E+02  0.15347814117E+04  0.19053705787E+04  0.00000000000E+00 0. -1.
         22    1    1    2    0    0  0.14953812558E+04  0.86139333523E+02 -0.17411164771E+04  0.22967524185E+04  0.00000000000E+00 0.  1.
<mgrwt>
<rscale>  0 0.47687780E+04</rscale>
<asrwt>0</asrwt>
<pdfrwt beam="1">  1        2 0.34953849E+00 0.47687780E+04</pdfrwt>
<pdfrwt beam="2">  1       -2 0.38497497E+00 0.47687780E+04</pdfrwt>
<totfact> 0.32427078E-02</totfact>
</mgrwt>
</event>
<event>
 6    1  0.1762360E-005  0.2310867E+04  0.7818608E-02  0.8473649E-01
         -2   -1    0    0    0  501 -0.00000000000E+00  0.00000000000E+00  0.10817045476E+04  0.10817045476E+04  0.00000000000E+00 0.  1.
          2   -1    0    0  501    0  0.00000000000E+00 -0.00000000000E+00 -0.12341876987E+04  0.12341876987E+04  0.00000000000E+00 0. -1.
         23    2    1    2    0    0 -0.38820073164E+03  0.63273342713E+03 -0.96220648383E+03  0.12173917805E+04  0.71763721672E+02 0.  0.
         11    1    3    3    0    0 -0.26373520574E+03  0.36331231844E+03 -0.58692916738E+03  0.73894380504E+03  0.00000000000E+00 0. -1.
        -11    1    3    3    0    0 -0.12446552590E+03  0.26942110869E+03 -0.37527731644E+03  0.47844797542E+03  0.00000000000E+00 0.  1.
         22    1    1    2    0    0  0.38820073164E+03 -0.63273342713E+03  0.80972333277E+03  0.10985004659E+04  0.00000000000E+00 0.  1.
<mgrwt>
<rscale>  0 0.23108669E+04</rscale>
<asrwt>0</asrwt>
<pdfrwt beam="1">  1        2 0.18987503E+00 0.23108669E+04</pdfrwt>
<pdfrwt beam="2">  1       -2 0.16641608E+00 0.23108669E+04</pdfrwt>
<totfact> 0.37019653E+00</totfact>
</mgrwt>
</event>
<event>
 6    1  0.1762360E-005  0.3494756E+04  0.7818608E-02  0.8115034E-01
          2   -1    0    0  501    0  0.00000000000E+00  0.00000000000E+00  0.15975758765E+04  0.15975758765E+04  0.00000000000E+00 0.  1.
         -2   -1    0    0    0  501 -0.00000000000E+00 -0.00000000000E+00 -0.19112263085E+04  0.19112263085E+04  0.00000000000E+00 0. -1.
         23    2    1    2    0    0 -0.15968114294E+04  0.61875141545E+03  0.18571095233E+03  0.17249799273E+04  0.91690438607E+02 0.  0.
         13    1    3    3    0    0 -0.14072693101E+04  0.51414962205E+03  0.17128145697E+03  0.15080099743E+04  0.00000000000E+00 0. -1.
        -13    1    3    3    0    0 -0.18954211922E+03  0.10460179340E+03  0.14429495361E+02  0.21696995294E+03  0.00000000000E+00 0.  1.
         22    1    1    2    0    0  0.15968114294E+04 -0.61875141545E+03 -0.49936138429E+03  0.17838222577E+04  0.00000000000E+00 0. -1.
<mgrwt>
<rscale>  0 0.34947555E+04</rscale>
<asrwt>0</asrwt>
<pdfrwt beam="1">  1        2 0.24578091E+00 0.34947555E+04</pdfrwt>
<pdfrwt beam="2">  1       -2 0.29403482E+00 0.34947555E+04</pdfrwt>
<totfact> 0.31789293E-01</totfact>
</mgrwt>
</event>
<event>
 6    1  0.1762360E-005  0.1678938E+04  0.7818608E-02  0.8773469E-01
         -1   -1    0    0    0  501 -0.00000000000E+00  0.00000000000E+00  0.31844627742E+03  0.31844627742E+03  0.00000000000E+00 0.  1.
          1   -1    0    0  501    0  0.00000000000E+00 -0.00000000000E+00 -0.22129574641E+04  0.22129574641E+04  0.00000000000E+00 0. -1.
         23    2    1    2    0    0  0.52319415980E+03  0.65188809305E+03 -0.90065205013E+03  0.12327713078E+04  0.99301395392E+02 0.  0.
         11    1    3    3    0    0  0.29185903180E+03  0.41174670406E+03 -0.59743824749E+03  0.78208024033E+03  0.00000000000E+00 0. -1.
        -11    1    3    3    0    0  0.23133512800E+03  0.24014138899E+03 -0.30321380264E+03  0.45069106744E+03  0.00000000000E+00 0.  1.
         22    1    1    2    0    0 -0.52319415980E+03 -0.65188809305E+03 -0.99385913653E+03  0.12986324337E+04  0.00000000000E+00 0.  1.
<mgrwt>
<rscale>  0 0.16789378E+04</rscale>
<asrwt>0</asrwt>
<pdfrwt beam="1">  1        1 0.34045500E+00 0.16789378E+04</pdfrwt>
<pdfrwt beam="2">  1       -1 0.48991734E-01 0.16789378E+04</pdfrwt>
<totfact> 0.84970321E+00</totfact>
</mgrwt>
</event>
<event>
 6    1  0.1762360E-005  0.2362610E+04  0.7818608E-02  0.8453636E-01
         -1   -1    0    0    0  501 -0.00000000000E+00  0.00000000000E+00  0.11273937360E+04  0.11273937360E+04  0.00000000000E+00 0.  1.
          1   -1    0    0  501    0  0.00000000000E+00 -0.00000000000E+00 -0.12377943708E+04  0.12377943708E+04  0.00000000000E+00 0. -1.
         23    2    1    2    0    0 -0.55613620687E+03 -0.74153310885E+02 -0.10939611036E+04  0.12328553863E+04  0.91625942291E+02 0.  0.
         13    1    3    3    0    0 -0.40591436788E+03 -0.19704962318E+02 -0.73323798291E+03  0.83832732222E+03  0.00000000000E+00 0. -1.
        -13    1    3    3    0    0 -0.15022183899E+03 -0.54448348567E+02 -0.36072312071E+03  0.39452806413E+03  0.00000000000E+00 0.  1.
         22    1    1    2    0    0  0.55613620687E+03  0.74153310885E+02  0.98356046880E+03  0.11323327205E+04  0.00000000000E+00 0.  1.
<mgrwt>
<rscale>  0 0.23626101E+04</rscale>
<asrwt>0</asrwt>
<pdfrwt beam="1">  1        1 0.19042990E+00 0.23626101E+04</pdfrwt>
<pdfrwt beam="2">  1       -1 0.17344519E+00 0.23626101E+04</pdfrwt>
<totfact> 0.20934524E+00</totfact>
</mgrwt>
</event>
<event>
 6    1  0.1762360E-005  0.2017150E+04  0.7818608E-02  0.8598644E-01
          1   -1    0    0  501    0  0.00000000000E+00  0.00000000000E+00  0.14472684842E+04  0.14472684842E+04  0.00000000000E+00 0. -1.
         -1   -1    0    0    0  501 -0.00000000000E+00 -0.00000000000E+00 -0.70285728585E+03  0.70285728585E+03  0.00000000000E+00 0.  1.
         23    2    1    2    0    0 -0.57524601980E+03 -0.56114561269E+03  0.10188129105E+04  0.13009563632E+04  0.93355933434E+02 0.  0.
         11    1    3    3    0    0 -0.37422421368E+03 -0.33080462855E+03  0.56954450365E+03  0.75753310556E+03  0.00000000000E+00 0. -1.
        -11    1    3    3    0    0 -0.20102180612E+03 -0.23034098413E+03  0.44926840688E+03  0.54342325763E+03  0.00000000000E+00 0.  1.
         22    1    1    2    0    0  0.57524601980E+03  0.56114561269E+03 -0.27440171217E+03  0.84916940688E+03  0.00000000000E+00 0.  1.
<mgrwt>
<rscale>  0 0.20171497E+04</rscale>
<asrwt>0</asrwt>
<pdfrwt beam="1">  1        1 0.22265669E+00 0.20171497E+04</pdfrwt>
<pdfrwt beam="2">  1       -1 0.10813189E+00 0.20171497E+04</pdfrwt>
<totfact> 0.52400081E+00</totfact>
</mgrwt>
</event>
<event>
 6    1  0.1762360E-005  0.5885113E+04  0.7818608E-02  0.7704812E-01
         -1   -1    0    0    0  501 -0.00000000000E+00  0.00000000000E+00  0.20060812282E+04  0.20060812282E+04  0.00000000000E+00 0.  1.
          1   -1    0    0  501    0  0.00000000000E+00 -0.00000000000E+00 -0.43161957988E+04  0.43161957988E+04  0.00000000000E+00 0. -1.
         23    2    1    2    0    0  0.19728497661E+04  0.89463035858E+03 -0.32936539516E+04  0.39432332290E+04  0.91827378392E+02 0.  0.
         11    1    3    3    0    0  0.17970594850E+04  0.80401129663E+03 -0.29462630542E+04  0.35434902204E+04  0.00000000000E+00 0.  1.
        -11    1    3    3    0    0  0.17579028115E+03  0.90619061947E+02 -0.34739089743E+03  0.39974300863E+03  0.00000000000E+00 0. -1.
         22    1    1    2    0    0 -0.19728497661E+04 -0.89463035858E+03  0.98353938101E+03  0.23790437979E+04  0.00000000000E+00 0.  1.
<mgrwt>
<rscale>  0 0.58851132E+04</rscale>
<asrwt>0</asrwt>
<pdfrwt beam="1">  1        1 0.66403011E+00 0.58851132E+04</pdfrwt>
<pdfrwt beam="2">  1       -1 0.30862789E+00 0.58851132E+04</pdfrwt>
<totfact> 0.95391141E-04</totfact>
</mgrwt>
</event>
<event>
 6    1  0.1762360E-005  0.1443239E+04  0.7818608E-02  0.8923101E-01
         -2   -1    0    0    0  501 -0.00000000000E+00  0.00000000000E+00  0.14120123601E+03  0.14120123601E+03  0.00000000000E+00 0.  1.
          2   -1    0    0  501    0  0.00000000000E+00 -0.00000000000E+00 -0.36878911436E+04  0.36878911436E+04  0.00000000000E+00 0. -1.
         23    2    1    2    0    0 -0.26930915870E+03  0.94956116579E+02 -0.35303511199E+04  0.35430660818E+04  0.91619558030E+02 0.  0.
         11    1    3    3    0    0 -0.10168311413E+03  0.42034639097E+02 -0.87283248668E+03  0.87974025506E+03  0.00000000000E+00 0.  1.
        -11    1    3    3    0    0 -0.16762604458E+03  0.52921477482E+02 -0.26575186332E+04  0.26633258267E+04  0.00000000000E+00 0. -1.
         22    1    1    2    0    0  0.26930915870E+03 -0.94956116579E+02 -0.16338787688E+02  0.28602629778E+03  0.00000000000E+00 0.  1.
<mgrwt>
<rscale>  0 0.14432391E+04</rscale>
<asrwt>0</asrwt>
<pdfrwt beam="1">  1        2 0.56736794E+00 0.14432391E+04</pdfrwt>
<pdfrwt beam="2">  1       -2 0.21723264E-01 0.14432391E+04</pdfrwt>
<totfact> 0.10885206E+01</totfact>
</mgrwt>
</event>
<event>
 6    1  0.1762360E-005  0.3513642E+04  0.7818608E-02  0.8110565E-01
          1   -1    0    0  501    0  0.00000000000E+00  0.00000000000E+00  0.20237082185E+04  0.20237082185E+04  0.00000000000E+00 0. -1.
         -1   -1    0    0    0  501 -0.00000000000E+00 -0.00000000000E+00 -0.15251310361E+04  0.15251310361E+04  0.00000000000E+00 0.  1.
         23    2    1    2    0    0  0.14318609918E+04  0.23486516286E+02  0.12752065714E+04  0.19197503301E+04  0.92260575516E+02 0.  0.
         11    1    3    3    0    0  0.97680964112E+03 -0.26663453711E+02  0.87524975685E+03  0.13118422739E+04  0.00000000000E+00 0.  1.
        -11    1    3    3    0    0  0.45505135064E+03  0.50149969997E+02  0.39995681455E+03  0.60790805614E+03  0.00000000000E+00 0. -1.
         22    1    1    2    0    0 -0.14318609918E+04 -0.23486516286E+02 -0.77662938906E+03  0.16290889246E+04  0.00000000000E+00 0.  1.
<mgrwt>
<rscale>  0 0.35136421E+04</rscale>
<asrwt>0</asrwt>
<pdfrwt beam="1">  1        1 0.31133973E+00 0.35136421E+04</pdfrwt>
<pdfrwt beam="2">  1       -1 0.23463554E+00 0.35136421E+04</pdfrwt>
<totfact> 0.20582679E-01</totfact>
</mgrwt>
</event>
<event>
 6    1  0.1762360E-005  0.3450804E+04  0.7818608E-02  0.8125549E-01
          1   -1    0    0  501    0  0.00000000000E+00  0.00000000000E+00  0.19846330449E+04  0.19846330449E+04  0.00000000000E+00 0. -1.
         -1   -1    0    0    0  501 -0.00000000000E+00 -0.00000000000E+00 -0.15000314896E+04  0.15000314896E+04  0.00000000000E+00 0.  1.
         23    2    1    2    0    0 -0.82219754419E+03  0.30814707085E+03 -0.12559329771E+04  0.15351969464E+04  0.92187863930E+02 0.  0.
         13    1    3    3    0    0 -0.21839542584E+03  0.10435470323E+03 -0.40955591761E+03  0.47573366053E+03  0.00000000000E+00 0. -1.
        -13    1    3    3    0    0 -0.60380211835E+03  0.20379236762E+03 -0.84637705950E+03  0.10594632859E+04  0.00000000000E+00 0.  1.
         22    1    1    2    0    0  0.82219754419E+03 -0.30814707085E+03  0.17405345324E+04  0.19494675882E+04  0.00000000000E+00 0. -1.
<mgrwt>
<rscale>  0 0.34508040E+04</rscale>
<asrwt>0</asrwt>
<pdfrwt beam="1">  1        1 0.30532816E+00 0.34508040E+04</pdfrwt>
<pdfrwt beam="2">  1       -1 0.23077408E+00 0.34508040E+04</pdfrwt>
<totfact> 0.23327852E-01</totfact>
</mgrwt>
</event>
<event>
 6    1  0.1762360E-005  0.1124497E+04  0.7818608E-02  0.9181639E-01
          2   -1    0    0  501    0  0.00000000000E+00  0.00000000000E+00  0.68510067149E+03  0.68510067149E+03  0.00000000000E+00 0. -1.
         -2   -1    0    0    0  501 -0.00000000000E+00 -0.00000000000E+00 -0.46142618485E+03  0.46142618485E+03  0.00000000000E+00 0.  1.
         23    2    1    2    0    0 -0.71381861926E+02  0.54902480115E+03  0.18626524946E+03  0.59161870763E+03  0.93778193507E+02 0.  0.
         11    1    3    3    0    0 -0.20985148666E+02  0.98289917783E+02  0.72788900173E+02  0.12409475569E+03  0.00000000000E+00 0. -1.
        -11    1    3    3    0    0 -0.50396713260E+02  0.45073488336E+03  0.11347634929E+03  0.46752395194E+03  0.00000000000E+00 0.  1.
         22    1    1    2    0    0  0.71381861926E+02 -0.54902480115E+03  0.37409237177E+02  0.55490814872E+03  0.00000000000E+00 0. -1.
<mgrwt>
<rscale>  0 0.11244970E+04</rscale>
<asrwt>0</asrwt>
<pdfrwt beam="1">  1        2 0.10540010E+00 0.11244970E+04</pdfrwt>
<pdfrwt beam="2">  1       -2 0.70988644E-01 0.11244970E+04</pdfrwt>
<totfact> 0.75290835E+01</totfact>
</mgrwt>
</event>
<event>
 6    1  0.1762360E-005  0.2281588E+04  0.7818608E-02  0.8485216E-01
          2   -1    0    0  501    0  0.00000000000E+00  0.00000000000E+00  0.11990433231E+04  0.11990433231E+04  0.00000000000E+00 0. -1.
         -2   -1    0    0    0  501 -0.00000000000E+00 -0.00000000000E+00 -0.10853747063E+04  0.10853747063E+04  0.00000000000E+00 0.  1.
         23    2    1    2    0    0 -0.33370732639E+02 -0.69757669258E+03  0.95768647567E+03  0.11889304696E+04  0.93088280403E+02 0.  0.
         13    1    3    3    0    0  0.32528164647E+02 -0.20170358870E+03  0.28041309986E+03  0.34694945707E+03  0.00000000000E+00 0. -1.
        -13    1    3    3    0    0 -0.65898897286E+02 -0.49587310388E+03  0.67727337581E+03  0.84198101249E+03  0.00000000000E+00 0.  1.
         22    1    1    2    0    0  0.33370732639E+02  0.69757669258E+03 -0.84401785883E+03  0.10954875599E+04  0.00000000000E+00 0.  1.
<mgrwt>
<rscale>  0 0.22815883E+04</rscale>
<asrwt>0</asrwt>
<pdfrwt beam="1">  1        2 0.18446820E+00 0.22815883E+04</pdfrwt>
<pdfrwt beam="2">  1       -2 0.16698072E+00 0.22815883E+04</pdfrwt>
<totfact> 0.38577151E+00</totfact>
</mgrwt>
</event>
<event>
 6    1  0.1762360E-005  0.1874249E+04  0.7818608E-02  0.8667782E-01
          2   -1    0    0  501    0  0.00000000000E+00  0.00000000000E+00  0.48530880913E+03  0.48530880913E+03  0.00000000000E+00 0. -1.
         -2   -1    0    0    0  501 -0.00000000000E+00 -0.00000000000E+00 -0.18095738773E+04  0.18095738773E+04  0.00000000000E+00 0.  1.
         23    2    1    2    0    0 -0.83212108263E+03  0.27213203492E+03 -0.26030336250E+03  0.91702353117E+03  0.81810608141E+02 0.  0.
         13    1    3    3    0    0 -0.49431214076E+03  0.11927684538E+03 -0.15371624030E+03  0.53122513201E+03  0.00000000000E+00 0. -1.
        -13    1    3    3    0    0 -0.33780894187E+03  0.15285518954E+03 -0.10658712221E+03  0.38579839916E+03  0.00000000000E+00 0.  1.
         22    1    1    2    0    0  0.83212108263E+03 -0.27213203492E+03 -0.10639617056E+04  0.13778591552E+04  0.00000000000E+00 0.  1.
<mgrwt>
<rscale>  0 0.18742488E+04</rscale>
<asrwt>0</asrwt>
<pdfrwt beam="1">  1        2 0.74662894E-01 0.18742488E+04</pdfrwt>
<pdfrwt beam="2">  1       -2 0.27839598E+00 0.18742488E+04</pdfrwt>
<totfact> 0.25787282E+00</totfact>
</mgrwt>
</event>
<event>
 6    1  0.1762360E-005  0.3410176E+04  0.7818608E-02  0.8135413E-01
          1   -1    0    0  501    0  0.00000000000E+00  0.00000000000E+00  0.30271027644E+04  0.30271027644E+04  0.00000000000E+00 0. -1.
         -1   -1    0    0    0  501 -0.00000000000E+00 -0.00000000000E+00 -0.96043140459E+03  0.96043140459E+03  0.00000000000E+00 0.  1.
         23    2    1    2    0    0 -0.15794302188E+04 -0.21576790824E+03  0.33052530673E+03  0.16305533197E+04  0.91112806543E+02 0.  0.
         11    1    3    3    0    0 -0.85471498684E+03 -0.11219346935E+03  0.22482966035E+03  0.89088352744E+03  0.00000000000E+00 0. -1.
        -11    1    3    3    0    0 -0.72471523200E+03 -0.10357443889E+03  0.10569564638E+03  0.73966979224E+03  0.00000000000E+00 0.  1.
         22    1    1    2    0    0  0.15794302188E+04  0.21576790824E+03  0.17361460531E+04  0.23569808493E+04  0.00000000000E+00 0. -1.
<mgrwt>
<rscale>  0 0.34101757E+04</rscale>
<asrwt>0</asrwt>
<pdfrwt beam="1">  1        1 0.46570811E+00 0.34101757E+04</pdfrwt>
<pdfrwt beam="2">  1       -1 0.14775868E+00 0.34101757E+04</pdfrwt>
<totfact> 0.17040784E-01</totfact>
</mgrwt>
</event>
<event>
 6    1  0.1762360E-005  0.3525078E+04  0.7818608E-02  0.8107872E-01
         -2   -1    0    0    0  501 -0.00000000000E+00  0.00000000000E+00  0.11289549034E+04  0.11289549034E+04  0.00000000000E+00 0.  1.
          2   -1    0    0  501    0  0.00000000000E+00 -0.00000000000E+00 -0.27516988686E+04  0.27516988686E+04  0.00000000000E+00 0. -1.
         23    2    1    2    0    0 -0.15842325566E+04 -0.16438572420E+03 -0.16396465501E+04  0.22878257345E+04  0.94288507220E+02 0.  0.
         13    1    3    3    0    0 -0.10574544399E+04 -0.97976245563E+02 -0.10307363344E+04  0.14799414273E+04  0.00000000000E+00 0.  1.
        -13    1    3    3    0    0 -0.52677811661E+03 -0.66409478641E+02 -0.60891021568E+03  0.80788430715E+03  0.00000000000E+00 0. -1.
         22    1    1    2    0    0  0.15842325566E+04  0.16438572420E+03  0.16902584834E+02  0.15928280375E+04  0.00000000000E+00 0.  1.
<mgrwt>
<rscale>  0 0.35250781E+04</rscale>
<asrwt>0</asrwt>
<pdfrwt beam="1">  1        2 0.42333828E+00 0.35250781E+04</pdfrwt>
<pdfrwt beam="2">  1       -2 0.17368537E+00 0.35250781E+04</pdfrwt>
<totfact> 0.40686711E-01</totfact>
</mgrwt>
</event>
<event>
 6    1  0.1762360E-005  0.1985907E+04  0.7818608E-02  0.8613238E-01
         -4   -1    0    0    0  501 -0.00000000000E+00  0.00000000000E+00  0.10146723937E+04  0.10146723937E+04  0.00000000000E+00 0.  1.
          4   -1    0    0  501    0  0.00000000000E+00 -0.00000000000E+00 -0.97169940208E+03  0.97169940208E+03  0.00000000000E+00 0. -1.
         23    2    1    2    0    0 -0.53070213696E+03  0.42028850254E+03 -0.70234396983E+03  0.97950310695E+03  0.88612081699E+02 0.  0.
         11    1    3    3    0    0 -0.35458884699E+03  0.27068344488E+03 -0.52010683383E+03  0.68521084079E+03  0.00000000000E+00 0.  1.
        -11    1    3    3    0    0 -0.17611328997E+03  0.14960505767E+03 -0.18223713600E+03  0.29429226616E+03  0.00000000000E+00 0. -1.
         22    1    1    2    0    0  0.53070213696E+03 -0.42028850254E+03  0.74531696146E+03  0.10068686889E+04  0.00000000000E+00 0.  1.
<mgrwt>
<rscale>  0 0.19859069E+04</rscale>
<asrwt>0</asrwt>
<pdfrwt beam="1">  1        4 0.14949221E+00 0.19859069E+04</pdfrwt>
<pdfrwt beam="2">  1       -4 0.15610345E+00 0.19859069E+04</pdfrwt>
<totfact> 0.14966596E-01</totfact>
</mgrwt>
</event>
<event>
 6    1  0.1762360E-005  0.2463224E+04  0.7818608E-02  0.8416205E-01
         -1   -1    0    0    0  501 -0.00000000000E+00  0.00000000000E+00  0.15441461755E+04  0.15441461755E+04  0.00000000000E+00 0.  1.
          1   -1    0    0  501    0  0.00000000000E+00 -0.00000000000E+00 -0.98233485715E+03  0.98233485715E+03  0.00000000000E+00 0. -1.
         23    2    1    2    0    0  0.70265778719E+03  0.64224788316E+03  0.10800656867E+04  0.14426000892E+04  0.91339039925E+02 0.  0.
         13    1    3    3    0    0  0.65375619399E+03  0.62255717059E+03  0.10057253383E+04  0.13514651486E+04  0.00000000000E+00 0.  1.
        -13    1    3    3    0    0  0.48901593207E+02  0.19690712566E+02  0.74340348424E+02  0.91134940519E+02  0.00000000000E+00 0. -1.
         22    1    1    2    0    0 -0.70265778719E+03 -0.64224788316E+03 -0.51825436840E+03  0.10838809435E+04  0.00000000000E+00 0. -1.
<mgrwt>
<rscale>  0 0.24632244E+04</rscale>
<asrwt>0</asrwt>
<pdfrwt beam="1">  1        1 0.15112844E+00 0.24632244E+04</pdfrwt>
<pdfrwt beam="2">  1       -1 0.23756095E+00 0.24632244E+04</pdfrwt>
<totfact> 0.11712679E+00</totfact>
</mgrwt>
</event>
<event>
 6    1  0.1762360E-005  0.1830825E+04  0.7818608E-02  0.8690077E-01
          2   -1    0    0  501    0  0.00000000000E+00  0.00000000000E+00  0.13955525167E+04  0.13955525167E+04  0.00000000000E+00 0. -1.
         -2   -1    0    0    0  501 -0.00000000000E+00 -0.00000000000E+00 -0.60046481251E+03  0.60046481251E+03  0.00000000000E+00 0.  1.
         23    2    1    2    0    0  0.32284779386E+03  0.84281089844E+03  0.24630935103E+03  0.93974151796E+03  0.88797047578E+02 0.  0.
         13    1    3    3    0    0  0.18249053152E+03  0.35408783395E+03  0.11363841987E+03  0.41423988065E+03  0.00000000000E+00 0.  1.
        -13    1    3    3    0    0  0.14035726235E+03  0.48872306448E+03  0.13267093116E+03  0.52550163732E+03  0.00000000000E+00 0. -1.
         22    1    1    2    0    0 -0.32284779386E+03 -0.84281089844E+03  0.54877835314E+03  0.10562758112E+04  0.00000000000E+00 0. -1.
<mgrwt>
<rscale>  0 0.18308251E+04</rscale>
<asrwt>0</asrwt>
<pdfrwt beam="1">  1        2 0.21470039E+00 0.18308251E+04</pdfrwt>
<pdfrwt beam="2">  1       -2 0.92379202E-01 0.18308251E+04</pdfrwt>
<totfact> 0.13638298E+01</totfact>
</mgrwt>
</event>
<event>
 6    1  0.1762360E-005  0.1666870E+04  0.7818608E-02  0.8780489E-01
         -2   -1    0    0    0  501 -0.00000000000E+00  0.00000000000E+00  0.10311099285E+04  0.10311099285E+04  0.00000000000E+00 0.  1.
          2   -1    0    0  501    0  0.00000000000E+00 -0.00000000000E+00 -0.67365643092E+03  0.67365643092E+03  0.00000000000E+00 0. -1.
         23    2    1    2    0    0 -0.44777384743E+03 -0.26021606463E+03  0.84381517277E+03  0.99430066868E+03  0.91629445129E+02 0.  0.
         11    1    3    3    0    0 -0.35672600302E+03 -0.17136438586E+03  0.59076160415E+03  0.71106853883E+03  0.00000000000E+00 0. -1.
        -11    1    3    3    0    0 -0.91047844407E+02 -0.88851678773E+02  0.25305356861E+03  0.28323212985E+03  0.00000000000E+00 0.  1.
         22    1    1    2    0    0  0.44777384743E+03  0.26021606463E+03 -0.48636167514E+03  0.71046569078E+03  0.00000000000E+00 0. -1.
<mgrwt>
<rscale>  0 0.16668699E+04</rscale>
<asrwt>0</asrwt>
<pdfrwt beam="1">  1        2 0.10363945E+00 0.16668699E+04</pdfrwt>
<pdfrwt beam="2">  1       -2 0.15863230E+00 0.16668699E+04</pdfrwt>
<totfact> 0.10571050E+01</totfact>
</mgrwt>
</event>
<event>
 6    1  0.1762360E-005  0.4826573E+03  0.7818608E-02  0.1018407E+00
         -1   -1    0    0    0  501 -0.00000000000E+00  0.00000000000E+00  0.16293539146E+03  0.16293539146E+03  0.00000000000E+00 0.  1.
          1   -1    0    0  501    0  0.00000000000E+00 -0.00000000000E+00 -0.35743939578E+03  0.35743939578E+03  0.00000000000E+00 0. -1.
         23    2    1    2    0    0 -0.17335868556E+03 -0.14216905034E+03 -0.16749833665E+03  0.29455499443E+03  0.91878611389E+02 0.  0.
         11    1    3    3    0    0 -0.33605413711E+02 -0.82935328305E+02 -0.75363354419E+02  0.11699242583E+03  0.00000000000E+00 0. -1.
        -11    1    3    3    0    0 -0.13975327185E+03 -0.59233722038E+02 -0.92134982227E+02  0.17756256861E+03  0.00000000000E+00 0.  1.
         22    1    1    2    0    0  0.17335868556E+03  0.14216905034E+03 -0.27005667668E+02  0.22581979280E+03  0.00000000000E+00 0. -1.
<mgrwt>
<rscale>  0 0.48265734E+03</rscale>
<asrwt>0</asrwt>
<pdfrwt beam="1">  1        1 0.54990676E-01 0.48265734E+03</pdfrwt>
<pdfrwt beam="2">  1       -1 0.25066983E-01 0.48265734E+03</pdfrwt>
<totfact> 0.97382705E+02</totfact>
</mgrwt>
</event>
<event>
 6    1  0.1762360E-005  0.7792785E+03  0.7818608E-02  0.9590505E-01
         -2   -1    0    0    0  501 -0.00000000000E+00  0.00000000000E+00  0.15158481874E+03  0.15158481874E+03  0.00000000000E+00 0.  1.
          2   -1    0    0  501    0  0.00000000000E+00 -0.00000000000E+00 -0.10015431590E+04  0.10015431590E+04  0.00000000000E+00 0. -1.
         23    2    1    2    0    0 -0.36364480787E+03 -0.11276588228E+03 -0.35380771125E+03  0.52773279295E+03  0.91478487720E+02 0.  0.
         13    1    3    3    0    0 -0.23221694158E+03 -0.11598515206E+03 -0.22179515221E+03  0.34142400764E+03  0.00000000000E+00 0. -1.
        -13    1    3    3    0    0 -0.13142786629E+03  0.32192697774E+01 -0.13201255904E+03  0.18630878530E+03  0.00000000000E+00 0.  1.
         22    1    1    2    0    0  0.36364480787E+03  0.11276588228E+03 -0.49615062903E+03  0.62539518481E+03  0.00000000000E+00 0.  1.
<mgrwt>
<rscale>  0 0.77927848E+03</rscale>
<asrwt>0</asrwt>
<pdfrwt beam="1">  1        2 0.15408356E+00 0.77927848E+03</pdfrwt>
<pdfrwt beam="2">  1       -2 0.23320742E-01 0.77927848E+03</pdfrwt>
<totfact> 0.41048190E+02</totfact>
</mgrwt>
</event>
<event>
 6    1  0.1762360E-005  0.9213817E+03  0.7818608E-02  0.9399241E-01
         -2   -1    0    0    0  501 -0.00000000000E+00  0.00000000000E+00  0.16500009669E+03  0.16500009669E+03  0.00000000000E+00 0.  1.
          2   -1    0    0  501    0  0.00000000000E+00 -0.00000000000E+00 -0.12862783245E+04  0.12862783245E+04  0.00000000000E+00 0. -1.
         23    2    1    2    0    0 -0.18520576223E+03  0.35785130554E+03 -0.90311679739E+03  0.99307198193E+03  0.90627150048E+02 0.  0.
         11    1    3    3    0    0 -0.12874462772E+03  0.31995505632E+03 -0.76299982976E+03  0.83732619537E+03  0.00000000000E+00 0.  1.
        -11    1    3    3    0    0 -0.56461134502E+02  0.37896249219E+02 -0.14011696763E+03  0.15574578657E+03  0.00000000000E+00 0. -1.
         22    1    1    2    0    0  0.18520576223E+03 -0.35785130554E+03 -0.21816143039E+03  0.45820643923E+03  0.00000000000E+00 0. -1.
<mgrwt>
<rscale>  0 0.92138168E+03</rscale>
<asrwt>0</asrwt>
<pdfrwt beam="1">  1        2 0.19788898E+00 0.92138168E+03</pdfrwt>
<pdfrwt beam="2">  1       -2 0.25384630E-01 0.92138168E+03</pdfrwt>
<totfact> 0.23507521E+02</totfact>
</mgrwt>
</event>
<event>
 6    1  0.1762360E-005  0.4429062E+04  0.7818608E-02  0.7923175E-01
          2   -1    0    0  501    0  0.00000000000E+00  0.00000000000E+00  0.37560193115E+04  0.37560193115E+04  0.00000000000E+00 0.  1.
         -2   -1    0    0    0  501 -0.00000000000E+00 -0.00000000000E+00 -0.13056767966E+04  0.13056767966E+04  0.00000000000E+00 0. -1.
         23    2    1    2    0    0 -0.20205237218E+04 -0.83980707577E+02  0.22548252096E+04  0.30299983239E+04  0.84167968009E+02 0.  0.
         11    1    3    3    0    0 -0.15615469778E+04 -0.54602747969E+02  0.16905513034E+04  0.23020369531E+04  0.00000000000E+00 0. -1.
        -11    1    3    3    0    0 -0.45897674404E+03 -0.29377959608E+02  0.56427390622E+03  0.72796137077E+03  0.00000000000E+00 0.  1.
         22    1    1    2    0    0  0.20205237218E+04  0.83980707577E+02  0.19551730521E+03  0.20316977842E+04  0.00000000000E+00 0. -1.
<mgrwt>
<rscale>  0 0.44290619E+04</rscale>
<asrwt>0</asrwt>
<pdfrwt beam="1">  1        2 0.57784912E+00 0.44290619E+04</pdfrwt>
<pdfrwt beam="2">  1       -2 0.20087335E+00 0.44290619E+04</pdfrwt>
<totfact> 0.52878991E-02</totfact>
</mgrwt>
</event>
<event>
 6    1  0.1762360E-005  0.1387366E+04  0.7818608E-02  0.8963015E-01
          2   -1    0    0  501    0  0.00000000000E+00  0.00000000000E+00  0.81067568875E+03  0.81067568875E+03  0.00000000000E+00 0. -1.
         -2   -1    0    0    0  501 -0.00000000000E+00 -0.00000000000E+00 -0.59357425245E+03  0.59357425245E+03  0.00000000000E+00 0.  1.
         23    2    1    2    0    0 -0.37806091790E+02  0.27223361401E+03  0.75039773862E+03  0.80429545356E+03  0.90851358391E+02 0.  0.
         11    1    3    3    0    0 -0.16509024420E+02  0.11452203780E+03  0.19696780028E+03  0.22843852428E+03  0.00000000000E+00 0. -1.
        -11    1    3    3    0    0 -0.21297067369E+02  0.15771157621E+03  0.55342993834E+03  0.57585692928E+03  0.00000000000E+00 0.  1.
         22    1    1    2    0    0  0.37806091790E+02 -0.27223361401E+03 -0.53329630232E+03  0.59995448764E+03  0.00000000000E+00 0.  1.
<mgrwt>
<rscale>  0 0.13873662E+04</rscale>
<asrwt>0</asrwt>
<pdfrwt beam="1">  1        2 0.12471934E+00 0.13873662E+04</pdfrwt>
<pdfrwt beam="2">  1       -2 0.91319116E-01 0.13873662E+04</pdfrwt>
<totfact> 0.33697968E+01</totfact>
</mgrwt>
</event>
<event>
 6    1  0.1762360E-005  0.7803038E+03  0.7818608E-02  0.9588972E-01
         -2   -1    0    0    0  501 -0.00000000000E+00  0.00000000000E+00  0.14605319197E+03  0.14605319197E+03  0.00000000000E+00 0.  1.
          2   -1    0    0  501    0  0.00000000000E+00 -0.00000000000E+00 -0.10422128697E+04  0.10422128697E+04  0.00000000000E+00 0. -1.
         23    2    1    2    0    0  0.22843201038E+03  0.19980346134E+03 -0.92527504135E+02  0.32923912556E+03  0.87945757431E+02 0.  0.
         13    1    3    3    0    0  0.13467760162E+03  0.15273225456E+03 -0.94096789629E+02  0.22431986934E+03  0.00000000000E+00 0.  1.
        -13    1    3    3    0    0  0.93754408761E+02  0.47071206777E+02  0.15692854938E+01  0.10491925622E+03  0.00000000000E+00 0. -1.
         22    1    1    2    0    0 -0.22843201038E+03 -0.19980346134E+03 -0.80363217359E+03  0.85902693610E+03  0.00000000000E+00 0. -1.
<mgrwt>
<rscale>  0 0.78030383E+03</rscale>
<asrwt>0</asrwt>
<pdfrwt beam="1">  1        2 0.16034044E+00 0.78030383E+03</pdfrwt>
<pdfrwt beam="2">  1       -2 0.22469722E-01 0.78030383E+03</pdfrwt>
<totfact> 0.41336493E+02</totfact>
</mgrwt>
</event>
<event>
 6    1  0.1762360E-005  0.3359932E+04  0.7818608E-02  0.8147811E-01
          1   -1    0    0  501    0  0.00000000000E+00  0.00000000000E+00  0.26509361938E+04  0.26509361938E+04  0.00000000000E+00 0. -1.
         -1   -1    0    0    0  501 -0.00000000000E+00 -0.00000000000E+00 -0.10646372408E+04  0.10646372408E+04  0.00000000000E+00 0.  1.
         23    2    1    2    0    0 -0.92770635637E+03 -0.12148195263E+04  0.26243415837E+02  0.15314949460E+04  0.91446638036E+02 0.  0.
         13    1    3    3    0    0 -0.29653968115E+03 -0.32500221501E+03  0.22878511444E+02  0.44055152768E+03  0.00000000000E+00 0.  1.
        -13    1    3    3    0    0 -0.63116667522E+03 -0.88981731128E+03  0.33649043925E+01  0.10909434183E+04  0.00000000000E+00 0. -1.
         22    1    1    2    0    0  0.92770635637E+03  0.12148195263E+04  0.15600555371E+04  0.21840784885E+04  0.00000000000E+00 0. -1.
<mgrwt>
<rscale>  0 0.33599318E+04</rscale>
<asrwt>0</asrwt>
<pdfrwt beam="1">  1        1 0.40783633E+00 0.33599318E+04</pdfrwt>
<pdfrwt beam="2">  1       -1 0.16379035E+00 0.33599318E+04</pdfrwt>
<totfact> 0.23993979E-01</totfact>
</mgrwt>
</event>
<event>
 6    1  0.1762360E-005  0.1266196E+04  0.7818608E-02  0.9056810E-01
         -1   -1    0    0    0  501 -0.00000000000E+00  0.00000000000E+00  0.41826708425E+03  0.41826708425E+03  0.00000000000E+00 0.  1.
          1   -1    0    0  501    0  0.00000000000E+00 -0.00000000000E+00 -0.95827030074E+03  0.95827030074E+03  0.00000000000E+00 0. -1.
         23    2    1    2    0    0  0.14693525546E+03 -0.37205140747E+03  0.25757644647E+03  0.48426750549E+03  0.90317063780E+02 0.  0.
         11    1    3    3    0    0  0.75236656420E+02 -0.13965403394E+03  0.15003947567E+03  0.21834753932E+03  0.00000000000E+00 0. -1.
        -11    1    3    3    0    0  0.71698599039E+02 -0.23239737352E+03  0.10753697079E+03  0.26591996618E+03  0.00000000000E+00 0.  1.
         22    1    1    2    0    0 -0.14693525546E+03  0.37205140747E+03 -0.79757966296E+03  0.89226987950E+03  0.00000000000E+00 0. -1.
<mgrwt>
<rscale>  0 0.12661958E+04</rscale>
<asrwt>0</asrwt>
<pdfrwt beam="1">  1        1 0.14742620E+00 0.12661958E+04</pdfrwt>
<pdfrwt beam="2">  1       -1 0.64348783E-01 0.12661958E+04</pdfrwt>
<totfact> 0.39381555E+01</totfact>
</mgrwt>
</event>
<event>
 6    1  0.1762360E-005  0.3129874E+04  0.7818608E-02  0.8207587E-01
          2   -1    0    0  501    0  0.00000000000E+00  0.00000000000E+00  0.20272152473E+04  0.20272152473E+04  0.00000000000E+00 0. -1.
         -2   -1    0    0    0  501 -0.00000000000E+00 -0.00000000000E+00 -0.12080751021E+04  0.12080751021E+04  0.00000000000E+00 0.  1.
         23    2    1    2    0    0 -0.12474730864E+04 -0.22808460692E+03 -0.53553395150E+03  0.13796628012E+04  0.91984470029E+02 0.  0.
         11    1    3    3    0    0 -0.79780038054E+03 -0.17012400917E+03 -0.30371360380E+03  0.87044217431E+03  0.00000000000E+00 0.  1.
        -11    1    3    3    0    0 -0.44967270582E+03 -0.57960597751E+02 -0.23182034771E+03  0.50922062690E+03  0.00000000000E+00 0. -1.
         22    1    1    2    0    0  0.12474730864E+04  0.22808460692E+03  0.13546740967E+04  0.18556275481E+04  0.00000000000E+00 0. -1.
<mgrwt>
<rscale>  0 0.31298743E+04</rscale>
<asrwt>0</asrwt>
<pdfrwt beam="1">  1        2 0.31187927E+00 0.31298743E+04</pdfrwt>
<pdfrwt beam="2">  1       -2 0.18585771E+00 0.31298743E+04</pdfrwt>
<totfact> 0.90343046E-01</totfact>
</mgrwt>
</event>
<event>
 6    1  0.1762360E-005  0.2925686E+04  0.7818608E-02  0.8265276E-01
          1   -1    0    0  501    0  0.00000000000E+00  0.00000000000E+00  0.23718285246E+04  0.23718285246E+04  0.00000000000E+00 0. -1.
         -1   -1    0    0    0  501 -0.00000000000E+00 -0.00000000000E+00 -0.90221918237E+03  0.90221918237E+03  0.00000000000E+00 0.  1.
         23    2    1    2    0    0 -0.87362090085E+03 -0.84326458068E+03 -0.17471175064E+03  0.12300074706E+04  0.89919689300E+02 0.  0.
         13    1    3    3    0    0 -0.62059285905E+03 -0.65309109463E+03 -0.12287929732E+03  0.90926497584E+03  0.00000000000E+00 0.  1.
        -13    1    3    3    0    0 -0.25302804180E+03 -0.19017348605E+03 -0.51832453321E+02  0.32074249477E+03  0.00000000000E+00 0. -1.
         22    1    1    2    0    0  0.87362090085E+03  0.84326458068E+03  0.16443210929E+04  0.20440402364E+04  0.00000000000E+00 0. -1.
<mgrwt>
<rscale>  0 0.29256857E+04</rscale>
<asrwt>0</asrwt>
<pdfrwt beam="1">  1        1 0.36489669E+00 0.29256857E+04</pdfrwt>
<pdfrwt beam="2">  1       -1 0.13880295E+00 0.29256857E+04</pdfrwt>
<totfact> 0.60975978E-01</totfact>
</mgrwt>
</event>
<event>
 6    1  0.1762360E-005  0.7604753E+03  0.7818608E-02  0.9619058E-01
          1   -1    0    0  501    0  0.00000000000E+00  0.00000000000E+00  0.42169714909E+03  0.42169714909E+03  0.00000000000E+00 0. -1.
         -1   -1    0    0    0  501 -0.00000000000E+00 -0.00000000000E+00 -0.34285428795E+03  0.34285428795E+03  0.00000000000E+00 0.  1.
         23    2    1    2    0    0 -0.32091040501E+03 -0.12476187621E+03  0.18594306622E+03  0.40396931363E+03  0.10033627799E+03 0.  0.
         11    1    3    3    0    0 -0.83510349336E+02 -0.13967614835E+02  0.93540525887E+02  0.12617013392E+03  0.00000000000E+00 0.  1.
        -11    1    3    3    0    0 -0.23740005567E+03 -0.11079426137E+03  0.92402540330E+02  0.27779917971E+03  0.00000000000E+00 0. -1.
         22    1    1    2    0    0  0.32091040501E+03  0.12476187621E+03 -0.10710020507E+03  0.36058212341E+03  0.00000000000E+00 0.  1.
<mgrwt>
<rscale>  0 0.76047531E+03</rscale>
<asrwt>0</asrwt>
<pdfrwt beam="1">  1        1 0.64876484E-01 0.76047531E+03</pdfrwt>
<pdfrwt beam="2">  1       -1 0.52746814E-01 0.76047531E+03</pdfrwt>
<totfact> 0.20510633E+02</totfact>
</mgrwt>
</event>
<event>
 6    1  0.1762360E-005  0.3028854E+04  0.7818608E-02  0.8235539E-01
          2   -1    0    0  501    0  0.00000000000E+00  0.00000000000E+00  0.13083667258E+04  0.13083667258E+04  0.00000000000E+00 0. -1.
         -2   -1    0    0    0  501 -0.00000000000E+00 -0.00000000000E+00 -0.17529405960E+04  0.17529405960E+04  0.00000000000E+00 0.  1.
         23    2    1    2    0    0  0.13375466866E+04  0.33495468472E+03  0.40714356699E+03  0.14406135284E+04  0.91518710308E+02 0.  0.
         11    1    3    3    0    0  0.51464064521E+03  0.15369642083E+03  0.19780418375E+03  0.57236708377E+03  0.00000000000E+00 0. -1.
        -11    1    3    3    0    0  0.82290604136E+03  0.18125826390E+03  0.20933938324E+03  0.86824644458E+03  0.00000000000E+00 0.  1.
         22    1    1    2    0    0 -0.13375466866E+04 -0.33495468472E+03 -0.85171743717E+03  0.16206937935E+04  0.00000000000E+00 0.  1.
<mgrwt>
<rscale>  0 0.30288540E+04</rscale>
<asrwt>0</asrwt>
<pdfrwt beam="1">  1        2 0.20128719E+00 0.30288540E+04</pdfrwt>
<pdfrwt beam="2">  1       -2 0.26968317E+00 0.30288540E+04</pdfrwt>
<totfact> 0.67960340E-01</totfact>
</mgrwt>
</event>
<event>
 6    1  0.1835432E-005  0.2832136E+04  0.7818608E-02  0.8293360E-01
          2   -1    0    0  501    0  0.00000000000E+00  0.00000000000E+00  0.19610525620E+04  0.19610525620E+04  0.00000000000E+00 0.  1.
         -2   -1    0    0    0  501 -0.00000000000E+00 -0.00000000000E+00 -0.10225371145E+04  0.10225371145E+04  0.00000000000E+00 0. -1.
         23    2    1    2    0    0  0.14503745011E+03 -0.12766802345E+04 -0.15361437031E+03  0.12972635450E+04  0.91362177086E+02 0.  0.
         11    1    3    3    0    0  0.16512983735E+02 -0.27390396995E+03 -0.67771468706E+02  0.28264648478E+03  0.00000000000E+00 0. -1.
        -11    1    3    3    0    0  0.12852446638E+03 -0.10027762645E+04 -0.85842901602E+02  0.10146170602E+04  0.00000000000E+00 0.  1.
         22    1    1    2    0    0 -0.14503745011E+03  0.12766802345E+04  0.10921298178E+04  0.16863261315E+04  0.00000000000E+00 0.  1.
<mgrwt>
<rscale>  0 0.28321363E+04</rscale>
<asrwt>0</asrwt>
<pdfrwt beam="1">  1        2 0.30170039E+00 0.28321363E+04</pdfrwt>
<pdfrwt beam="2">  1       -2 0.15731340E+00 0.28321363E+04</pdfrwt>
<totfact> 0.16077410E+00</totfact>
</mgrwt>
</event>
<event>
 6    1  0.1762360E-005  0.1272279E+04  0.7818608E-02  0.9051842E-01
          2   -1    0    0  501    0  0.00000000000E+00  0.00000000000E+00  0.14620348980E+04  0.14620348980E+04  0.00000000000E+00 0. -1.
         -2   -1    0    0    0  501 -0.00000000000E+00 -0.00000000000E+00 -0.27678772046E+03  0.27678772046E+03  0.00000000000E+00 0.  1.
         23    2    1    2    0    0 -0.28967553949E+03  0.48176623286E+03  0.19832806559E+03  0.60303216471E+03  0.91121615218E+02 0.  0.
         11    1    3    3    0    0 -0.49577388184E+02  0.15975845361E+03  0.46374107064E+02  0.17358352089E+03  0.00000000000E+00 0. -1.
        -11    1    3    3    0    0 -0.24009815131E+03  0.32200777925E+03  0.15195395853E+03  0.42944864382E+03  0.00000000000E+00 0.  1.
         22    1    1    2    0    0  0.28967553949E+03 -0.48176623286E+03  0.98691911200E+03  0.11357904538E+04  0.00000000000E+00 0. -1.
<mgrwt>
<rscale>  0 0.12722788E+04</rscale>
<asrwt>0</asrwt>
<pdfrwt beam="1">  1        2 0.22492844E+00 0.12722788E+04</pdfrwt>
<pdfrwt beam="2">  1       -2 0.42582727E-01 0.12722788E+04</pdfrwt>
<totfact> 0.68448099E+01</totfact>
</mgrwt>
</event>
<event>
 6    1  0.1762360E-005  0.1624571E+04  0.7818608E-02  0.8805594E-01
          1   -1    0    0  501    0  0.00000000000E+00  0.00000000000E+00  0.76505539367E+03  0.76505539367E+03  0.00000000000E+00 0.  1.
         -1   -1    0    0    0  501 -0.00000000000E+00 -0.00000000000E+00 -0.86243162770E+03  0.86243162770E+03  0.00000000000E+00 0. -1.
         23    2    1    2    0    0 -0.27558336926E+03 -0.12858655124E+03  0.70303770127E+03  0.77124922589E+03  0.89903639855E+02 0.  0.
         13    1    3    3    0    0 -0.71314877881E+02 -0.42474391830E+02  0.29999117698E+03  0.31126289858E+03  0.00000000000E+00 0. -1.
        -13    1    3    3    0    0 -0.20426849138E+03 -0.86112159411E+02  0.40304652429E+03  0.45998632731E+03  0.00000000000E+00 0.  1.
         22    1    1    2    0    0  0.27558336926E+03  0.12858655124E+03 -0.80041393530E+03  0.85623779548E+03  0.00000000000E+00 0. -1.
<mgrwt>
<rscale>  0 0.16245713E+04</rscale>
<asrwt>0</asrwt>
<pdfrwt beam="1">  1        1 0.11770083E+00 0.16245713E+04</pdfrwt>
<pdfrwt beam="2">  1       -1 0.13268179E+00 0.16245713E+04</pdfrwt>
<totfact> 0.10948607E+01</totfact>
</mgrwt>
</event>
<event>
 6    1  0.1762360E-005  0.3524995E+04  0.7818608E-02  0.8107892E-01
         -2   -1    0    0    0  501 -0.00000000000E+00  0.00000000000E+00  0.71828120987E+03  0.71828120987E+03  0.00000000000E+00 0. -1.
          2   -1    0    0  501    0  0.00000000000E+00 -0.00000000000E+00 -0.43247655810E+04  0.43247655810E+04  0.00000000000E+00 0.  1.
         23    2    1    2    0    0  0.24173991941E+02  0.11631216237E+04 -0.36963738636E+04  0.38762064358E+04  0.91434675004E+02 0.  0.
         13    1    3    3    0    0  0.38637757347E+02  0.27283987702E+03 -0.80711615781E+03  0.85286046161E+03  0.00000000000E+00 0. -1.
        -13    1    3    3    0    0 -0.14463765406E+02  0.89028174665E+03 -0.28892577058E+04  0.30233459742E+04  0.00000000000E+00 0.  1.
         22    1    1    2    0    0 -0.24173991941E+02 -0.11631216237E+04  0.89889492516E+02  0.11668403551E+04  0.00000000000E+00 0. -1.
<mgrwt>
<rscale>  0 0.35249952E+04</rscale>
<asrwt>0</asrwt>
<pdfrwt beam="1">  1        2 0.66534855E+00 0.35249952E+04</pdfrwt>
<pdfrwt beam="2">  1       -2 0.11050480E+00 0.35249952E+04</pdfrwt>
<totfact> 0.95590847E-02</totfact>
</mgrwt>
</event>
<event>
 6    1  0.1762360E-005  0.3409750E+03  0.7818608E-02  0.1066381E+00
          1   -1    0    0  501    0  0.00000000000E+00  0.00000000000E+00  0.10377092418E+03  0.10377092418E+03  0.00000000000E+00 0. -1.
         -1   -1    0    0    0  501 -0.00000000000E+00 -0.00000000000E+00 -0.28009767493E+03  0.28009767493E+03  0.00000000000E+00 0.  1.
         23    2    1    2    0    0 -0.34827919954E+02  0.12303455680E+03  0.10269391116E+02  0.15766381063E+03  0.91662045662E+02 0.  0.
         13    1    3    3    0    0 -0.53012330417E+02  0.34768272196E+02 -0.12714600339E+02  0.64659113739E+02  0.00000000000E+00 0. -1.
        -13    1    3    3    0    0  0.18184410464E+02  0.88266284600E+02  0.22983991455E+02  0.93004696893E+02  0.00000000000E+00 0.  1.
         22    1    1    2    0    0  0.34827919954E+02 -0.12303455680E+03 -0.18659614186E+03  0.22620478848E+03  0.00000000000E+00 0.  1.
<mgrwt>
<rscale>  0 0.34097504E+03</rscale>
<asrwt>0</asrwt>
<pdfrwt beam="1">  1        1 0.15964757E-01 0.34097504E+03</pdfrwt>
<pdfrwt beam="2">  1       -1 0.43091950E-01 0.34097504E+03</pdfrwt>
<totfact> 0.18582930E+03</totfact>
</mgrwt>
</event>
<event>
 6    1  0.1762360E-005  0.3570970E+04  0.7818608E-02  0.8097174E-01
          2   -1    0    0  501    0  0.00000000000E+00  0.00000000000E+00  0.11358885501E+04  0.11358885501E+04  0.00000000000E+00 0. -1.
         -2   -1    0    0    0  501 -0.00000000000E+00 -0.00000000000E+00 -0.28065748410E+04  0.28065748410E+04  0.00000000000E+00 0.  1.
         23    2    1    2    0    0  0.53007417081E+03  0.11211663173E+04 -0.22522893285E+04  0.25726989474E+04  0.89331501200E+02 0.  0.
         13    1    3    3    0    0  0.47646281611E+03  0.96666154124E+03 -0.20036396258E+04  0.22750874930E+04  0.00000000000E+00 0. -1.
        -13    1    3    3    0    0  0.53611354699E+02  0.15450477605E+03 -0.24864970268E+03  0.29761145445E+03  0.00000000000E+00 0.  1.
         22    1    1    2    0    0 -0.53007417081E+03 -0.11211663173E+04  0.58160303760E+03  0.13697644436E+04  0.00000000000E+00 0. -1.
<mgrwt>
<rscale>  0 0.35709697E+04</rscale>
<asrwt>0</asrwt>
<pdfrwt beam="1">  1        2 0.17475209E+00 0.35709697E+04</pdfrwt>
<pdfrwt beam="2">  1       -2 0.43178074E+00 0.35709697E+04</pdfrwt>
<totfact> 0.77449189E-02</totfact>
</mgrwt>
</event>
<event>
 6    1  0.1762360E-005  0.1147835E+04  0.7818608E-02  0.9159783E-01
         -1   -1    0    0    0  501 -0.00000000000E+00  0.00000000000E+00  0.28041514323E+03  0.28041514323E+03  0.00000000000E+00 0.  1.
          1   -1    0    0  501    0  0.00000000000E+00 -0.00000000000E+00 -0.11746196929E+04  0.11746196929E+04  0.00000000000E+00 0. -1.
         23    2    1    2    0    0 -0.33676094177E+03 -0.10451434909E+03 -0.10183942822E+04  0.10811976112E+04  0.86776606711E+02 0.  0.
         11    1    3    3    0    0 -0.22074829420E+02 -0.16715284206E+02 -0.16685056866E+03  0.16913252520E+03  0.00000000000E+00 0. -1.
        -11    1    3    3    0    0 -0.31468611235E+03 -0.87799064885E+02 -0.85154371354E+03  0.91206508604E+03  0.00000000000E+00 0.  1.
         22    1    1    2    0    0  0.33676094177E+03  0.10451434909E+03  0.12418973251E+03  0.37383722491E+03  0.00000000000E+00 0.  1.
<mgrwt>
<rscale>  0 0.11478347E+04</rscale>
<asrwt>0</asrwt>
<pdfrwt beam="1">  1        1 0.18071072E+00 0.11478347E+04</pdfrwt>
<pdfrwt beam="2">  1       -1 0.43140791E-01 0.11478347E+04</pdfrwt>
<totfact> 0.58670615E+01</totfact>
</mgrwt>
</event>
<event>
 6    1  0.1762360E-005  0.1982692E+04  0.7818608E-02  0.8614756E-01
         -2   -1    0    0    0  501 -0.00000000000E+00  0.00000000000E+00  0.47184626001E+03  0.47184626001E+03  0.00000000000E+00 0.  1.
          2   -1    0    0  501    0  0.00000000000E+00 -0.00000000000E+00 -0.20828117653E+04  0.20828117653E+04  0.00000000000E+00 0. -1.
         23    2    1    2    0    0  0.72579662862E+03 -0.38356632068E+03 -0.96043979304E+02  0.83161098637E+03  0.91915821288E+02 0.  0.
         11    1    3    3    0    0  0.28881210192E+03 -0.17512998103E+03 -0.80447198209E+02  0.34720986761E+03  0.00000000000E+00 0.  1.
        -11    1    3    3    0    0  0.43698452671E+03 -0.20843633966E+03 -0.15596781095E+02  0.48440111875E+03  0.00000000000E+00 0. -1.
         22    1    1    2    0    0 -0.72579662862E+03  0.38356632068E+03 -0.15149215260E+04  0.17230470389E+04  0.00000000000E+00 0. -1.
<mgrwt>
<rscale>  0 0.19826921E+04</rscale>
<asrwt>0</asrwt>
<pdfrwt beam="1">  1        2 0.32043258E+00 0.19826921E+04</pdfrwt>
<pdfrwt beam="2">  1       -2 0.72591732E-01 0.19826921E+04</pdfrwt>
<totfact> 0.95920086E+00</totfact>
</mgrwt>
</event>
<event>
 6    1  0.1762360E-005  0.1585163E+04  0.7818608E-02  0.8829715E-01
         -2   -1    0    0    0  501 -0.00000000000E+00  0.00000000000E+00  0.26293568223E+03  0.26293568223E+03  0.00000000000E+00 0.  1.
          2   -1    0    0  501    0  0.00000000000E+00 -0.00000000000E+00 -0.23891220664E+04  0.23891220664E+04  0.00000000000E+00 0. -1.
         23    2    1    2    0    0  0.54979230063E+03  0.49777964810E+03 -0.15223183840E+04  0.16956516040E+04  0.87891682933E+02 0.  0.
         13    1    3    3    0    0  0.31245984959E+03  0.27677416101E+03 -0.75694841265E+03  0.86441077806E+03  0.00000000000E+00 0. -1.
        -13    1    3    3    0    0  0.23733245103E+03  0.22100548709E+03 -0.76536997131E+03  0.83124082589E+03  0.00000000000E+00 0.  1.
         22    1    1    2    0    0 -0.54979230063E+03 -0.49777964810E+03 -0.60386800018E+03  0.95640614465E+03  0.00000000000E+00 0.  1.
<mgrwt>
<rscale>  0 0.15851630E+04</rscale>
<asrwt>0</asrwt>
<pdfrwt beam="1">  1        2 0.36755724E+00 0.15851630E+04</pdfrwt>
<pdfrwt beam="2">  1       -2 0.40451644E-01 0.15851630E+04</pdfrwt>
<totfact> 0.22435871E+01</totfact>
</mgrwt>
</event>
<event>
 6    1  0.1762360E-005  0.1847414E+04  0.7818608E-02  0.8681484E-01
          2   -1    0    0  501    0  0.00000000000E+00  0.00000000000E+00  0.13595664220E+04  0.13595664220E+04  0.00000000000E+00 0. -1.
         -2   -1    0    0    0  501 -0.00000000000E+00 -0.00000000000E+00 -0.62757872072E+03  0.62757872072E+03  0.00000000000E+00 0.  1.
         23    2    1    2    0    0  0.39584897688E+03  0.67849243074E+03 -0.15168971596E+03  0.80480248139E+03  0.87457835786E+02 0.  0.
         11    1    3    3    0    0  0.20620668992E+03  0.37732095580E+03 -0.40310069979E+02  0.43187637629E+03  0.00000000000E+00 0. -1.
        -11    1    3    3    0    0  0.18964228697E+03  0.30117147494E+03 -0.11137964598E+03  0.37292610510E+03  0.00000000000E+00 0.  1.
         22    1    1    2    0    0 -0.39584897688E+03 -0.67849243074E+03  0.88367741725E+03  0.11823426613E+04  0.00000000000E+00 0. -1.
<mgrwt>
<rscale>  0 0.18474144E+04</rscale>
<asrwt>0</asrwt>
<pdfrwt beam="1">  1        2 0.20916406E+00 0.18474144E+04</pdfrwt>
<pdfrwt beam="2">  1       -2 0.96550573E-01 0.18474144E+04</pdfrwt>
<totfact> 0.12885278E+01</totfact>
</mgrwt>
</event>
<event>
 6    1  0.1762360E-005  0.2856549E+04  0.7818608E-02  0.8285924E-01
         -2   -1    0    0    0  501 -0.00000000000E+00  0.00000000000E+00  0.76043139666E+03  0.76043139666E+03  0.00000000000E+00 0.  1.
          2   -1    0    0  501    0  0.00000000000E+00 -0.00000000000E+00 -0.26826450854E+04  0.26826450854E+04  0.00000000000E+00 0. -1.
         23    2    1    2    0    0 -0.37462513403E+03  0.84544714704E+03  0.34733646198E+03  0.99236581857E+03  0.94986475575E+02 0.  0.
         13    1    3    3    0    0 -0.96369174463E+02  0.32852976216E+03  0.11878503763E+03  0.36239302915E+03  0.00000000000E+00 0. -1.
        -13    1    3    3    0    0 -0.27825595957E+03  0.51691738488E+03  0.22855142436E+03  0.62997278942E+03  0.00000000000E+00 0.  1.
         22    1    1    2    0    0  0.37462513403E+03 -0.84544714704E+03 -0.22695501508E+04  0.24507106635E+04  0.00000000000E+00 0. -1.
<mgrwt>
<rscale>  0 0.28565487E+04</rscale>
<asrwt>0</asrwt>
<pdfrwt beam="1">  1        2 0.41271462E+00 0.28565487E+04</pdfrwt>
<pdfrwt beam="2">  1       -2 0.11698945E+00 0.28565487E+04</pdfrwt>
<totfact> 0.13313192E+00</totfact>
</mgrwt>
</event>
<event>
 6    1  0.1762360E-005  0.4866706E+04  0.7818608E-02  0.7849405E-01
         -2   -1    0    0    0  501 -0.00000000000E+00  0.00000000000E+00  0.22113856097E+04  0.22113856097E+04  0.00000000000E+00 0.  1.
          2   -1    0    0  501    0  0.00000000000E+00 -0.00000000000E+00 -0.26775997782E+04  0.26775997782E+04  0.00000000000E+00 0. -1.
         23    2    1    2    0    0 -0.14922608915E+04  0.15112886384E+04  0.95812485675E+03  0.23317256092E+04  0.90028655029E+02 0.  0.
         11    1    3    3    0    0 -0.98666662423E+03  0.99307944344E+03  0.67781921670E+03  0.15553638477E+04  0.00000000000E+00 0.  1.
        -11    1    3    3    0    0 -0.50559426730E+03  0.51820919494E+03  0.28030564005E+03  0.77636176148E+03  0.00000000000E+00 0. -1.
         22    1    1    2    0    0  0.14922608915E+04 -0.15112886384E+04 -0.14243390252E+04  0.25572597787E+04  0.00000000000E+00 0. -1.
<mgrwt>
<rscale>  0 0.48667055E+04</rscale>
<asrwt>0</asrwt>
<pdfrwt beam="1">  1        2 0.41193842E+00 0.48667055E+04</pdfrwt>
<pdfrwt beam="2">  1       -2 0.34021317E+00 0.48667055E+04</pdfrwt>
<totfact> 0.36113934E-02</totfact>
</mgrwt>
</event>
<event>
 6    1  0.1762360E-005  0.2901343E+04  0.7818608E-02  0.8272478E-01
         -2   -1    0    0    0  501 -0.00000000000E+00  0.00000000000E+00  0.10030747382E+04  0.10030747382E+04  0.00000000000E+00 0.  1.
          2   -1    0    0  501    0  0.00000000000E+00 -0.00000000000E+00 -0.20979968694E+04  0.20979968694E+04  0.00000000000E+00 0. -1.
         23    2    1    2    0    0  0.87535730777E+03 -0.36921564022E+03  0.62168314095E+03  0.11391072181E+04  0.92221046425E+02 0.  0.
         11    1    3    3    0    0  0.43179077582E+03 -0.14471837856E+03  0.33375126018E+03  0.56460303475E+03  0.00000000000E+00 0. -1.
        -11    1    3    3    0    0  0.44356653196E+03 -0.22449726165E+03  0.28793188078E+03  0.57450418339E+03  0.00000000000E+00 0.  1.
         22    1    1    2    0    0 -0.87535730777E+03  0.36921564022E+03 -0.17166052722E+04  0.19619643895E+04  0.00000000000E+00 0. -1.
<mgrwt>
<rscale>  0 0.29013429E+04</rscale>
<asrwt>0</asrwt>
<pdfrwt beam="1">  1        2 0.32276874E+00 0.29013429E+04</pdfrwt>
<pdfrwt beam="2">  1       -2 0.15431919E+00 0.29013429E+04</pdfrwt>
<totfact> 0.14122269E+00</totfact>
</mgrwt>
</event>
<event>
 6    1  0.1762360E-005  0.2701182E+04  0.7818608E-02  0.8334622E-01
         -2   -1    0    0    0  501 -0.00000000000E+00  0.00000000000E+00  0.92355704871E+03  0.92355704871E+03  0.00000000000E+00 0.  1.
          2   -1    0    0  501    0  0.00000000000E+00 -0.00000000000E+00 -0.19750760264E+04  0.19750760264E+04  0.00000000000E+00 0. -1.
         23    2    1    2    0    0  0.91134770802E+03  0.85120782271E+03 -0.10788562633E+04  0.16512932138E+04  0.87914951893E+02 0.  0.
         13    1    3    3    0    0  0.53222964108E+03  0.48753324152E+03 -0.68057286505E+03  0.99203653011E+03  0.00000000000E+00 0. -1.
        -13    1    3    3    0    0  0.37911806694E+03  0.36367458119E+03 -0.39828339824E+03  0.65925668370E+03  0.00000000000E+00 0.  1.
         22    1    1    2    0    0 -0.91134770802E+03 -0.85120782271E+03  0.27337285626E+02  0.12473398613E+04  0.00000000000E+00 0. -1.
<mgrwt>
<rscale>  0 0.27011815E+04</rscale>
<asrwt>0</asrwt>
<pdfrwt beam="1">  1        2 0.30385785E+00 0.27011815E+04</pdfrwt>
<pdfrwt beam="2">  1       -2 0.14208570E+00 0.27011815E+04</pdfrwt>
<totfact> 0.20912485E+00</totfact>
</mgrwt>
</event>
<event>
 6    1  0.1762360E-005  0.3650004E+04  0.7818608E-02  0.8079133E-01
         -2   -1    0    0    0  501 -0.00000000000E+00  0.00000000000E+00  0.11600648092E+04  0.11600648092E+04  0.00000000000E+00 0.  1.
          2   -1    0    0  501    0  0.00000000000E+00 -0.00000000000E+00 -0.28710745912E+04  0.28710745912E+04  0.00000000000E+00 0. -1.
         23    2    1    2    0    0 -0.12359694251E+04 -0.78293752285E+03 -0.20587438287E+04  0.25273007948E+04  0.90617717634E+02 0.  0.
         13    1    3    3    0    0 -0.91809038661E+03 -0.61299334485E+03 -0.15015617944E+04  0.18636895185E+04  0.00000000000E+00 0.  1.
        -13    1    3    3    0    0 -0.31787903850E+03 -0.16994417800E+03 -0.55718203430E+03  0.66361127635E+03  0.00000000000E+00 0. -1.
         22    1    1    2    0    0  0.12359694251E+04  0.78293752285E+03  0.34773404675E+03  0.15038386056E+04  0.00000000000E+00 0.  1.
<mgrwt>
<rscale>  0 0.36500042E+04</rscale>
<asrwt>0</asrwt>
<pdfrwt beam="1">  1        2 0.44170378E+00 0.36500042E+04</pdfrwt>
<pdfrwt beam="2">  1       -2 0.17847151E+00 0.36500042E+04</pdfrwt>
<totfact> 0.31551428E-01</totfact>
</mgrwt>
</event>
<event>
 6    1  0.1762360E-005  0.4726034E+04  0.7818608E-02  0.7872217E-01
          1   -1    0    0  501    0  0.00000000000E+00  0.00000000000E+00  0.32285638114E+04  0.32285638114E+04  0.00000000000E+00 0. -1.
         -1   -1    0    0    0  501 -0.00000000000E+00 -0.00000000000E+00 -0.17295147711E+04  0.17295147711E+04  0.00000000000E+00 0.  1.
         23    2    1    2    0    0  0.18753183097E+04  0.10047781879E+04 -0.32706066335E+03  0.21543177832E+04  0.87854787708E+02 0.  0.
         13    1    3    3    0    0  0.72529189736E+03  0.43738501777E+03 -0.13018998977E+03  0.85691506206E+03  0.00000000000E+00 0. -1.
        -13    1    3    3    0    0  0.11500264124E+04  0.56739317015E+03 -0.19687067358E+03  0.12974027211E+04  0.00000000000E+00 0.  1.
         22    1    1    2    0    0 -0.18753183097E+04 -0.10047781879E+04  0.18261097037E+04  0.28037607993E+04  0.00000000000E+00 0. -1.
<mgrwt>
<rscale>  0 0.47260338E+04</rscale>
<asrwt>0</asrwt>
<pdfrwt beam="1">  1        1 0.49670212E+00 0.47260338E+04</pdfrwt>
<pdfrwt beam="2">  1       -1 0.26607920E+00 0.47260338E+04</pdfrwt>
<totfact> 0.16343975E-02</totfact>
</mgrwt>
</event>
<event>
 6    1  0.1762360E-005  0.1415058E+04  0.7818608E-02  0.8942990E-01
          2   -1    0    0  501    0  0.00000000000E+00  0.00000000000E+00  0.18181511065E+04  0.18181511065E+04  0.00000000000E+00 0. -1.
         -2   -1    0    0    0  501 -0.00000000000E+00 -0.00000000000E+00 -0.27533324975E+03  0.27533324975E+03  0.00000000000E+00 0.  1.
         23    2    1    2    0    0 -0.52827800901E+03  0.21053486774E+03  0.15990118950E+03  0.59820475233E+03  0.94222873923E+02 0.  0.
         13    1    3    3    0    0 -0.35385806197E+03  0.18722318007E+03  0.11695796679E+03  0.41706979413E+03  0.00000000000E+00 0. -1.
        -13    1    3    3    0    0 -0.17441994703E+03  0.23311687670E+02  0.42943222712E+02  0.18113495820E+03  0.00000000000E+00 0.  1.
         22    1    1    2    0    0  0.52827800901E+03 -0.21053486774E+03  0.13829166673E+04  0.14952796039E+04  0.00000000000E+00 0. -1.
<mgrwt>
<rscale>  0 0.14150582E+04</rscale>
<asrwt>0</asrwt>
<pdfrwt beam="1">  1        2 0.27971555E+00 0.14150582E+04</pdfrwt>
<pdfrwt beam="2">  1       -2 0.42358963E-01 0.14150582E+04</pdfrwt>
<totfact> 0.43305078E+01</totfact>
</mgrwt>
</event>
<event>
 6    1  0.1762360E-005  0.2739397E+04  0.7818608E-02  0.8322334E-01
          2   -1    0    0  501    0  0.00000000000E+00  0.00000000000E+00  0.20817949164E+04  0.20817949164E+04  0.00000000000E+00 0. -1.
         -2   -1    0    0    0  501 -0.00000000000E+00 -0.00000000000E+00 -0.90118116338E+03  0.90118116338E+03  0.00000000000E+00 0.  1.
         23    2    1    2    0    0  0.11350967108E+04 -0.74434007310E+03  0.77712256296E+03  0.15668928098E+04  0.93524928987E+02 0.  0.
         11    1    3    3    0    0  0.85287218474E+03 -0.56396520803E+03  0.53819605763E+03  0.11554664495E+04  0.00000000000E+00 0. -1.
        -11    1    3    3    0    0  0.28222452601E+03 -0.18037486506E+03  0.23892650533E+03  0.41142636034E+03  0.00000000000E+00 0.  1.
         22    1    1    2    0    0 -0.11350967108E+04  0.74434007310E+03  0.40349119010E+03  0.14160832700E+04  0.00000000000E+00 0.  1.
<mgrwt>
<rscale>  0 0.27393973E+04</rscale>
<asrwt>0</asrwt>
<pdfrwt beam="1">  1        2 0.32027614E+00 0.27393973E+04</pdfrwt>
<pdfrwt beam="2">  1       -2 0.13864326E+00 0.27393973E+04</pdfrwt>
<totfact> 0.19376572E+00</totfact>
</mgrwt>
</event>
<event>
 6    1  0.1762360E-005  0.5311225E+04  0.7818608E-02  0.7782212E-01
          1   -1    0    0  501    0  0.00000000000E+00  0.00000000000E+00  0.21234541521E+04  0.21234541521E+04  0.00000000000E+00 0. -1.
         -1   -1    0    0    0  501 -0.00000000000E+00 -0.00000000000E+00 -0.33211352823E+04  0.33211352823E+04  0.00000000000E+00 0.  1.
         23    2    1    2    0    0  0.23528434367E+04 -0.69788348681E+03  0.43898974939E+03  0.24947411050E+04  0.90042112421E+02 0.  0.
         11    1    3    3    0    0  0.12202402312E+04 -0.33507282060E+03  0.26377853031E+03  0.12926094267E+04  0.00000000000E+00 0.  1.
        -11    1    3    3    0    0  0.11326032055E+04 -0.36281066621E+03  0.17521121909E+03  0.12021316783E+04  0.00000000000E+00 0. -1.
         22    1    1    2    0    0 -0.23528434367E+04  0.69788348681E+03 -0.16366708796E+04  0.29498483295E+04  0.00000000000E+00 0.  1.
<mgrwt>
<rscale>  0 0.53112253E+04</rscale>
<asrwt>0</asrwt>
<pdfrwt beam="1">  1        1 0.32668525E+00 0.53112253E+04</pdfrwt>
<pdfrwt beam="2">  1       -1 0.51094389E+00 0.53112253E+04</pdfrwt>
<totfact> 0.22149373E-03</totfact>
</mgrwt>
</event>
<event>
 6    1  0.1989015E-005  0.2505327E+04  0.7818608E-02  0.8401090E-01
         -2   -1    0    0    0  501 -0.00000000000E+00  0.00000000000E+00  0.94728242860E+03  0.94728242860E+03  0.00000000000E+00 0. -1.
          2   -1    0    0  501    0  0.00000000000E+00 -0.00000000000E+00 -0.16564923095E+04  0.16564923095E+04  0.00000000000E+00 0.  1.
         23    2    1    2    0    0  0.12421364416E+04  0.14042184977E+03 -0.40494628947E+03  0.13172299202E+04  0.92151668266E+02 0.  0.
         13    1    3    3    0    0  0.60307246987E+03  0.84622241909E+02 -0.15197777434E+03  0.62765800531E+03  0.00000000000E+00 0.  1.
        -13    1    3    3    0    0  0.63906397171E+03  0.55799607864E+02 -0.25296851514E+03  0.68957191490E+03  0.00000000000E+00 0. -1.
         22    1    1    2    0    0 -0.12421364416E+04 -0.14042184977E+03 -0.30426359145E+03  0.12865448179E+04  0.00000000000E+00 0.  1.
<mgrwt>
<rscale>  0 0.25053272E+04</rscale>
<asrwt>0</asrwt>
<pdfrwt beam="1">  1        2 0.25484497E+00 0.25053272E+04</pdfrwt>
<pdfrwt beam="2">  1       -2 0.14573576E+00 0.25053272E+04</pdfrwt>
<totfact> 0.29897174E+00</totfact>
</mgrwt>
</event>
<event>
 6    1  0.1762360E-005  0.2471658E+04  0.7818608E-02  0.8413153E-01
          1   -1    0    0  501    0  0.00000000000E+00  0.00000000000E+00  0.67070486504E+03  0.67070486504E+03  0.00000000000E+00 0. -1.
         -1   -1    0    0    0  501 -0.00000000000E+00 -0.00000000000E+00 -0.22771173687E+04  0.22771173687E+04  0.00000000000E+00 0.  1.
         23    2    1    2    0    0  0.38137719079E+03 -0.11637703216E+04 -0.61702073008E+03  0.13734315565E+04  0.76090314340E+02 0.  0.
         11    1    3    3    0    0  0.69189659135E+02 -0.29884361030E+03 -0.13390846703E+03  0.33470313696E+03  0.00000000000E+00 0. -1.
        -11    1    3    3    0    0  0.31218753165E+03 -0.86492671127E+03 -0.48311226304E+03  0.10387284195E+04  0.00000000000E+00 0.  1.
         22    1    1    2    0    0 -0.38137719079E+03  0.11637703216E+04 -0.98939177354E+03  0.15743906772E+04  0.00000000000E+00 0.  1.
<mgrwt>
<rscale>  0 0.24716583E+04</rscale>
<asrwt>0</asrwt>
<pdfrwt beam="1">  1        1 0.10318537E+00 0.24716583E+04</pdfrwt>
<pdfrwt beam="2">  1       -1 0.35032574E+00 0.24716583E+04</pdfrwt>
<totfact> 0.40030662E-01</totfact>
</mgrwt>
</event>
<event>
 6    1  0.1762360E-005  0.9074715E+03  0.7818608E-02  0.9416290E-01
          2   -1    0    0  501    0  0.00000000000E+00  0.00000000000E+00  0.10297757024E+04  0.10297757024E+04  0.00000000000E+00 0. -1.
         -2   -1    0    0    0  501 -0.00000000000E+00 -0.00000000000E+00 -0.19992326691E+03  0.19992326691E+03  0.00000000000E+00 0.  1.
         23    2    1    2    0    0 -0.36900132151E+03 -0.16317984685E+03  0.68635526221E+03  0.80146880169E+03  0.92081792063E+02 0.  0.
         11    1    3    3    0    0 -0.29415769593E+03 -0.97202630523E+02  0.56502912753E+03  0.64438731863E+03  0.00000000000E+00 0.  1.
        -11    1    3    3    0    0 -0.74843625580E+02 -0.65977216329E+02  0.12132613468E+03  0.15708148306E+03  0.00000000000E+00 0. -1.
         22    1    1    2    0    0  0.36900132151E+03  0.16317984685E+03  0.14349717324E+03  0.42823016757E+03  0.00000000000E+00 0.  1.
<mgrwt>
<rscale>  0 0.90747148E+03</rscale>
<asrwt>0</asrwt>
<pdfrwt beam="1">  1        2 0.15842703E+00 0.90747148E+03</pdfrwt>
<pdfrwt beam="2">  1       -2 0.30757426E-01 0.90747148E+03</pdfrwt>
<totfact> 0.23615124E+02</totfact>
</mgrwt>
</event>
<event>
 6    1  0.1762360E-005  0.2382421E+04  0.7818608E-02  0.8446114E-01
         -1   -1    0    0    0  501 -0.00000000000E+00  0.00000000000E+00  0.68747424940E+03  0.68747424940E+03  0.00000000000E+00 0.  1.
          1   -1    0    0  501    0  0.00000000000E+00 -0.00000000000E+00 -0.20640523645E+04  0.20640523645E+04  0.00000000000E+00 0. -1.
         23    2    1    2    0    0 -0.40295821125E+02  0.11454285932E+04 -0.10566432887E+04  0.15615733759E+04  0.91574851680E+02 0.  0.
         13    1    3    3    0    0 -0.25737991957E+02  0.30886649308E+03 -0.23549675394E+03  0.38925528370E+03  0.00000000000E+00 0.  1.
        -13    1    3    3    0    0 -0.14557829168E+02  0.83656210015E+03 -0.82114653478E+03  0.11723180922E+04  0.00000000000E+00 0. -1.
         22    1    1    2    0    0  0.40295821125E+02 -0.11454285932E+04 -0.31993482636E+03  0.11899532379E+04  0.00000000000E+00 0.  1.
<mgrwt>
<rscale>  0 0.23824213E+04</rscale>
<asrwt>0</asrwt>
<pdfrwt beam="1">  1        1 0.31754652E+00 0.23824213E+04</pdfrwt>
<pdfrwt beam="2">  1       -1 0.10576527E+00 0.23824213E+04</pdfrwt>
<totfact> 0.20248582E+00</totfact>
</mgrwt>
</event>
<event>
 6    1  0.1762360E-005  0.7630092E+03  0.7818608E-02  0.9615159E-01
         -1   -1    0    0    0  501 -0.00000000000E+00  0.00000000000E+00  0.37661223274E+03  0.37661223274E+03  0.00000000000E+00 0.  1.
          1   -1    0    0  501    0  0.00000000000E+00 -0.00000000000E+00 -0.38646055324E+03  0.38646055324E+03  0.00000000000E+00 0. -1.
         23    2    1    2    0    0  0.18158393471E+03 -0.16753724763E+03 -0.28853310935E+03  0.39063934733E+03  0.91138849007E+02 0.  0.
         13    1    3    3    0    0  0.14374022118E+03 -0.16830265031E+03 -0.21839608091E+03  0.31094031813E+03  0.00000000000E+00 0.  1.
        -13    1    3    3    0    0  0.37843713527E+02  0.76540267812E+00 -0.70137028447E+02  0.79699029192E+02  0.00000000000E+00 0. -1.
         22    1    1    2    0    0 -0.18158393471E+03  0.16753724763E+03  0.27868478886E+03  0.37243343865E+03  0.00000000000E+00 0.  1.
<mgrwt>
<rscale>  0 0.76300923E+03</rscale>
<asrwt>0</asrwt>
<pdfrwt beam="1">  1        1 0.59455470E-01 0.76300923E+03</pdfrwt>
<pdfrwt beam="2">  1       -1 0.57940343E-01 0.76300923E+03</pdfrwt>
<totfact> 0.19202440E+02</totfact>
</mgrwt>
</event>
<event>
 6    1  0.1762360E-005  0.1239985E+04  0.7818608E-02  0.9078560E-01
          2   -1    0    0  501    0  0.00000000000E+00  0.00000000000E+00  0.43196659392E+03  0.43196659392E+03  0.00000000000E+00 0. -1.
         -2   -1    0    0    0  501 -0.00000000000E+00 -0.00000000000E+00 -0.88986278861E+03  0.88986278861E+03  0.00000000000E+00 0.  1.
         23    2    1    2    0    0  0.49941452390E+03  0.26552353547E+02  0.15405052688E+03  0.53151382265E+03  0.93034857325E+02 0.  0.
         13    1    3    3    0    0  0.32278415183E+03 -0.26005821746E+02  0.11038812848E+03  0.34212782750E+03  0.00000000000E+00 0. -1.
        -13    1    3    3    0    0  0.17663037207E+03  0.52558175293E+02  0.43662398401E+02  0.18938599515E+03  0.00000000000E+00 0.  1.
         22    1    1    2    0    0 -0.49941452390E+03 -0.26552353547E+02 -0.61194672156E+03  0.79031555988E+03  0.00000000000E+00 0.  1.
<mgrwt>
<rscale>  0 0.12399855E+04</rscale>
<asrwt>0</asrwt>
<pdfrwt beam="1">  1        2 0.66456400E-01 0.12399855E+04</pdfrwt>
<pdfrwt beam="2">  1       -2 0.13690197E+00 0.12399855E+04</pdfrwt>
<totfact> 0.27276726E+01</totfact>
</mgrwt>
</event>
<event>
 6    1  0.1762360E-005  0.1330287E+04  0.7818608E-02  0.9005886E-01
         -2   -1    0    0    0  501 -0.00000000000E+00  0.00000000000E+00  0.37160411506E+03  0.37160411506E+03  0.00000000000E+00 0.  1.
          2   -1    0    0  501    0  0.00000000000E+00 -0.00000000000E+00 -0.11905569897E+04  0.11905569897E+04  0.00000000000E+00 0. -1.
         23    2    1    2    0    0 -0.18194436289E+03  0.60365922440E+03 -0.17449284816E+03  0.66058640675E+03  0.91752037184E+02 0.  0.
         11    1    3    3    0    0 -0.17596890922E+01  0.10407294520E+03 -0.48114173463E+02  0.11467017099E+03  0.00000000000E+00 0.  1.
        -11    1    3    3    0    0 -0.18018467380E+03  0.49958627920E+03 -0.12637867470E+03  0.54591623575E+03  0.00000000000E+00 0. -1.
         22    1    1    2    0    0  0.18194436289E+03 -0.60365922440E+03 -0.64446002650E+03  0.90157469804E+03  0.00000000000E+00 0. -1.
<mgrwt>
<rscale>  0 0.13302870E+04</rscale>
<asrwt>0</asrwt>
<pdfrwt beam="1">  1        2 0.18316261E+00 0.13302870E+04</pdfrwt>
<pdfrwt beam="2">  1       -2 0.57169864E-01 0.13302870E+04</pdfrwt>
<totfact> 0.53818089E+01</totfact>
</mgrwt>
</event>
<event>
 6    1  0.1762360E-005  0.1307258E+04  0.7818608E-02  0.9023829E-01
         -2   -1    0    0    0  501 -0.00000000000E+00  0.00000000000E+00  0.38126350026E+03  0.38126350026E+03  0.00000000000E+00 0.  1.
          2   -1    0    0  501    0  0.00000000000E+00 -0.00000000000E+00 -0.11205657639E+04  0.11205657639E+04  0.00000000000E+00 0. -1.
         23    2    1    2    0    0 -0.95365689779E+01 -0.59067603159E+03 -0.68407628897E+03  0.90850049465E+03  0.91780494686E+02 0.  0.
         13    1    3    3    0    0  0.25342179928E+02 -0.11817303761E+03 -0.10336131341E+03  0.15903035562E+03  0.00000000000E+00 0.  1.
        -13    1    3    3    0    0 -0.34878748906E+02 -0.47250299398E+03 -0.58071497556E+03  0.74947013902E+03  0.00000000000E+00 0. -1.
         22    1    1    2    0    0  0.95365689779E+01  0.59067603159E+03 -0.55225974660E+02  0.59332876950E+03  0.00000000000E+00 0.  1.
<mgrwt>
<rscale>  0 0.13072579E+04</rscale>
<asrwt>0</asrwt>
<pdfrwt beam="1">  1        2 0.17239473E+00 0.13072579E+04</pdfrwt>
<pdfrwt beam="2">  1       -2 0.58655925E-01 0.13072579E+04</pdfrwt>
<totfact> 0.56322476E+01</totfact>
</mgrwt>
</event>
<event>
 6    1  0.1762360E-005  0.2343638E+04  0.7818608E-02  0.8460911E-01
         -2   -1    0    0    0  501 -0.00000000000E+00  0.00000000000E+00  0.70299869783E+03  0.70299869783E+03  0.00000000000E+00 0.  1.
          2   -1    0    0  501    0  0.00000000000E+00 -0.00000000000E+00 -0.19532897930E+04  0.19532897930E+04  0.00000000000E+00 0. -1.
         23    2    1    2    0    0 -0.40963024090E+03  0.75942574717E+03 -0.15216701702E+04  0.17517604360E+04  0.93059757033E+02 0.  0.
         11    1    3    3    0    0 -0.27685769977E+03  0.58658857094E+03 -0.10967009512E+04  0.12741622007E+04  0.00000000000E+00 0. -1.
        -11    1    3    3    0    0 -0.13277254113E+03  0.17283717623E+03 -0.42496921904E+03  0.47759823523E+03  0.00000000000E+00 0.  1.
         22    1    1    2    0    0  0.40963024090E+03 -0.75942574717E+03  0.27137907502E+03  0.90452805489E+03  0.00000000000E+00 0.  1.
<mgrwt>
<rscale>  0 0.23436384E+04</rscale>
<asrwt>0</asrwt>
<pdfrwt beam="1">  1        2 0.30050611E+00 0.23436384E+04</pdfrwt>
<pdfrwt beam="2">  1       -2 0.10815365E+00 0.23436384E+04</pdfrwt>
<totfact> 0.43860061E+00</totfact>
</mgrwt>
</event>
<event>
 6    1  0.1762360E-005  0.1254678E+04  0.7818608E-02  0.9066299E-01
         -1   -1    0    0    0  501 -0.00000000000E+00  0.00000000000E+00  0.68923559804E+03  0.68923559804E+03  0.00000000000E+00 0.  1.
          1   -1    0    0  501    0  0.00000000000E+00 -0.00000000000E+00 -0.57100108947E+03  0.57100108947E+03  0.00000000000E+00 0. -1.
         23    2    1    2    0    0  0.28553581263E+03 -0.54698999750E+03  0.15084886062E+03  0.64234312578E+03  0.95501595921E+02 0.  0.
         11    1    3    3    0    0  0.13131830212E+03 -0.29356548450E+03  0.12323471505E+03  0.34440090760E+03  0.00000000000E+00 0. -1.
        -11    1    3    3    0    0  0.15421751051E+03 -0.25342451301E+03  0.27614145571E+02  0.29794221818E+03  0.00000000000E+00 0.  1.
         22    1    1    2    0    0 -0.28553581263E+03  0.54698999750E+03 -0.32614352056E+02  0.61789356173E+03  0.00000000000E+00 0. -1.
<mgrwt>
<rscale>  0 0.12546781E+04</rscale>
<asrwt>0</asrwt>
<pdfrwt beam="1">  1        1 0.87846321E-01 0.12546781E+04</pdfrwt>
<pdfrwt beam="2">  1       -1 0.10603625E+00 0.12546781E+04</pdfrwt>
<totfact> 0.30182726E+01</totfact>
</mgrwt>
</event>
<event>
 6    1  0.1762360E-005  0.1447741E+04  0.7818608E-02  0.8919968E-01
         -2   -1    0    0    0  501 -0.00000000000E+00  0.00000000000E+00  0.25704857327E+03  0.25704857327E+03  0.00000000000E+00 0.  1.
          2   -1    0    0  501    0  0.00000000000E+00 -0.00000000000E+00 -0.20384797091E+04  0.20384797091E+04  0.00000000000E+00 0. -1.
         23    2    1    2    0    0  0.43516800065E+03 -0.45908261235E+03 -0.14427669716E+04  0.15780176902E+04  0.91843685500E+02 0.  0.
         13    1    3    3    0    0  0.46526467227E+02 -0.24969045299E+02 -0.79310430919E+02  0.95280164926E+02  0.00000000000E+00 0.  1.
        -13    1    3    3    0    0  0.38864153342E+03 -0.43411356705E+03 -0.13634565407E+04  0.14827375253E+04  0.00000000000E+00 0. -1.
         22    1    1    2    0    0 -0.43516800065E+03  0.45908261235E+03 -0.33866416429E+03  0.71751059220E+03  0.00000000000E+00 0.  1.
<mgrwt>
<rscale>  0 0.14477407E+04</rscale>
<asrwt>0</asrwt>
<pdfrwt beam="1">  1        2 0.31361227E+00 0.14477407E+04</pdfrwt>
<pdfrwt beam="2">  1       -2 0.39545933E-01 0.14477407E+04</pdfrwt>
<totfact> 0.37329181E+01</totfact>
</mgrwt>
</event>
<event>
 6    1  0.1762360E-005  0.1632794E+04  0.7818608E-02  0.8800651E-01
          1   -1    0    0  501    0  0.00000000000E+00  0.00000000000E+00  0.97914959189E+03  0.97914959189E+03  0.00000000000E+00 0. -1.
         -1   -1    0    0    0  501 -0.00000000000E+00 -0.00000000000E+00 -0.68069669273E+03  0.68069669273E+03  0.00000000000E+00 0.  1.
         23    2    1    2    0    0  0.50020792682E+03 -0.49390122791E+03  0.56683689851E+03  0.90739936683E+03  0.89012069038E+02 0.  0.
         13    1    3    3    0    0  0.41343831620E+03 -0.36777848751E+03  0.41399836974E+03  0.69107662913E+03  0.00000000000E+00 0.  1.
        -13    1    3    3    0    0  0.86769610620E+02 -0.12612274040E+03  0.15283852877E+03  0.21632273770E+03  0.00000000000E+00 0. -1.
         22    1    1    2    0    0 -0.50020792682E+03  0.49390122791E+03 -0.26838399935E+03  0.75244691779E+03  0.00000000000E+00 0.  1.
<mgrwt>
<rscale>  0 0.16327938E+04</rscale>
<asrwt>0</asrwt>
<pdfrwt beam="1">  1        1 0.15063840E+00 0.16327938E+04</pdfrwt>
<pdfrwt beam="2">  1       -1 0.10472257E+00 0.16327938E+04</pdfrwt>
<totfact> 0.12883920E+01</totfact>
</mgrwt>
</event>
<event>
 6    1  0.1762360E-005  0.1310263E+04  0.7818608E-02  0.9021466E-01
          2   -1    0    0  501    0  0.00000000000E+00  0.00000000000E+00  0.24099952254E+03  0.24099952254E+03  0.00000000000E+00 0.  1.
         -2   -1    0    0    0  501 -0.00000000000E+00 -0.00000000000E+00 -0.17809049553E+04  0.17809049553E+04  0.00000000000E+00 0. -1.
         23    2    1    2    0    0  0.51153699368E+03 -0.24444601219E+02 -0.14778288714E+03  0.53857281687E+03  0.77157390445E+02 0.  0.
         13    1    3    3    0    0  0.28651647845E+03  0.24247869670E+02 -0.76042202641E+02  0.29742573558E+03  0.00000000000E+00 0.  1.
        -13    1    3    3    0    0  0.22502051524E+03 -0.48692470889E+02 -0.71740684499E+02  0.24114708128E+03  0.00000000000E+00 0. -1.
         22    1    1    2    0    0 -0.51153699368E+03  0.24444601219E+02 -0.13921225456E+04  0.14833316609E+04  0.00000000000E+00 0. -1.
<mgrwt>
<rscale>  0 0.13102629E+04</rscale>
<asrwt>0</asrwt>
<pdfrwt beam="1">  1        2 0.37076849E-01 0.13102629E+04</pdfrwt>
<pdfrwt beam="2">  1       -2 0.27398539E+00 0.13102629E+04</pdfrwt>
<totfact> 0.63180592E+00</totfact>
</mgrwt>
</event>
<event>
 6    1  0.1762360E-005  0.2964720E+04  0.7818608E-02  0.8253878E-01
         -2   -1    0    0    0  501 -0.00000000000E+00  0.00000000000E+00  0.10350885136E+04  0.10350885136E+04  0.00000000000E+00 0. -1.
          2   -1    0    0  501    0  0.00000000000E+00 -0.00000000000E+00 -0.21229011529E+04  0.21229011529E+04  0.00000000000E+00 0.  1.
         23    2    1    2    0    0 -0.23252196031E+03  0.96998547605E+03  0.62158982497E+03  0.11788496839E+04  0.91511643803E+02 0.  0.
         11    1    3    3    0    0 -0.13531591503E+03  0.61541037691E+03  0.44196739551E+03  0.76965934514E+03  0.00000000000E+00 0. -1.
        -11    1    3    3    0    0 -0.97206045280E+02  0.35457509914E+03  0.17962242946E+03  0.40919033876E+03  0.00000000000E+00 0.  1.
         22    1    1    2    0    0  0.23252196031E+03 -0.96998547605E+03 -0.17094024643E+04  0.19791399826E+04  0.00000000000E+00 0.  1.
<mgrwt>
<rscale>  0 0.29647196E+04</rscale>
<asrwt>0</asrwt>
<pdfrwt beam="1">  1        2 0.32660018E+00 0.29647196E+04</pdfrwt>
<pdfrwt beam="2">  1       -2 0.15924439E+00 0.29647196E+04</pdfrwt>
<totfact> 0.12497378E+00</totfact>
</mgrwt>
</event>
<event>
 6    1  0.1762360E-005  0.2256691E+04  0.7818608E-02  0.8495195E-01
         -2   -1    0    0    0  501 -0.00000000000E+00  0.00000000000E+00  0.11937980928E+04  0.11937980928E+04  0.00000000000E+00 0.  1.
          2   -1    0    0  501    0  0.00000000000E+00 -0.00000000000E+00 -0.10664819460E+04  0.10664819460E+04  0.00000000000E+00 0. -1.
         23    2    1    2    0    0 -0.76192358050E+03 -0.81608864298E+03 -0.86396947978E+02  0.11235296253E+04  0.91247852916E+02 0.  0.
         11    1    3    3    0    0 -0.38221310885E+02 -0.66013150250E+02 -0.21376495384E+02  0.79218426938E+02  0.00000000000E+00 0. -1.
        -11    1    3    3    0    0 -0.72370226962E+03 -0.75007549273E+03 -0.65020452595E+02  0.10443111984E+04  0.00000000000E+00 0.  1.
         22    1    1    2    0    0  0.76192358050E+03  0.81608864298E+03  0.21371309476E+03  0.11367504135E+04  0.00000000000E+00 0.  1.
<mgrwt>
<rscale>  0 0.22566915E+04</rscale>
<asrwt>0</asrwt>
<pdfrwt beam="1">  1        2 0.16407415E+00 0.22566915E+04</pdfrwt>
<pdfrwt beam="2">  1       -2 0.18366124E+00 0.22566915E+04</pdfrwt>
<totfact> 0.35580125E+00</totfact>
</mgrwt>
</event>
<event>
 6    1  0.1762360E-005  0.2819489E+04  0.7818608E-02  0.8297243E-01
         -1   -1    0    0    0  501 -0.00000000000E+00  0.00000000000E+00  0.14053427997E+04  0.14053427997E+04  0.00000000000E+00 0.  1.
          1   -1    0    0  501    0  0.00000000000E+00 -0.00000000000E+00 -0.14141601420E+04  0.14141601420E+04  0.00000000000E+00 0. -1.
         23    2    1    2    0    0 -0.67909054201E+03 -0.47698746622E+03 -0.11421860990E+04  0.14147945214E+04  0.91506533868E+02 0.  0.
         11    1    3    3    0    0 -0.32711199010E+03 -0.17782686590E+03 -0.53731780411E+03  0.65370870494E+03  0.00000000000E+00 0.  1.
        -11    1    3    3    0    0 -0.35197855192E+03 -0.29916060033E+03 -0.60486829491E+03  0.76108581644E+03  0.00000000000E+00 0. -1.
         22    1    1    2    0    0  0.67909054201E+03  0.47698746622E+03  0.11333687567E+04  0.14047084202E+04  0.00000000000E+00 0.  1.
<mgrwt>
<rscale>  0 0.28194892E+04</rscale>
<asrwt>0</asrwt>
<pdfrwt beam="1">  1        1 0.21756310E+00 0.28194892E+04</pdfrwt>
<pdfrwt beam="2">  1       -1 0.21620658E+00 0.28194892E+04</pdfrwt>
<totfact> 0.75742303E-01</totfact>
</mgrwt>
</event>
<event>
 6    1  0.1762360E-005  0.1520740E+03  0.7818608E-02  0.1197947E+00
         -1   -1    0    0    0  501 -0.00000000000E+00  0.00000000000E+00  0.12603252210E+03  0.12603252210E+03  0.00000000000E+00 0.  1.
          1   -1    0    0  501    0  0.00000000000E+00 -0.00000000000E+00 -0.45874060325E+02  0.45874060325E+02  0.00000000000E+00 0. -1.
         23    2    1    2    0    0 -0.19073248906E+02  0.10427889422E+02  0.10414976792E+03  0.13953201723E+03  0.90274470214E+02 0.  0.
         13    1    3    3    0    0 -0.19569386348E+02 -0.34695144415E+02  0.77465626948E+02  0.87107044987E+02  0.00000000000E+00 0. -1.
        -13    1    3    3    0    0  0.49613744230E+00  0.45123033837E+02  0.26684140971E+02  0.52424972240E+02  0.00000000000E+00 0.  1.
         22    1    1    2    0    0  0.19073248906E+02 -0.10427889422E+02 -0.23991306140E+02  0.32374565201E+02  0.00000000000E+00 0. -1.
<mgrwt>
<rscale>  0 0.15207398E+03</rscale>
<asrwt>0</asrwt>
<pdfrwt beam="1">  1        1 0.70575478E-02 0.15207398E+03</pdfrwt>
<pdfrwt beam="2">  1       -1 0.19389619E-01 0.15207398E+03</pdfrwt>
<totfact> 0.20506492E+04</totfact>
</mgrwt>
</event>
<event>
 6    1  0.2583708E-005  0.3574264E+04  0.7818608E-02  0.8096412E-01
         -1   -1    0    0    0  501 -0.00000000000E+00  0.00000000000E+00  0.21230139850E+04  0.21230139850E+04  0.00000000000E+00 0.  1.
          1   -1    0    0  501    0  0.00000000000E+00 -0.00000000000E+00 -0.15043898526E+04  0.15043898526E+04  0.00000000000E+00 0. -1.
         23    2    1    2    0    0  0.14453680171E+04  0.11365700016E+03 -0.74896644195E+03  0.16343382095E+04  0.90022403545E+02 0.  0.
         11    1    3    3    0    0  0.68705275596E+03  0.93555661733E+02 -0.33332040993E+03  0.76934819620E+03  0.00000000000E+00 0.  1.
        -11    1    3    3    0    0  0.75831526119E+03  0.20101338423E+02 -0.41564603202E+03  0.86499001329E+03  0.00000000000E+00 0. -1.
         22    1    1    2    0    0 -0.14453680171E+04 -0.11365700016E+03  0.13675905743E+04  0.19930656281E+04  0.00000000000E+00 0.  1.
<mgrwt>
<rscale>  0 0.35742639E+04</rscale>
<asrwt>0</asrwt>
<pdfrwt beam="1">  1        1 0.23144459E+00 0.35742639E+04</pdfrwt>
<pdfrwt beam="2">  1       -1 0.32661754E+00 0.35742639E+04</pdfrwt>
<totfact> 0.11664900E-01</totfact>
</mgrwt>
</event>
<event>
 6    1  0.1762360E-005  0.7530971E+03  0.7818608E-02  0.9630504E-01
         -2   -1    0    0    0  501 -0.00000000000E+00  0.00000000000E+00  0.45173942228E+02  0.45173942228E+02  0.00000000000E+00 0. -1.
          2   -1    0    0  501    0  0.00000000000E+00 -0.00000000000E+00 -0.31387302204E+04  0.31387302204E+04  0.00000000000E+00 0.  1.
         23    2    1    2    0    0 -0.30089498323E+03  0.82053839907E+02 -0.24175946789E+04  0.24394616147E+04  0.94542658355E+02 0.  0.
         13    1    3    3    0    0 -0.14088889928E+03  0.83858768326E+02 -0.13556487535E+04  0.13655275603E+04  0.00000000000E+00 0. -1.
        -13    1    3    3    0    0 -0.16000608395E+03 -0.18049284196E+01 -0.10619459254E+04  0.10739340544E+04  0.00000000000E+00 0.  1.
         22    1    1    2    0    0  0.30089498323E+03 -0.82053839907E+02 -0.67596159928E+03  0.74444254801E+03  0.00000000000E+00 0.  1.
<mgrwt>
<rscale>  0 0.75309712E+03</rscale>
<asrwt>0</asrwt>
<pdfrwt beam="1">  1        2 0.48288156E+00 0.75309712E+03</pdfrwt>
<pdfrwt beam="2">  1       -2 0.69498374E-02 0.75309712E+03</pdfrwt>
<totfact> 0.18552558E+02</totfact>
</mgrwt>
</event>
<event>
 6    1  0.1762360E-005  0.2213788E+04  0.7818608E-02  0.8512711E-01
          2   -1    0    0  501    0  0.00000000000E+00  0.00000000000E+00  0.35083928355E+04  0.35083928355E+04  0.00000000000E+00 0.  1.
         -2   -1    0    0    0  501 -0.00000000000E+00 -0.00000000000E+00 -0.34922376154E+03  0.34922376154E+03  0.00000000000E+00 0. -1.
         23    2    1    2    0    0 -0.11979762818E+03  0.10790503373E+04  0.12235030011E+04  0.16382688893E+04  0.90907964214E+02 0.  0.
         13    1    3    3    0    0 -0.12979193505E+03  0.82850828192E+03  0.95225463104E+03  0.12688817131E+04  0.00000000000E+00 0.  1.
        -13    1    3    3    0    0  0.99943068658E+01  0.25054205536E+03  0.27124837006E+03  0.36938717619E+03  0.00000000000E+00 0. -1.
         22    1    1    2    0    0  0.11979762818E+03 -0.10790503373E+04  0.19356660728E+04  0.22193477077E+04  0.00000000000E+00 0. -1.
<mgrwt>
<rscale>  0 0.22137878E+04</rscale>
<asrwt>0</asrwt>
<pdfrwt beam="1">  1        2 0.53975272E+00 0.22137878E+04</pdfrwt>
<pdfrwt beam="2">  1       -2 0.53726735E-01 0.22137878E+04</pdfrwt>
<totfact> 0.23982827E+00</totfact>
</mgrwt>
</event>
<event>
 6    1  0.1762360E-005  0.3226139E+04  0.7818608E-02  0.8181948E-01
          1   -1    0    0  501    0  0.00000000000E+00  0.00000000000E+00  0.12450140779E+04  0.12450140779E+04  0.00000000000E+00 0. -1.
         -1   -1    0    0    0  501 -0.00000000000E+00 -0.00000000000E+00 -0.20899312909E+04  0.20899312909E+04  0.00000000000E+00 0.  1.
         23    2    1    2    0    0  0.59966485268E+03  0.74667387841E+03  0.91704337980E+03  0.13295464193E+04  0.98006654612E+02 0.  0.
         11    1    3    3    0    0  0.48478777262E+02  0.24977069781E+02  0.54280960415E+02  0.76944580857E+02  0.00000000000E+00 0. -1.
        -11    1    3    3    0    0  0.55118607541E+03  0.72169680863E+03  0.86276241938E+03  0.12526018384E+04  0.00000000000E+00 0.  1.
         22    1    1    2    0    0 -0.59966485268E+03 -0.74667387841E+03 -0.17619605927E+04  0.20053989495E+04  0.00000000000E+00 0.  1.
<mgrwt>
<rscale>  0 0.32261394E+04</rscale>
<asrwt>0</asrwt>
<pdfrwt beam="1">  1        1 0.19154063E+00 0.32261394E+04</pdfrwt>
<pdfrwt beam="2">  1       -1 0.32152789E+00 0.32261394E+04</pdfrwt>
<totfact> 0.19780715E-01</totfact>
</mgrwt>
</event>
<event>
 6    1  0.1762360E-005  0.4073325E+04  0.7818608E-02  0.7989916E-01
          2   -1    0    0  501    0  0.00000000000E+00  0.00000000000E+00  0.40217248205E+04  0.40217248205E+04  0.00000000000E+00 0. -1.
         -2   -1    0    0    0  501 -0.00000000000E+00 -0.00000000000E+00 -0.10313966088E+04  0.10313966088E+04  0.00000000000E+00 0.  1.
         23    2    1    2    0    0 -0.77354978512E+03 -0.14768563514E+04  0.29449449650E+04  0.33853254011E+04  0.90792466185E+02 0.  0.
         11    1    3    3    0    0 -0.62008382145E+03 -0.11297948688E+04  0.22156721661E+04  0.25632291234E+04  0.00000000000E+00 0. -1.
        -11    1    3    3    0    0 -0.15346596368E+03 -0.34706148254E+03  0.72927279891E+03  0.82209627776E+03  0.00000000000E+00 0.  1.
         22    1    1    2    0    0  0.77354978512E+03  0.14768563514E+04  0.45383246725E+02  0.16677960282E+04  0.00000000000E+00 0.  1.
<mgrwt>
<rscale>  0 0.40733246E+04</rscale>
<asrwt>0</asrwt>
<pdfrwt beam="1">  1        2 0.61872689E+00 0.40733246E+04</pdfrwt>
<pdfrwt beam="2">  1       -2 0.15867640E+00 0.40733246E+04</pdfrwt>
<totfact> 0.66116298E-02</totfact>
</mgrwt>
</event>
<event>
 6    1  0.1762360E-005  0.2179299E+04  0.7818608E-02  0.8527094E-01
          2   -1    0    0  501    0  0.00000000000E+00  0.00000000000E+00  0.18259430405E+04  0.18259430405E+04  0.00000000000E+00 0. -1.
         -2   -1    0    0    0  501 -0.00000000000E+00 -0.00000000000E+00 -0.65025880129E+03  0.65025880129E+03  0.00000000000E+00 0.  1.
         23    2    1    2    0    0  0.14896788245E+03  0.31549220462E+03 -0.58171581537E+03  0.68450384464E+03  0.91790316989E+02 0.  0.
         11    1    3    3    0    0  0.87661345090E+02  0.13551773309E+03 -0.19157789328E+03  0.25050280757E+03  0.00000000000E+00 0.  1.
        -11    1    3    3    0    0  0.61306537359E+02  0.17997447153E+03 -0.39013792209E+03  0.43400103707E+03  0.00000000000E+00 0. -1.
         22    1    1    2    0    0 -0.14896788245E+03 -0.31549220462E+03  0.17574000546E+04  0.17916979972E+04  0.00000000000E+00 0. -1.
<mgrwt>
<rscale>  0 0.21792985E+04</rscale>
<asrwt>0</asrwt>
<pdfrwt beam="1">  1        2 0.28091431E+00 0.21792985E+04</pdfrwt>
<pdfrwt beam="2">  1       -2 0.10003982E+00 0.21792985E+04</pdfrwt>
<totfact> 0.63070837E+00</totfact>
</mgrwt>
</event>
<event>
 6    1  0.1762360E-005  0.6908097E+03  0.7818608E-02  0.9733079E-01
          4   -1    0    0  501    0  0.00000000000E+00  0.00000000000E+00  0.27613982684E+03  0.27613982684E+03  0.00000000000E+00 0.  1.
         -4   -1    0    0    0  501 -0.00000000000E+00 -0.00000000000E+00 -0.43204384408E+03  0.43204384408E+03  0.00000000000E+00 0. -1.
         23    2    1    2    0    0  0.11845900443E+03 -0.22780027075E+03  0.14802340825E+03  0.31031763938E+03  0.91981567938E+02 0.  0.
         13    1    3    3    0    0  0.85888684371E+02 -0.70014946722E+02  0.72188838567E+02  0.13225047176E+03  0.00000000000E+00 0. -1.
        -13    1    3    3    0    0  0.32570320062E+02 -0.15778532403E+03  0.75834569680E+02  0.17806716762E+03  0.00000000000E+00 0.  1.
         22    1    1    2    0    0 -0.11845900443E+03  0.22780027075E+03 -0.30392742549E+03  0.39786603154E+03  0.00000000000E+00 0. -1.
<mgrwt>
<rscale>  0 0.69080971E+03</rscale>
<asrwt>0</asrwt>
<pdfrwt beam="1">  1        4 0.42483050E-01 0.69080971E+03</pdfrwt>
<pdfrwt beam="2">  1       -4 0.66468284E-01 0.69080971E+03</pdfrwt>
<totfact> 0.22461260E+01</totfact>
</mgrwt>
</event>
<event>
 6    1  0.1762360E-005  0.1056359E+04  0.7818608E-02  0.9248803E-01
         -2   -1    0    0    0  501 -0.00000000000E+00  0.00000000000E+00  0.10739108625E+03  0.10739108625E+03  0.00000000000E+00 0. -1.
          2   -1    0    0  501    0  0.00000000000E+00 -0.00000000000E+00 -0.25977363964E+04  0.25977363964E+04  0.00000000000E+00 0.  1.
         23    2    1    2    0    0  0.44280633969E+03  0.38233429799E+02 -0.54319895673E+03  0.70789986137E+03  0.92292239648E+02 0.  0.
         11    1    3    3    0    0  0.25175008469E+03  0.89654675143E+00 -0.36880888132E+03  0.44654103941E+03  0.00000000000E+00 0.  1.
        -11    1    3    3    0    0  0.19105625500E+03  0.37336883047E+02 -0.17439007542E+03  0.26135882196E+03  0.00000000000E+00 0. -1.
         22    1    1    2    0    0 -0.44280633969E+03 -0.38233429799E+02 -0.19471463534E+04  0.19972276213E+04  0.00000000000E+00 0.  1.
<mgrwt>
<rscale>  0 0.10563593E+04</rscale>
<asrwt>0</asrwt>
<pdfrwt beam="1">  1        2 0.39965176E+00 0.10563593E+04</pdfrwt>
<pdfrwt beam="2">  1       -2 0.16521705E-01 0.10563593E+04</pdfrwt>
<totfact> 0.91586811E+01</totfact>
</mgrwt>
</event>
<event>
 6    1  0.1762360E-005  0.3045921E+04  0.7818608E-02  0.8230738E-01
          2   -1    0    0  501    0  0.00000000000E+00  0.00000000000E+00  0.18660369121E+04  0.18660369121E+04  0.00000000000E+00 0. -1.
         -2   -1    0    0    0  501 -0.00000000000E+00 -0.00000000000E+00 -0.12429596809E+04  0.12429596809E+04  0.00000000000E+00 0.  1.
         23    2    1    2    0    0 -0.21074757243E+03  0.14177725577E+04 -0.20947069430E+03  0.14513990504E+04  0.90485728449E+02 0.  0.
         11    1    3    3    0    0 -0.13253230424E+03  0.10989178756E+04 -0.18439718811E+03  0.11221353002E+04  0.00000000000E+00 0.  1.
        -11    1    3    3    0    0 -0.78215268188E+02  0.31885468216E+03 -0.25073506189E+02  0.32926375025E+03  0.00000000000E+00 0. -1.
         22    1    1    2    0    0  0.21074757243E+03 -0.14177725577E+04  0.83254792549E+03  0.16575975425E+04  0.00000000000E+00 0. -1.
<mgrwt>
<rscale>  0 0.30459210E+04</rscale>
<asrwt>0</asrwt>
<pdfrwt beam="1">  1        2 0.28708260E+00 0.30459210E+04</pdfrwt>
<pdfrwt beam="2">  1       -2 0.19122457E+00 0.30459210E+04</pdfrwt>
<totfact> 0.10287490E+00</totfact>
</mgrwt>
</event>
<event>
 6    1  0.1762360E-005  0.2853361E+04  0.7818608E-02  0.8286891E-01
          1   -1    0    0  501    0  0.00000000000E+00  0.00000000000E+00  0.12668655336E+04  0.12668655336E+04  0.00000000000E+00 0. -1.
         -1   -1    0    0    0  501 -0.00000000000E+00 -0.00000000000E+00 -0.16066561340E+04  0.16066561340E+04  0.00000000000E+00 0.  1.
         23    2    1    2    0    0  0.57107628159E+03  0.10017976107E+04  0.67340473690E+03  0.13385000510E+04  0.91552577465E+02 0.  0.
         11    1    3    3    0    0  0.17817208034E+03  0.28578342914E+03  0.24307754871E+03  0.41533619306E+03  0.00000000000E+00 0.  1.
        -11    1    3    3    0    0  0.39290420125E+03  0.71601418160E+03  0.43032718819E+03  0.92316385789E+03  0.00000000000E+00 0. -1.
         22    1    1    2    0    0 -0.57107628159E+03 -0.10017976107E+04 -0.10131953373E+04  0.15350216167E+04  0.00000000000E+00 0.  1.
<mgrwt>
<rscale>  0 0.28533610E+04</rscale>
<asrwt>0</asrwt>
<pdfrwt beam="1">  1        1 0.19490239E+00 0.28533610E+04</pdfrwt>
<pdfrwt beam="2">  1       -1 0.24717787E+00 0.28533610E+04</pdfrwt>
<totfact> 0.59901932E-01</totfact>
</mgrwt>
</event>
<event>
 6    1  0.1762360E-005  0.3453174E+04  0.7818608E-02  0.8124978E-01
         -1   -1    0    0    0  501 -0.00000000000E+00  0.00000000000E+00  0.13661653594E+04  0.13661653594E+04  0.00000000000E+00 0.  1.
          1   -1    0    0  501    0  0.00000000000E+00 -0.00000000000E+00 -0.21820953961E+04  0.21820953961E+04  0.00000000000E+00 0. -1.
         23    2    1    2    0    0  0.54858816463E+03 -0.14881622243E+04 -0.11061215151E+04  0.19358752947E+04  0.92371912111E+02 0.  0.
         11    1    3    3    0    0  0.45536693181E+03 -0.13104095138E+04 -0.98576050734E+03  0.17018389801E+04  0.00000000000E+00 0.  1.
        -11    1    3    3    0    0  0.93221232815E+02 -0.17775271049E+03 -0.12036100780E+03  0.23403631456E+03  0.00000000000E+00 0. -1.
         22    1    1    2    0    0 -0.54858816463E+03  0.14881622243E+04  0.29019147847E+03  0.16123854608E+04  0.00000000000E+00 0.  1.
<mgrwt>
<rscale>  0 0.34531743E+04</rscale>
<asrwt>0</asrwt>
<pdfrwt beam="1">  1        1 0.33570698E+00 0.34531743E+04</pdfrwt>
<pdfrwt beam="2">  1       -1 0.21017929E+00 0.34531743E+04</pdfrwt>
<totfact> 0.23528202E-01</totfact>
</mgrwt>
</event>
<event>
 6    1  0.1762360E-005  0.4130078E+04  0.7818608E-02  0.7978808E-01
         -2   -1    0    0    0  501 -0.00000000000E+00  0.00000000000E+00  0.12564444546E+04  0.12564444546E+04  0.00000000000E+00 0.  1.
          2   -1    0    0  501    0  0.00000000000E+00 -0.00000000000E+00 -0.33940116058E+04  0.33940116058E+04  0.00000000000E+00 0. -1.
         23    2    1    2    0    0  0.25723578874E+03 -0.70990445040E+02 -0.33738890350E+04  0.33856629173E+04  0.91521991279E+02 0.  0.
         11    1    3    3    0    0  0.16274368776E+03 -0.87620946876E+02 -0.20599249716E+04  0.20682006254E+04  0.00000000000E+00 0.  1.
        -11    1    3    3    0    0  0.94492100978E+02  0.16630501836E+02 -0.13139640634E+04  0.13174622919E+04  0.00000000000E+00 0. -1.
         22    1    1    2    0    0 -0.25723578874E+03  0.70990445040E+02  0.12363218838E+04  0.12647931430E+04  0.00000000000E+00 0.  1.
<mgrwt>
<rscale>  0 0.41300785E+04</rscale>
<asrwt>0</asrwt>
<pdfrwt beam="1">  1        2 0.52215563E+00 0.41300785E+04</pdfrwt>
<pdfrwt beam="2">  1       -2 0.19329915E+00 0.41300785E+04</pdfrwt>
<totfact> 0.11051207E-01</totfact>
</mgrwt>
</event>
<event>
 6    1  0.1762360E-005  0.4665506E+04  0.7818608E-02  0.7882285E-01
          2   -1    0    0  501    0  0.00000000000E+00  0.00000000000E+00  0.26943683819E+04  0.26943683819E+04  0.00000000000E+00 0. -1.
         -2   -1    0    0    0  501 -0.00000000000E+00 -0.00000000000E+00 -0.20196702499E+04  0.20196702499E+04  0.00000000000E+00 0.  1.
         23    2    1    2    0    0 -0.17642491562E+04  0.68242993162E+03 -0.10401587087E+04  0.21608015334E+04  0.94060782369E+02 0.  0.
         11    1    3    3    0    0 -0.13077152730E+04  0.48163626171E+03 -0.80524641502E+03  0.16095075373E+04  0.00000000000E+00 0. -1.
        -11    1    3    3    0    0 -0.45653388327E+03  0.20079366991E+03 -0.23491229365E+03  0.55129399612E+03  0.00000000000E+00 0.  1.
         22    1    1    2    0    0  0.17642491562E+04 -0.68242993162E+03  0.17148568406E+04  0.25532370984E+04  0.00000000000E+00 0. -1.
<mgrwt>
<rscale>  0 0.46655056E+04</rscale>
<asrwt>0</asrwt>
<pdfrwt beam="1">  1        2 0.41451821E+00 0.46655056E+04</pdfrwt>
<pdfrwt beam="2">  1       -2 0.31071850E+00 0.46655056E+04</pdfrwt>
<totfact> 0.54648244E-02</totfact>
</mgrwt>
</event>
<event>
 6    1  0.1762360E-005  0.3324841E+04  0.7818608E-02  0.8156603E-01
          2   -1    0    0  501    0  0.00000000000E+00  0.00000000000E+00  0.24377837867E+04  0.24377837867E+04  0.00000000000E+00 0. -1.
         -2   -1    0    0    0  501 -0.00000000000E+00 -0.00000000000E+00 -0.11336700048E+04  0.11336700048E+04  0.00000000000E+00 0.  1.
         23    2    1    2    0    0  0.27508394151E+03  0.15189658600E+04  0.13118470568E+04  0.20277607319E+04  0.89120293510E+02 0.  0.
         13    1    3    3    0    0  0.26075913929E+03  0.12978932700E+04  0.10992800180E+04  0.17207378728E+04  0.00000000000E+00 0. -1.
        -13    1    3    3    0    0  0.14324802220E+02  0.22107258997E+03  0.21256703885E+03  0.30702285908E+03  0.00000000000E+00 0.  1.
         22    1    1    2    0    0 -0.27508394151E+03 -0.15189658600E+04 -0.77332750095E+01  0.15436930596E+04  0.00000000000E+00 0.  1.
<mgrwt>
<rscale>  0 0.33248413E+04</rscale>
<asrwt>0</asrwt>
<pdfrwt beam="1">  1        2 0.37504366E+00 0.33248413E+04</pdfrwt>
<pdfrwt beam="2">  1       -2 0.17441077E+00 0.33248413E+04</pdfrwt>
<totfact> 0.62517937E-01</totfact>
</mgrwt>
</event>
<event>
 6    1  0.1762360E-005  0.2144836E+04  0.7818608E-02  0.8541746E-01
          2   -1    0    0  501    0  0.00000000000E+00  0.00000000000E+00  0.10863719027E+04  0.10863719027E+04  0.00000000000E+00 0. -1.
         -2   -1    0    0    0  501 -0.00000000000E+00 -0.00000000000E+00 -0.10586429966E+04  0.10586429966E+04  0.00000000000E+00 0.  1.
         23    2    1    2    0    0  0.83066410832E+01 -0.48202576708E+03 -0.94198261981E+03  0.10620752501E+04  0.90855601944E+02 0.  0.
         11    1    3    3    0    0  0.29406925970E+02 -0.96613528286E+02 -0.25168601087E+03  0.27119142540E+03  0.00000000000E+00 0. -1.
        -11    1    3    3    0    0 -0.21100284887E+02 -0.38541223879E+03 -0.69029660893E+03  0.79088382468E+03  0.00000000000E+00 0.  1.
         22    1    1    2    0    0 -0.83066410832E+01  0.48202576708E+03  0.96971152593E+03  0.10829396493E+04  0.00000000000E+00 0. -1.
<mgrwt>
<rscale>  0 0.21448357E+04</rscale>
<asrwt>0</asrwt>
<pdfrwt beam="1">  1        2 0.16713414E+00 0.21448357E+04</pdfrwt>
<pdfrwt beam="2">  1       -2 0.16286815E+00 0.21448357E+04</pdfrwt>
<totfact> 0.48937493E+00</totfact>
</mgrwt>
</event>
<event>
 6    1  0.1762360E-005  0.2488617E+04  0.7818608E-02  0.8407052E-01
          2   -1    0    0  501    0  0.00000000000E+00  0.00000000000E+00  0.83208099587E+03  0.83208099587E+03  0.00000000000E+00 0. -1.
         -2   -1    0    0    0  501 -0.00000000000E+00 -0.00000000000E+00 -0.18607608479E+04  0.18607608479E+04  0.00000000000E+00 0.  1.
         23    2    1    2    0    0  0.37633735761E+03 -0.10234836685E+04 -0.11597957732E+04  0.15945067350E+04  0.90426024755E+02 0.  0.
         11    1    3    3    0    0  0.29900765690E+03 -0.83566621731E+03 -0.89130311638E+03  0.12578413457E+04  0.00000000000E+00 0. -1.
        -11    1    3    3    0    0  0.77329700709E+02 -0.18781745116E+03 -0.26849265686E+03  0.33666538931E+03  0.00000000000E+00 0.  1.
         22    1    1    2    0    0 -0.37633735761E+03  0.10234836685E+04  0.13111592121E+03  0.10983351088E+04  0.00000000000E+00 0.  1.
<mgrwt>
<rscale>  0 0.24886171E+04</rscale>
<asrwt>0</asrwt>
<pdfrwt beam="1">  1        2 0.12801246E+00 0.24886171E+04</pdfrwt>
<pdfrwt beam="2">  1       -2 0.28627090E+00 0.24886171E+04</pdfrwt>
<totfact> 0.11248000E+00</totfact>
</mgrwt>
</event>
<event>
 6    1  0.1762360E-005  0.4121544E+04  0.7818608E-02  0.7980466E-01
         -1   -1    0    0    0  501 -0.00000000000E+00  0.00000000000E+00  0.17854874408E+04  0.17854874408E+04  0.00000000000E+00 0.  1.
          1   -1    0    0  501    0  0.00000000000E+00 -0.00000000000E+00 -0.23784996732E+04  0.23784996732E+04  0.00000000000E+00 0. -1.
         23    2    1    2    0    0  0.52094520979E+03  0.42213430500E+03 -0.22643128836E+04  0.23632019658E+04  0.89606992793E+02 0.  0.
         11    1    3    3    0    0  0.38647831879E+03  0.34983929176E+03 -0.16617151624E+04  0.17415654744E+04  0.00000000000E+00 0. -1.
        -11    1    3    3    0    0  0.13446689100E+03  0.72295013233E+02 -0.60259772127E+03  0.62163649136E+03  0.00000000000E+00 0.  1.
         22    1    1    2    0    0 -0.52094520979E+03 -0.42213430500E+03  0.16713006513E+04  0.18007851482E+04  0.00000000000E+00 0.  1.
<mgrwt>
<rscale>  0 0.41215440E+04</rscale>
<asrwt>0</asrwt>
<pdfrwt beam="1">  1        1 0.36592303E+00 0.41215440E+04</pdfrwt>
<pdfrwt beam="2">  1       -1 0.27469038E+00 0.41215440E+04</pdfrwt>
<totfact> 0.61370200E-02</totfact>
</mgrwt>
</event>
<event>
 6    1  0.1762360E-005  0.3319871E+04  0.7818608E-02  0.8157858E-01
          2   -1    0    0  501    0  0.00000000000E+00  0.00000000000E+00  0.32365480972E+04  0.32365480972E+04  0.00000000000E+00 0. -1.
         -2   -1    0    0    0  501 -0.00000000000E+00 -0.00000000000E+00 -0.85133481559E+03  0.85133481559E+03  0.00000000000E+00 0.  1.
         23    2    1    2    0    0  0.92509386021E+03  0.10754069566E+04  0.13395039412E+03  0.14269651461E+04  0.77382476193E+02 0.  0.
         11    1    3    3    0    0  0.68992140248E+03  0.83238676760E+03  0.75487054183E+02  0.10837700715E+04  0.00000000000E+00 0. -1.
        -11    1    3    3    0    0  0.23517245773E+03  0.24302018899E+03  0.58463339933E+02  0.34319507463E+03  0.00000000000E+00 0.  1.
         22    1    1    2    0    0 -0.92509386021E+03 -0.10754069566E+04  0.22512628875E+04  0.26609177667E+04  0.00000000000E+00 0. -1.
<mgrwt>
<rscale>  0 0.33198711E+04</rscale>
<asrwt>0</asrwt>
<pdfrwt beam="1">  1        2 0.49793047E+00 0.33198711E+04</pdfrwt>
<pdfrwt beam="2">  1       -2 0.13097459E+00 0.33198711E+04</pdfrwt>
<totfact> 0.43560255E-01</totfact>
</mgrwt>
</event>
<event>
 6    1  0.1762360E-005  0.1679417E+04  0.7818608E-02  0.8773191E-01
         -2   -1    0    0    0  501 -0.00000000000E+00  0.00000000000E+00  0.54282291028E+03  0.54282291028E+03  0.00000000000E+00 0.  1.
          2   -1    0    0  501    0  0.00000000000E+00 -0.00000000000E+00 -0.12989696365E+04  0.12989696365E+04  0.00000000000E+00 0. -1.
         23    2    1    2    0    0  0.37623482513E+03 -0.13292251732E+03  0.42776747755E+03  0.59244316365E+03  0.93716850452E+02 0.  0.
         13    1    3    3    0    0  0.25777107812E+03 -0.48882711089E+02  0.24481329124E+03  0.35884397128E+03  0.00000000000E+00 0. -1.
        -13    1    3    3    0    0  0.11846374701E+03 -0.84039806235E+02  0.18295418631E+03  0.23359919237E+03  0.00000000000E+00 0.  1.
         22    1    1    2    0    0 -0.37623482513E+03  0.13292251732E+03 -0.11839142038E+04  0.12493493832E+04  0.00000000000E+00 0. -1.
<mgrwt>
<rscale>  0 0.16794171E+04</rscale>
<asrwt>0</asrwt>
<pdfrwt beam="1">  1        2 0.19984148E+00 0.16794171E+04</pdfrwt>
<pdfrwt beam="2">  1       -2 0.83511217E-01 0.16794171E+04</pdfrwt>
<totfact> 0.19792230E+01</totfact>
</mgrwt>
</event>
<event>
 6    1  0.1762360E-005  0.3383523E+03  0.7818608E-02  0.1067500E+00
          2   -1    0    0  501    0  0.00000000000E+00  0.00000000000E+00  0.29213391298E+03  0.29213391298E+03  0.00000000000E+00 0. -1.
         -2   -1    0    0    0  501 -0.00000000000E+00 -0.00000000000E+00 -0.97970724097E+02  0.97970724097E+02  0.00000000000E+00 0.  1.
         23    2    1    2    0    0  0.10550441307E+03  0.67942969075E+02 -0.16661421940E+02  0.14475907516E+03  0.70215088380E+02 0.  0.
         11    1    3    3    0    0  0.28360660704E+01  0.18787788291E+02 -0.24097710162E+02  0.30687520178E+02  0.00000000000E+00 0. -1.
        -11    1    3    3    0    0  0.10266834700E+03  0.49155180785E+02  0.74362882223E+01  0.11407155498E+03  0.00000000000E+00 0.  1.
         22    1    1    2    0    0 -0.10550441307E+03 -0.67942969075E+02  0.21082461082E+03  0.24534556192E+03  0.00000000000E+00 0. -1.
<mgrwt>
<rscale>  0 0.33835231E+03</rscale>
<asrwt>0</asrwt>
<pdfrwt beam="1">  1        2 0.44943679E-01 0.33835231E+03</pdfrwt>
<pdfrwt beam="2">  1       -2 0.15072419E-01 0.33835231E+03</pdfrwt>
<totfact> 0.38312092E+03</totfact>
</mgrwt>
</event>
<event>
 6    1  0.1762360E-005  0.1998004E+04  0.7818608E-02  0.8607554E-01
          2   -1    0    0  501    0  0.00000000000E+00  0.00000000000E+00  0.17161619403E+04  0.17161619403E+04  0.00000000000E+00 0. -1.
         -2   -1    0    0    0  501 -0.00000000000E+00 -0.00000000000E+00 -0.58153327482E+03  0.58153327482E+03  0.00000000000E+00 0.  1.
         23    2    1    2    0    0 -0.85450288607E+03 -0.46681120903E+03  0.32223490461E+03  0.10295976203E+04  0.90266487930E+02 0.  0.
         13    1    3    3    0    0 -0.46339478203E+03 -0.22842180492E+03  0.21231000028E+03  0.55855776890E+03  0.00000000000E+00 0. -1.
        -13    1    3    3    0    0 -0.39110810404E+03 -0.23838940411E+03  0.10992490433E+03  0.47103985142E+03  0.00000000000E+00 0.  1.
         22    1    1    2    0    0  0.85450288607E+03  0.46681120903E+03  0.81239376085E+03  0.12680975948E+04  0.00000000000E+00 0. -1.
<mgrwt>
<rscale>  0 0.19980043E+04</rscale>
<asrwt>0</asrwt>
<pdfrwt beam="1">  1        2 0.26402491E+00 0.19980043E+04</pdfrwt>
<pdfrwt beam="2">  1       -2 0.89466659E-01 0.19980043E+04</pdfrwt>
<totfact> 0.95631197E+00</totfact>
</mgrwt>
</event>
<event>
 6    1  0.2045780E-005  0.4129934E+04  0.7818608E-02  0.7978836E-01
         -2   -1    0    0    0  501 -0.00000000000E+00  0.00000000000E+00  0.18302463721E+04  0.18302463721E+04  0.00000000000E+00 0.  1.
          2   -1    0    0  501    0  0.00000000000E+00 -0.00000000000E+00 -0.23297889111E+04  0.23297889111E+04  0.00000000000E+00 0. -1.
         23    2    1    2    0    0 -0.81805529494E+03  0.16838272715E+04 -0.11254101435E+04  0.21861561065E+04  0.90784277579E+02 0.  0.
         13    1    3    3    0    0 -0.18341003408E+03  0.45185891732E+03 -0.26626906250E+03  0.55562121577E+03  0.00000000000E+00 0. -1.
        -13    1    3    3    0    0 -0.63464526086E+03  0.12319683541E+04 -0.85914108099E+03  0.16305348907E+04  0.00000000000E+00 0.  1.
         22    1    1    2    0    0  0.81805529494E+03 -0.16838272715E+04  0.62586760450E+03  0.19738791767E+04  0.00000000000E+00 0.  1.
<mgrwt>
<rscale>  0 0.41299335E+04</rscale>
<asrwt>0</asrwt>
<pdfrwt beam="1">  1        2 0.35842906E+00 0.41299335E+04</pdfrwt>
<pdfrwt beam="2">  1       -2 0.28157637E+00 0.41299335E+04</pdfrwt>
<totfact> 0.14021326E-01</totfact>
</mgrwt>
</event>
<event>
 6    1  0.1762360E-005  0.1180965E+04  0.7818608E-02  0.9129683E-01
          2   -1    0    0  501    0  0.00000000000E+00  0.00000000000E+00  0.18481077909E+04  0.18481077909E+04  0.00000000000E+00 0. -1.
         -2   -1    0    0    0  501 -0.00000000000E+00 -0.00000000000E+00 -0.18866302260E+03  0.18866302260E+03  0.00000000000E+00 0.  1.
         23    2    1    2    0    0  0.26051868288E+03  0.51263598262E+03  0.10353630827E+04  0.11881580720E+04  0.95274635335E+02 0.  0.
         13    1    3    3    0    0  0.15197686036E+03  0.39135122289E+03  0.72910707544E+03  0.84133814438E+03  0.00000000000E+00 0.  1.
        -13    1    3    3    0    0  0.10854182252E+03  0.12128475973E+03  0.30625600731E+03  0.34681992761E+03  0.00000000000E+00 0. -1.
         22    1    1    2    0    0 -0.26051868288E+03 -0.51263598262E+03  0.62408168558E+03  0.84861274152E+03  0.00000000000E+00 0.  1.
<mgrwt>
<rscale>  0 0.11809650E+04</rscale>
<asrwt>0</asrwt>
<pdfrwt beam="1">  1        2 0.28432426E+00 0.11809650E+04</pdfrwt>
<pdfrwt beam="2">  1       -2 0.29025082E-01 0.11809650E+04</pdfrwt>
<totfact> 0.87468811E+01</totfact>
</mgrwt>
</event>
<event>
 6    1  0.1762360E-005  0.1946824E+04  0.7818608E-02  0.8631894E-01
          1   -1    0    0  501    0  0.00000000000E+00  0.00000000000E+00  0.15181970320E+04  0.15181970320E+04  0.00000000000E+00 0. -1.
         -1   -1    0    0    0  501 -0.00000000000E+00 -0.00000000000E+00 -0.62411566882E+03  0.62411566882E+03  0.00000000000E+00 0.  1.
         23    2    1    2    0    0  0.61389949798E+03 -0.45221865495E+03  0.11101162290E+04  0.13498195659E+04  0.90997325010E+02 0.  0.
         11    1    3    3    0    0  0.28114773592E+03 -0.22158500407E+03  0.44423197137E+03  0.57051381038E+03  0.00000000000E+00 0. -1.
        -11    1    3    3    0    0  0.33275176206E+03 -0.23063365088E+03  0.66588425765E+03  0.77930575557E+03  0.00000000000E+00 0.  1.
         22    1    1    2    0    0 -0.61389949798E+03  0.45221865495E+03 -0.21603486587E+03  0.79249313484E+03  0.00000000000E+00 0.  1.
<mgrwt>
<rscale>  0 0.19468236E+04</rscale>
<asrwt>0</asrwt>
<pdfrwt beam="1">  1        1 0.23356877E+00 0.19468236E+04</pdfrwt>
<pdfrwt beam="2">  1       -1 0.96017795E-01 0.19468236E+04</pdfrwt>
<totfact> 0.61898518E+00</totfact>
</mgrwt>
</event>
<event>
 6    1  0.1762360E-005  0.3897686E+04  0.7818608E-02  0.8025511E-01
         -2   -1    0    0    0  501 -0.00000000000E+00  0.00000000000E+00  0.12960907360E+04  0.12960907360E+04  0.00000000000E+00 0.  1.
          2   -1    0    0  501    0  0.00000000000E+00 -0.00000000000E+00 -0.29303412941E+04  0.29303412941E+04  0.00000000000E+00 0. -1.
         23    2    1    2    0    0  0.14023300926E+04  0.51973010679E+03 -0.21707020957E+04  0.26375867499E+04  0.90924156861E+02 0.  0.
         11    1    3    3    0    0  0.64455497882E+03  0.23742170186E+03 -0.91758125277E+03  0.11462004801E+04  0.00000000000E+00 0. -1.
        -11    1    3    3    0    0  0.75777511378E+03  0.28230840493E+03 -0.12531208429E+04  0.14913862697E+04  0.00000000000E+00 0.  1.
         22    1    1    2    0    0 -0.14023300926E+04 -0.51973010679E+03  0.53645153762E+03  0.15888452803E+04  0.00000000000E+00 0.  1.
<mgrwt>
<rscale>  0 0.38976856E+04</rscale>
<asrwt>0</asrwt>
<pdfrwt beam="1">  1        2 0.45082173E+00 0.38976856E+04</pdfrwt>
<pdfrwt beam="2">  1       -2 0.19939858E+00 0.38976856E+04</pdfrwt>
<totfact> 0.20532493E-01</totfact>
</mgrwt>
</event>
<event>
 6    1  0.1762360E-005  0.1844295E+04  0.7818608E-02  0.8683092E-01
          2   -1    0    0  501    0  0.00000000000E+00  0.00000000000E+00  0.15364430714E+04  0.15364430714E+04  0.00000000000E+00 0. -1.
         -2   -1    0    0    0  501 -0.00000000000E+00 -0.00000000000E+00 -0.55345767216E+03  0.55345767216E+03  0.00000000000E+00 0.  1.
         23    2    1    2    0    0 -0.22262111656E+02  0.84883483518E+03  0.91600454189E+02  0.85881045470E+03  0.90269456912E+02 0.  0.
         11    1    3    3    0    0 -0.15684477405E+02  0.25557245614E+03 -0.12903591188E+02  0.25637820858E+03  0.00000000000E+00 0.  1.
        -11    1    3    3    0    0 -0.65776342503E+01  0.59326237904E+03  0.10450404538E+03  0.60243224612E+03  0.00000000000E+00 0. -1.
         22    1    1    2    0    0  0.22262111656E+02 -0.84883483518E+03  0.89138494501E+03  0.12310902888E+04  0.00000000000E+00 0. -1.
<mgrwt>
<rscale>  0 0.18442952E+04</rscale>
<asrwt>0</asrwt>
<pdfrwt beam="1">  1        2 0.23637586E+00 0.18442952E+04</pdfrwt>
<pdfrwt beam="2">  1       -2 0.85147335E-01 0.18442952E+04</pdfrwt>
<totfact> 0.13669159E+01</totfact>
</mgrwt>
</event>
<event>
 6    1  0.1762360E-005  0.4138818E+04  0.7818608E-02  0.7977113E-01
          1   -1    0    0  501    0  0.00000000000E+00  0.00000000000E+00  0.27342208813E+04  0.27342208813E+04  0.00000000000E+00 0. -1.
         -1   -1    0    0    0  501 -0.00000000000E+00 -0.00000000000E+00 -0.15662424900E+04  0.15662424900E+04  0.00000000000E+00 0.  1.
         23    2    1    2    0    0  0.41507073986E+03 -0.15302752473E+04  0.19644302414E+04  0.25261010630E+04  0.90412142925E+02 0.  0.
         13    1    3    3    0    0  0.22643483664E+03 -0.66337888328E+03  0.86884799784E+03  0.11163517015E+04  0.00000000000E+00 0.  1.
        -13    1    3    3    0    0  0.18863590322E+03 -0.86689636404E+03  0.10955822436E+04  0.14097493615E+04  0.00000000000E+00 0. -1.
         22    1    1    2    0    0 -0.41507073986E+03  0.15302752473E+04 -0.79645185008E+03  0.17743623083E+04  0.00000000000E+00 0.  1.
<mgrwt>
<rscale>  0 0.41388177E+04</rscale>
<asrwt>0</asrwt>
<pdfrwt beam="1">  1        1 0.42064937E+00 0.41388177E+04</pdfrwt>
<pdfrwt beam="2">  1       -1 0.24096038E+00 0.41388177E+04</pdfrwt>
<totfact> 0.57384381E-02</totfact>
</mgrwt>
</event>
<event>
 6    1  0.1762360E-005  0.3047934E+04  0.7818608E-02  0.8230174E-01
          1   -1    0    0  501    0  0.00000000000E+00  0.00000000000E+00  0.20971394504E+04  0.20971394504E+04  0.00000000000E+00 0. -1.
         -1   -1    0    0    0  501 -0.00000000000E+00 -0.00000000000E+00 -0.11074494315E+04  0.11074494315E+04  0.00000000000E+00 0.  1.
         23    2    1    2    0    0 -0.92474238153E+03 -0.11688818427E+04  0.16809588910E+03  0.15026928367E+04  0.91631321642E+02 0.  0.
         11    1    3    3    0    0 -0.31942755276E+03 -0.34149131933E+03  0.34873555558E+02  0.46889918694E+03  0.00000000000E+00 0. -1.
        -11    1    3    3    0    0 -0.60531482877E+03 -0.82739052339E+03  0.13322233354E+03  0.10337936498E+04  0.00000000000E+00 0.  1.
         22    1    1    2    0    0  0.92474238153E+03  0.11688818427E+04  0.82159412976E+03  0.17018960451E+04  0.00000000000E+00 0. -1.
<mgrwt>
<rscale>  0 0.30479343E+04</rscale>
<asrwt>0</asrwt>
<pdfrwt beam="1">  1        1 0.32263684E+00 0.30479343E+04</pdfrwt>
<pdfrwt beam="2">  1       -1 0.17037684E+00 0.30479343E+04</pdfrwt>
<totfact> 0.53046077E-01</totfact>
</mgrwt>
</event>
<event>
 6    1  0.1762360E-005  0.2344856E+04  0.7818608E-02  0.8460442E-01
         -2   -1    0    0    0  501 -0.00000000000E+00  0.00000000000E+00  0.10870891819E+04  0.10870891819E+04  0.00000000000E+00 0.  1.
          2   -1    0    0  501    0  0.00000000000E+00 -0.00000000000E+00 -0.12644665586E+04  0.12644665586E+04  0.00000000000E+00 0. -1.
         23    2    1    2    0    0  0.11113483341E+04 -0.32799311917E+03  0.75064867363E+02  0.11656376605E+04  0.10198929041E+03 0.  0.
         13    1    3    3    0    0  0.32003356874E+03 -0.12840783908E+03 -0.11050110851E+02  0.34501038131E+03  0.00000000000E+00 0. -1.
        -13    1    3    3    0    0  0.79131476533E+03 -0.19958528009E+03  0.86114978213E+02  0.82062727918E+03  0.00000000000E+00 0.  1.
         22    1    1    2    0    0 -0.11113483341E+04  0.32799311917E+03 -0.25244224406E+03  0.11859180800E+04  0.00000000000E+00 0. -1.
<mgrwt>
<rscale>  0 0.23448564E+04</rscale>
<asrwt>0</asrwt>
<pdfrwt beam="1">  1        2 0.19453332E+00 0.23448564E+04</pdfrwt>
<pdfrwt beam="2">  1       -2 0.16724449E+00 0.23448564E+04</pdfrwt>
<totfact> 0.34944252E+00</totfact>
</mgrwt>
</event>
<event>
 6    1  0.1762360E-005  0.2684949E+04  0.7818608E-02  0.8339905E-01
         -2   -1    0    0    0  501 -0.00000000000E+00  0.00000000000E+00  0.73464004679E+03  0.73464004679E+03  0.00000000000E+00 0.  1.
          2   -1    0    0  501    0  0.00000000000E+00 -0.00000000000E+00 -0.24532257536E+04  0.24532257536E+04  0.00000000000E+00 0. -1.
         23    2    1    2    0    0  0.73324313417E+03  0.29522531098E+03 -0.21462884164E+04  0.22891260795E+04  0.93492048224E+02 0.  0.
         11    1    3    3    0    0  0.65972258560E+03  0.29401362534E+03 -0.19346978054E+04  0.20651231198E+04  0.00000000000E+00 0. -1.
        -11    1    3    3    0    0  0.73520548571E+02  0.12116856429E+01 -0.21159061105E+03  0.22400295964E+03  0.00000000000E+00 0.  1.
         22    1    1    2    0    0 -0.73324313417E+03 -0.29522531098E+03  0.42770270966E+03  0.89873972089E+03  0.00000000000E+00 0.  1.
<mgrwt>
<rscale>  0 0.26849491E+04</rscale>
<asrwt>0</asrwt>
<pdfrwt beam="1">  1        2 0.37741935E+00 0.26849491E+04</pdfrwt>
<pdfrwt beam="2">  1       -2 0.11302155E+00 0.26849491E+04</pdfrwt>
<totfact> 0.20014433E+00</totfact>
</mgrwt>
</event>
<event>
 6    1  0.1762360E-005  0.2724123E+04  0.7818608E-02  0.8327220E-01
         -2   -1    0    0    0  501 -0.00000000000E+00  0.00000000000E+00  0.52054995204E+03  0.52054995204E+03  0.00000000000E+00 0. -1.
          2   -1    0    0  501    0  0.00000000000E+00 -0.00000000000E+00 -0.35639448488E+04  0.35639448488E+04  0.00000000000E+00 0.  1.
         23    2    1    2    0    0  0.11553961979E+04 -0.69752072815E+03 -0.17812089752E+04  0.22366341890E+04  0.91386768717E+02 0.  0.
         13    1    3    3    0    0  0.52570734444E+03 -0.36383711490E+03 -0.80541388251E+03  0.10283176456E+04  0.00000000000E+00 0. -1.
        -13    1    3    3    0    0  0.62968885346E+03 -0.33368361326E+03 -0.97579509274E+03  0.12083165434E+04  0.00000000000E+00 0.  1.
         22    1    1    2    0    0 -0.11553961979E+04  0.69752072815E+03 -0.12621859215E+04  0.18478606118E+04  0.00000000000E+00 0. -1.
<mgrwt>
<rscale>  0 0.27241228E+04</rscale>
<asrwt>0</asrwt>
<pdfrwt beam="1">  1        2 0.54829922E+00 0.27241228E+04</pdfrwt>
<pdfrwt beam="2">  1       -2 0.80084607E-01 0.27241228E+04</pdfrwt>
<totfact> 0.88483004E-01</totfact>
</mgrwt>
</event>
<event>
 6    1  0.1762360E-005  0.2755369E+04  0.7818608E-02  0.8317260E-01
          1   -1    0    0  501    0  0.00000000000E+00  0.00000000000E+00  0.12110521325E+04  0.12110521325E+04  0.00000000000E+00 0. -1.
         -1   -1    0    0    0  501 -0.00000000000E+00 -0.00000000000E+00 -0.15672445401E+04  0.15672445401E+04  0.00000000000E+00 0.  1.
         23    2    1    2    0    0 -0.12479466157E+03 -0.69139133631E+03 -0.13714911924E+04  0.15436196663E+04  0.90431718555E+02 0.  0.
         13    1    3    3    0    0 -0.89282940348E+02 -0.33001249173E+03 -0.59018751164E+03  0.68205643977E+03  0.00000000000E+00 0.  1.
        -13    1    3    3    0    0 -0.35511721226E+02 -0.36137884458E+03 -0.78130368077E+03  0.86156322649E+03  0.00000000000E+00 0. -1.
         22    1    1    2    0    0  0.12479466157E+03  0.69139133631E+03  0.10152987848E+04  0.12346770063E+04  0.00000000000E+00 0. -1.
<mgrwt>
<rscale>  0 0.27553692E+04</rscale>
<asrwt>0</asrwt>
<pdfrwt beam="1">  1        1 0.18631571E+00 0.27553692E+04</pdfrwt>
<pdfrwt beam="2">  1       -1 0.24111455E+00 0.27553692E+04</pdfrwt>
<totfact> 0.72661040E-01</totfact>
</mgrwt>
</event>
<event>
 6    1  0.1762360E-005  0.7946523E+03  0.7818608E-02  0.9567790E-01
          2   -1    0    0  501    0  0.00000000000E+00  0.00000000000E+00  0.19476323497E+03  0.19476323497E+03  0.00000000000E+00 0. -1.
         -2   -1    0    0    0  501 -0.00000000000E+00 -0.00000000000E+00 -0.81056406812E+03  0.81056406812E+03  0.00000000000E+00 0.  1.
         23    2    1    2    0    0  0.11587182668E+03  0.35381239693E+03 -0.46637584524E+03  0.60415736473E+03  0.94287856560E+02 0.  0.
         11    1    3    3    0    0  0.99290681394E+02  0.33981740398E+03 -0.46195950758E+03  0.58201468546E+03  0.00000000000E+00 0. -1.
        -11    1    3    3    0    0  0.16581145284E+02  0.13994992951E+02 -0.44163376657E+01  0.22142679264E+02  0.00000000000E+00 0.  1.
         22    1    1    2    0    0 -0.11587182668E+03 -0.35381239693E+03 -0.14942498790E+03  0.40116993836E+03  0.00000000000E+00 0. -1.
<mgrwt>
<rscale>  0 0.79465233E+03</rscale>
<asrwt>0</asrwt>
<pdfrwt beam="1">  1        2 0.29963574E-01 0.79465233E+03</pdfrwt>
<pdfrwt beam="2">  1       -2 0.12470217E+00 0.79465233E+03</pdfrwt>
<totfact> 0.86616036E+01</totfact>
</mgrwt>
</event>
<event>
 6    1  0.1762360E-005  0.9486751E+03  0.7818608E-02  0.9366701E-01
         -2   -1    0    0    0  501 -0.00000000000E+00  0.00000000000E+00  0.86318497665E+02  0.86318497665E+02  0.00000000000E+00 0.  1.
          2   -1    0    0  501    0  0.00000000000E+00 -0.00000000000E+00 -0.26065803446E+04  0.26065803446E+04  0.00000000000E+00 0. -1.
         23    2    1    2    0    0  0.10499156227E+03 -0.34564577272E+03 -0.42694466099E+03  0.56864107323E+03  0.10284307594E+03 0.  0.
         11    1    3    3    0    0  0.34532440603E+02 -0.20474121876E+03 -0.30707214484E+03  0.37068147816E+03  0.00000000000E+00 0. -1.
        -11    1    3    3    0    0  0.70459121667E+02 -0.14090455396E+03 -0.11987251616E+03  0.19795959507E+03  0.00000000000E+00 0.  1.
         22    1    1    2    0    0 -0.10499156227E+03  0.34564577272E+03 -0.20933171859E+04  0.21242577690E+04  0.00000000000E+00 0. -1.
<mgrwt>
<rscale>  0 0.94867507E+03</rscale>
<asrwt>0</asrwt>
<pdfrwt beam="1">  1        2 0.40101231E+00 0.94867507E+03</pdfrwt>
<pdfrwt beam="2">  1       -2 0.13279770E-01 0.94867507E+03</pdfrwt>
<totfact> 0.13240162E+02</totfact>
</mgrwt>
</event>
<event>
 6    1  0.1762360E-005  0.5072535E+04  0.7818608E-02  0.7817414E-01
          2   -1    0    0  501    0  0.00000000000E+00  0.00000000000E+00  0.23451719618E+04  0.23451719618E+04  0.00000000000E+00 0. -1.
         -2   -1    0    0    0  501 -0.00000000000E+00 -0.00000000000E+00 -0.27429338816E+04  0.27429338816E+04  0.00000000000E+00 0.  1.
         23    2    1    2    0    0 -0.30513657177E+03  0.21095098035E+04 -0.15762380768E+04  0.26525471823E+04  0.91324373869E+02 0.  0.
         13    1    3    3    0    0 -0.16221582837E+03  0.14150360621E+04 -0.10637249468E+04  0.17776815785E+04  0.00000000000E+00 0.  1.
        -13    1    3    3    0    0 -0.14292074340E+03  0.69447374141E+03 -0.51251313000E+03  0.87486560386E+03  0.00000000000E+00 0. -1.
         22    1    1    2    0    0  0.30513657177E+03 -0.21095098035E+04  0.11784761570E+04  0.24355586610E+04  0.00000000000E+00 0. -1.
<mgrwt>
<rscale>  0 0.50725345E+04</rscale>
<asrwt>0</asrwt>
<pdfrwt beam="1">  1        2 0.36079568E+00 0.50725345E+04</pdfrwt>
<pdfrwt beam="2">  1       -2 0.42198983E+00 0.50725345E+04</pdfrwt>
<totfact> 0.16478083E-02</totfact>
</mgrwt>
</event>
<event>
 6    1  0.1762360E-005  0.4070366E+04  0.7818608E-02  0.7990500E-01
          3   -1    0    0  501    0  0.00000000000E+00  0.00000000000E+00  0.15317798723E+04  0.15317798723E+04  0.00000000000E+00 0. -1.
         -3   -1    0    0    0  501 -0.00000000000E+00 -0.00000000000E+00 -0.27040243777E+04  0.27040243777E+04  0.00000000000E+00 0.  1.
         23    2    1    2    0    0 -0.17004651020E+04  0.29278082990E+03  0.53467372882E+03  0.18086923786E+04  0.90498323005E+02 0.  0.
         11    1    3    3    0    0 -0.11061189852E+04  0.15663282009E+03  0.37466003841E+03  0.11783052211E+04  0.00000000000E+00 0. -1.
        -11    1    3    3    0    0 -0.59434611687E+03  0.13614800981E+03  0.16001369041E+03  0.63038715749E+03  0.00000000000E+00 0.  1.
         22    1    1    2    0    0  0.17004651020E+04 -0.29278082990E+03 -0.17069182343E+04  0.24271118714E+04  0.00000000000E+00 0.  1.
<mgrwt>
<rscale>  0 0.40703661E+04</rscale>
<asrwt>0</asrwt>
<pdfrwt beam="1">  1        3 0.23565844E+00 0.40703661E+04</pdfrwt>
<pdfrwt beam="2">  1       -3 0.41600375E+00 0.40703661E+04</pdfrwt>
<totfact> 0.15600142E-03</totfact>
</mgrwt>
</event>
<event>
 6    1  0.1762360E-005  0.1644014E+04  0.7818608E-02  0.8793955E-01
         -2   -1    0    0    0  501 -0.00000000000E+00  0.00000000000E+00  0.47076298318E+03  0.47076298318E+03  0.00000000000E+00 0.  1.
          2   -1    0    0  501    0  0.00000000000E+00 -0.00000000000E+00 -0.14353206417E+04  0.14353206417E+04  0.00000000000E+00 0. -1.
         23    2    1    2    0    0  0.50276672724E+03 -0.10591690311E+02  0.26609030996E+03  0.57665480458E+03  0.94022043527E+02 0.  0.
         11    1    3    3    0    0  0.28596188405E+03  0.10461367090E+02  0.10143350809E+03  0.30359907097E+03  0.00000000000E+00 0. -1.
        -11    1    3    3    0    0  0.21680484320E+03 -0.21053057401E+02  0.16465680187E+03  0.27305573361E+03  0.00000000000E+00 0.  1.
         22    1    1    2    0    0 -0.50276672724E+03  0.10591690311E+02 -0.12306479685E+04  0.13294288203E+04  0.00000000000E+00 0. -1.
<mgrwt>
<rscale>  0 0.16440144E+04</rscale>
<asrwt>0</asrwt>
<pdfrwt beam="1">  1        2 0.22081856E+00 0.16440144E+04</pdfrwt>
<pdfrwt beam="2">  1       -2 0.72425074E-01 0.16440144E+04</pdfrwt>
<totfact> 0.22772440E+01</totfact>
</mgrwt>
</event>
<event>
 6    1  0.1762360E-005  0.2562161E+04  0.7818608E-02  0.8381169E-01
          2   -1    0    0  501    0  0.00000000000E+00  0.00000000000E+00  0.13803215679E+04  0.13803215679E+04  0.00000000000E+00 0. -1.
         -2   -1    0    0    0  501 -0.00000000000E+00 -0.00000000000E+00 -0.11889742820E+04  0.11889742820E+04  0.00000000000E+00 0.  1.
         23    2    1    2    0    0  0.69896079056E+03 -0.40675896561E+02  0.11697227626E+04  0.13662084513E+04  0.89852522367E+02 0.  0.
         11    1    3    3    0    0  0.98021535293E+02 -0.32128622282E+02  0.20729281830E+03  0.23154002304E+03  0.00000000000E+00 0. -1.
        -11    1    3    3    0    0  0.60093925527E+03 -0.85472742789E+01  0.96242994433E+03  0.11346684283E+04  0.00000000000E+00 0.  1.
         22    1    1    2    0    0 -0.69896079056E+03  0.40675896561E+02 -0.97837547665E+03  0.12030873986E+04  0.00000000000E+00 0.  1.
<mgrwt>
<rscale>  0 0.25621607E+04</rscale>
<asrwt>0</asrwt>
<pdfrwt beam="1">  1        2 0.21235716E+00 0.25621607E+04</pdfrwt>
<pdfrwt beam="2">  1       -2 0.18291912E+00 0.25621607E+04</pdfrwt>
<totfact> 0.22817963E+00</totfact>
</mgrwt>
</event>
<event>
 6    1  0.1762360E-005  0.1598566E+04  0.7818608E-02  0.8821429E-01
         -1   -1    0    0    0  501 -0.00000000000E+00  0.00000000000E+00  0.37493141428E+03  0.37493141428E+03  0.00000000000E+00 0.  1.
          1   -1    0    0  501    0  0.00000000000E+00 -0.00000000000E+00 -0.17039209785E+04  0.17039209785E+04  0.00000000000E+00 0. -1.
         23    2    1    2    0    0 -0.33692114117E+03  0.31384132182E+03  0.17852749812E+03  0.50258467317E+03  0.93311604173E+02 0.  0.
         13    1    3    3    0    0 -0.32194537596E+03  0.29805380615E+03  0.14397453959E+03  0.46175054360E+03  0.00000000000E+00 0. -1.
        -13    1    3    3    0    0 -0.14975765209E+02  0.15787515669E+02  0.34552958535E+02  0.40834129575E+02  0.00000000000E+00 0.  1.
         22    1    1    2    0    0  0.33692114117E+03 -0.31384132182E+03 -0.15075170623E+04  0.15762677196E+04  0.00000000000E+00 0. -1.
<mgrwt>
<rscale>  0 0.15985662E+04</rscale>
<asrwt>0</asrwt>
<pdfrwt beam="1">  1        1 0.26214169E+00 0.15985662E+04</pdfrwt>
<pdfrwt beam="2">  1       -1 0.57681756E-01 0.15985662E+04</pdfrwt>
<totfact> 0.13838502E+01</totfact>
</mgrwt>
</event>
<event>
 6    1  0.1762360E-005  0.4736665E+04  0.7818608E-02  0.7870465E-01
          1   -1    0    0  501    0  0.00000000000E+00  0.00000000000E+00  0.24409530468E+04  0.24409530468E+04  0.00000000000E+00 0. -1.
         -1   -1    0    0    0  501 -0.00000000000E+00 -0.00000000000E+00 -0.22978723170E+04  0.22978723170E+04  0.00000000000E+00 0.  1.
         23    2    1    2    0    0 -0.68040393599E+02 -0.22772164678E+04 -0.57272650627E+03  0.23507876054E+04  0.88557205956E+02 0.  0.
         11    1    3    3    0    0 -0.15693546824E+02 -0.17611513934E+04 -0.43842567962E+03  0.18149704114E+04  0.00000000000E+00 0. -1.
        -11    1    3    3    0    0 -0.52346846775E+02 -0.51606507438E+03 -0.13430082666E+03  0.53581719401E+03  0.00000000000E+00 0.  1.
         22    1    1    2    0    0  0.68040393599E+02  0.22772164678E+04  0.71580723612E+03  0.23880377584E+04  0.00000000000E+00 0.  1.
<mgrwt>
<rscale>  0 0.47366648E+04</rscale>
<asrwt>0</asrwt>
<pdfrwt beam="1">  1        1 0.37553124E+00 0.47366648E+04</pdfrwt>
<pdfrwt beam="2">  1       -1 0.35351882E+00 0.47366648E+04</pdfrwt>
<totfact> 0.16158057E-02</totfact>
</mgrwt>
</event>
<event>
 6    1  0.1762360E-005  0.5050168E+04  0.7818608E-02  0.7820815E-01
         -2   -1    0    0    0  501 -0.00000000000E+00  0.00000000000E+00  0.18606504273E+04  0.18606504273E+04  0.00000000000E+00 0.  1.
          2   -1    0    0  501    0  0.00000000000E+00 -0.00000000000E+00 -0.34267855752E+04  0.34267855752E+04  0.00000000000E+00 0. -1.
         23    2    1    2    0    0  0.11974301122E+04  0.80877271031E+03 -0.29503602744E+04  0.32864284134E+04  0.89631451721E+02 0.  0.
         11    1    3    3    0    0  0.96887985717E+03  0.61224994994E+03 -0.23128186177E+04  0.25812222177E+04  0.00000000000E+00 0. -1.
        -11    1    3    3    0    0  0.22855025504E+03  0.19652276037E+03 -0.63754165668E+03  0.70520619568E+03  0.00000000000E+00 0.  1.
         22    1    1    2    0    0 -0.11974301122E+04 -0.80877271031E+03  0.13842251265E+04  0.20010075890E+04  0.00000000000E+00 0.  1.
<mgrwt>
<rscale>  0 0.50501683E+04</rscale>
<asrwt>0</asrwt>
<pdfrwt beam="1">  1        2 0.52719777E+00 0.50501683E+04</pdfrwt>
<pdfrwt beam="2">  1       -2 0.28625392E+00 0.50501683E+04</pdfrwt>
<totfact> 0.25517110E-02</totfact>
</mgrwt>
</event>
<event>
 6    1  0.1762360E-005  0.3245975E+04  0.7818608E-02  0.8176780E-01
          1   -1    0    0  501    0  0.00000000000E+00  0.00000000000E+00  0.19121469888E+04  0.19121469888E+04  0.00000000000E+00 0. -1.
         -1   -1    0    0    0  501 -0.00000000000E+00 -0.00000000000E+00 -0.13775552585E+04  0.13775552585E+04  0.00000000000E+00 0.  1.
         23    2    1    2    0    0 -0.90730247017E+03  0.10362642689E+04 -0.60018078457E+03  0.15051154413E+04  0.90078356034E+02 0.  0.
         13    1    3    3    0    0 -0.51905902985E+03  0.59267429280E+03 -0.29451732415E+03  0.84108593380E+03  0.00000000000E+00 0.  1.
        -13    1    3    3    0    0 -0.38824344033E+03  0.44358997607E+03 -0.30566346043E+03  0.66402950753E+03  0.00000000000E+00 0. -1.
         22    1    1    2    0    0  0.90730247017E+03 -0.10362642689E+04  0.11347725149E+04  0.17845868059E+04  0.00000000000E+00 0. -1.
<mgrwt>
<rscale>  0 0.32459748E+04</rscale>
<asrwt>0</asrwt>
<pdfrwt beam="1">  1        1 0.29417646E+00 0.32459748E+04</pdfrwt>
<pdfrwt beam="2">  1       -1 0.21193158E+00 0.32459748E+04</pdfrwt>
<totfact> 0.35539673E-01</totfact>
</mgrwt>
</event>
<event>
 6    1  0.1762360E-005  0.2098220E+04  0.7818608E-02  0.8562028E-01
         -2   -1    0    0    0  501 -0.00000000000E+00  0.00000000000E+00  0.20753473271E+04  0.20753473271E+04  0.00000000000E+00 0.  1.
          2   -1    0    0  501    0  0.00000000000E+00 -0.00000000000E+00 -0.53033605165E+03  0.53033605165E+03  0.00000000000E+00 0. -1.
         23    2    1    2    0    0 -0.93594659141E+03 -0.65000882519E+02  0.19729831508E+03  0.96356542919E+03  0.96491318234E+02 0.  0.
         13    1    3    3    0    0 -0.46177496325E+03 -0.66391544200E+02  0.13257459144E+03  0.48499482071E+03  0.00000000000E+00 0. -1.
        -13    1    3    3    0    0 -0.47417162816E+03  0.13906616818E+01  0.64723723634E+02  0.47857060847E+03  0.00000000000E+00 0.  1.
         22    1    1    2    0    0  0.93594659141E+03  0.65000882519E+02  0.13477129604E+04  0.16421179495E+04  0.00000000000E+00 0.  1.
<mgrwt>
<rscale>  0 0.20982197E+04</rscale>
<asrwt>0</asrwt>
<pdfrwt beam="1">  1        2 0.81590163E-01 0.20982197E+04</pdfrwt>
<pdfrwt beam="2">  1       -2 0.31928420E+00 0.20982197E+04</pdfrwt>
<totfact> 0.12829539E+00</totfact>
</mgrwt>
</event>
<event>
 6    1  0.1762360E-005  0.1696358E+04  0.7818608E-02  0.8763444E-01
          1   -1    0    0  501    0  0.00000000000E+00  0.00000000000E+00  0.16711035965E+04  0.16711035965E+04  0.00000000000E+00 0. -1.
         -1   -1    0    0    0  501 -0.00000000000E+00 -0.00000000000E+00 -0.43049866027E+03  0.43049866027E+03  0.00000000000E+00 0.  1.
         23    2    1    2    0    0  0.17743578556E+03 -0.18826426643E+03  0.16197163843E+04  0.16426334320E+04  0.88524201168E+02 0.  0.
         13    1    3    3    0    0  0.17259425398E+03 -0.13861578913E+03  0.12331248392E+04  0.12528367741E+04  0.00000000000E+00 0. -1.
        -13    1    3    3    0    0  0.48415315810E+01 -0.49648477300E+02  0.38659154510E+03  0.38979665784E+03  0.00000000000E+00 0.  1.
         22    1    1    2    0    0 -0.17743578556E+03  0.18826426643E+03 -0.37911144812E+03  0.45896882477E+03  0.00000000000E+00 0.  1.
<mgrwt>
<rscale>  0 0.16963583E+04</rscale>
<asrwt>0</asrwt>
<pdfrwt beam="1">  1        1 0.25709286E+00 0.16963583E+04</pdfrwt>
<pdfrwt beam="2">  1       -1 0.66230564E-01 0.16963583E+04</pdfrwt>
<totfact> 0.10968380E+01</totfact>
</mgrwt>
</event>
<event>
 6    1  0.1762360E-005  0.4253276E+04  0.7818608E-02  0.7955315E-01
          2   -1    0    0  501    0  0.00000000000E+00  0.00000000000E+00  0.35486044852E+04  0.35486044852E+04  0.00000000000E+00 0. -1.
         -2   -1    0    0    0  501 -0.00000000000E+00 -0.00000000000E+00 -0.12744697804E+04  0.12744697804E+04  0.00000000000E+00 0.  1.
         23    2    1    2    0    0  0.70458680233E+03  0.19900433947E+04  0.85599840119E+03  0.22798822062E+04  0.91729691325E+02 0.  0.
         11    1    3    3    0    0  0.36422803674E+03  0.95797023966E+03  0.37307985553E+03  0.10906684287E+04  0.00000000000E+00 0.  1.
        -11    1    3    3    0    0  0.34035876559E+03  0.10320731551E+04  0.48291854565E+03  0.11892137775E+04  0.00000000000E+00 0. -1.
         22    1    1    2    0    0 -0.70458680233E+03 -0.19900433947E+04  0.14181363037E+04  0.25431920594E+04  0.00000000000E+00 0. -1.
<mgrwt>
<rscale>  0 0.42532760E+04</rscale>
<asrwt>0</asrwt>
<pdfrwt beam="1">  1        2 0.54593915E+00 0.42532760E+04</pdfrwt>
<pdfrwt beam="2">  1       -2 0.19607228E+00 0.42532760E+04</pdfrwt>
<totfact> 0.81819931E-02</totfact>
</mgrwt>
</event>
<event>
 6    1  0.1762360E-005  0.1455504E+04  0.7818608E-02  0.8914593E-01
         -1   -1    0    0    0  501 -0.00000000000E+00  0.00000000000E+00  0.66423667179E+03  0.66423667179E+03  0.00000000000E+00 0.  1.
          1   -1    0    0  501    0  0.00000000000E+00 -0.00000000000E+00 -0.79734129954E+03  0.79734129954E+03  0.00000000000E+00 0. -1.
         23    2    1    2    0    0 -0.68656237074E+03 -0.10509080454E+03  0.14112795083E+03  0.71484142255E+03  0.93108510750E+02 0.  0.
         11    1    3    3    0    0 -0.14408103188E+03 -0.50141883406E+02  0.58358395087E+02  0.16333785383E+03  0.00000000000E+00 0. -1.
        -11    1    3    3    0    0 -0.54248133887E+03 -0.54948921133E+02  0.82769555739E+02  0.55150356872E+03  0.00000000000E+00 0.  1.
         22    1    1    2    0    0  0.68656237074E+03  0.10509080454E+03 -0.27423257858E+03  0.74673654877E+03  0.00000000000E+00 0. -1.
<mgrwt>
<rscale>  0 0.14555045E+04</rscale>
<asrwt>0</asrwt>
<pdfrwt beam="1">  1        1 0.12266789E+00 0.14555045E+04</pdfrwt>
<pdfrwt beam="2">  1       -1 0.10219026E+00 0.14555045E+04</pdfrwt>
<totfact> 0.19573836E+01</totfact>
</mgrwt>
</event>
<event>
 6    1  0.1762360E-005  0.2533605E+04  0.7818608E-02  0.8391110E-01
         -1   -1    0    0    0  501 -0.00000000000E+00  0.00000000000E+00  0.76101173108E+03  0.76101173108E+03  0.00000000000E+00 0.  1.
          1   -1    0    0  501    0  0.00000000000E+00 -0.00000000000E+00 -0.21087567935E+04  0.21087567935E+04  0.00000000000E+00 0. -1.
         23    2    1    2    0    0 -0.77095918345E+03  0.70596667265E+03  0.13237130532E+03  0.10577223145E+04  0.92126688239E+02 0.  0.
         11    1    3    3    0    0 -0.49454066756E+03  0.48418887859E+03  0.12469779617E+03  0.70324880546E+03  0.00000000000E+00 0. -1.
        -11    1    3    3    0    0 -0.27641851589E+03  0.22177779406E+03  0.76735091455E+01  0.35447350904E+03  0.00000000000E+00 0.  1.
         22    1    1    2    0    0  0.77095918345E+03 -0.70596667265E+03 -0.14801163678E+04  0.18120462101E+04  0.00000000000E+00 0. -1.
<mgrwt>
<rscale>  0 0.25336051E+04</rscale>
<asrwt>0</asrwt>
<pdfrwt beam="1">  1        1 0.32442411E+00 0.25336051E+04</pdfrwt>
<pdfrwt beam="2">  1       -1 0.11707873E+00 0.25336051E+04</pdfrwt>
<totfact> 0.14635167E+00</totfact>
</mgrwt>
</event>
<event>
 6    1  0.1762360E-005  0.1260117E+04  0.7818608E-02  0.9061805E-01
         -1   -1    0    0    0  501 -0.00000000000E+00  0.00000000000E+00  0.83338079577E+03  0.83338079577E+03  0.00000000000E+00 0.  1.
          1   -1    0    0  501    0  0.00000000000E+00 -0.00000000000E+00 -0.47634103879E+03  0.47634103879E+03  0.00000000000E+00 0. -1.
         23    2    1    2    0    0 -0.47676908026E+03  0.13217735860E+03  0.57935859323E+03  0.76731490709E+03  0.91302667417E+02 0.  0.
         13    1    3    3    0    0 -0.45448837640E+03  0.11154728616E+03  0.51327481283E+03  0.69458873790E+03  0.00000000000E+00 0. -1.
        -13    1    3    3    0    0 -0.22280703860E+02  0.20630072432E+02  0.66083780401E+02  0.72726169191E+02  0.00000000000E+00 0.  1.
         22    1    1    2    0    0  0.47676908026E+03 -0.13217735860E+03 -0.22231883625E+03  0.54240692747E+03  0.00000000000E+00 0. -1.
<mgrwt>
<rscale>  0 0.12601166E+04</rscale>
<asrwt>0</asrwt>
<pdfrwt beam="1">  1        1 0.73283237E-01 0.12601166E+04</pdfrwt>
<pdfrwt beam="2">  1       -1 0.12821243E+00 0.12601166E+04</pdfrwt>
<totfact> 0.24528509E+01</totfact>
</mgrwt>
</event>
<event>
 6    1  0.1762360E-005  0.1263155E+04  0.7818608E-02  0.9059305E-01
          2   -1    0    0  501    0  0.00000000000E+00  0.00000000000E+00  0.23967407703E+04  0.23967407703E+04  0.00000000000E+00 0. -1.
         -2   -1    0    0    0  501 -0.00000000000E+00 -0.00000000000E+00 -0.16643018567E+03  0.16643018567E+03  0.00000000000E+00 0.  1.
         23    2    1    2    0    0  0.25533350628E+03  0.35218680729E+03  0.20768826773E+03  0.49429885179E+03  0.10939008945E+03 0.  0.
         11    1    3    3    0    0  0.83857634947E+02  0.88121813757E+02  0.89657762413E+01  0.12197517019E+03  0.00000000000E+00 0.  1.
        -11    1    3    3    0    0  0.17147587134E+03  0.26406499353E+03  0.19872249149E+03  0.37232368160E+03  0.00000000000E+00 0. -1.
         22    1    1    2    0    0 -0.25533350628E+03 -0.35218680729E+03  0.20226223169E+04  0.20688721042E+04  0.00000000000E+00 0. -1.
<mgrwt>
<rscale>  0 0.12631548E+04</rscale>
<asrwt>0</asrwt>
<pdfrwt beam="1">  1        2 0.36872933E+00 0.12631548E+04</pdfrwt>
<pdfrwt beam="2">  1       -2 0.25604646E-01 0.12631548E+04</pdfrwt>
<totfact> 0.54114381E+01</totfact>
</mgrwt>
</event>
<event>
 6    1  0.1762360E-005  0.2629379E+04  0.7818608E-02  0.8358290E-01
         -2   -1    0    0    0  501 -0.00000000000E+00  0.00000000000E+00  0.15824621847E+04  0.15824621847E+04  0.00000000000E+00 0. -1.
          2   -1    0    0  501    0  0.00000000000E+00 -0.00000000000E+00 -0.10922275073E+04  0.10922275073E+04  0.00000000000E+00 0.  1.
         23    2    1    2    0    0 -0.39025313426E+03 -0.81084239813E+03  0.12184291993E+04  0.15170929725E+04  0.85079198461E+02 0.  0.
         11    1    3    3    0    0 -0.26302407337E+03 -0.47445804333E+03  0.77846068644E+03  0.94883778297E+03  0.00000000000E+00 0. -1.
        -11    1    3    3    0    0 -0.12722906088E+03 -0.33638435480E+03  0.43996851283E+03  0.56825518948E+03  0.00000000000E+00 0.  1.
         22    1    1    2    0    0  0.39025313426E+03  0.81084239813E+03 -0.72819452188E+03  0.11575967195E+04  0.00000000000E+00 0.  1.
<mgrwt>
<rscale>  0 0.26293792E+04</rscale>
<asrwt>0</asrwt>
<pdfrwt beam="1">  1        2 0.16803500E+00 0.26293792E+04</pdfrwt>
<pdfrwt beam="2">  1       -2 0.24345572E+00 0.26293792E+04</pdfrwt>
<totfact> 0.13706641E+00</totfact>
</mgrwt>
</event>
<event>
 6    1  0.1762360E-005  0.3630748E+04  0.7818608E-02  0.8083485E-01
          2   -1    0    0  501    0  0.00000000000E+00  0.00000000000E+00  0.12199579297E+04  0.12199579297E+04  0.00000000000E+00 0. -1.
         -2   -1    0    0    0  501 -0.00000000000E+00 -0.00000000000E+00 -0.27013905753E+04  0.27013905753E+04  0.00000000000E+00 0.  1.
         23    2    1    2    0    0  0.14782779598E+04 -0.33304554327E+02  0.39419138695E+03  0.15329640236E+04  0.90426369753E+02 0.  0.
         13    1    3    3    0    0  0.11701207320E+04 -0.58505352616E+02  0.29336520025E+03  0.12077535115E+04  0.00000000000E+00 0.  1.
        -13    1    3    3    0    0  0.30815722779E+03  0.25200798289E+02  0.10082618670E+03  0.32521051213E+03  0.00000000000E+00 0. -1.
         22    1    1    2    0    0 -0.14782779598E+04  0.33304554327E+02 -0.18756240326E+04  0.23883844815E+04  0.00000000000E+00 0.  1.
<mgrwt>
<rscale>  0 0.36307481E+04</rscale>
<asrwt>0</asrwt>
<pdfrwt beam="1">  1        2 0.18768584E+00 0.36307481E+04</pdfrwt>
<pdfrwt beam="2">  1       -2 0.41559854E+00 0.36307481E+04</pdfrwt>
<totfact> 0.87753600E-02</totfact>
</mgrwt>
</event>
<event>
 6    1  0.1762360E-005  0.4223797E+04  0.7818608E-02  0.7960861E-01
          2   -1    0    0  501    0  0.00000000000E+00  0.00000000000E+00  0.15922462800E+04  0.15922462800E+04  0.00000000000E+00 0.  1.
         -2   -1    0    0    0  501 -0.00000000000E+00 -0.00000000000E+00 -0.28011468292E+04  0.28011468292E+04  0.00000000000E+00 0. -1.
         23    2    1    2    0    0  0.15398953743E+04  0.13677789090E+04 -0.12368652390E+03  0.20653496413E+04  0.90960853216E+02 0.  0.
         11    1    3    3    0    0  0.11264948272E+04  0.96858560374E+03 -0.56047894272E+02  0.14867044205E+04  0.00000000000E+00 0. -1.
        -11    1    3    3    0    0  0.41340054709E+03  0.39919330522E+03 -0.67638629623E+02  0.57864522074E+03  0.00000000000E+00 0.  1.
         22    1    1    2    0    0 -0.15398953743E+04 -0.13677789090E+04 -0.10852140253E+04  0.23280434679E+04  0.00000000000E+00 0.  1.
<mgrwt>
<rscale>  0 0.42237972E+04</rscale>
<asrwt>0</asrwt>
<pdfrwt beam="1">  1        2 0.24496097E+00 0.42237972E+04</pdfrwt>
<pdfrwt beam="2">  1       -2 0.43094566E+00 0.42237972E+04</pdfrwt>
<totfact> 0.40508108E-02</totfact>
</mgrwt>
</event>
<event>
 6    1  0.1762360E-005  0.2395705E+04  0.7818608E-02  0.8441113E-01
          1   -1    0    0  501    0  0.00000000000E+00  0.00000000000E+00  0.12735692781E+04  0.12735692781E+04  0.00000000000E+00 0. -1.
         -1   -1    0    0    0  501 -0.00000000000E+00 -0.00000000000E+00 -0.11266376310E+04  0.11266376310E+04  0.00000000000E+00 0.  1.
         23    2    1    2    0    0 -0.89585834657E+03  0.37482957191E+03 -0.62585308701E+03  0.11591365524E+04  0.94053578041E+02 0.  0.
         11    1    3    3    0    0 -0.55316447813E+03  0.18145486697E+03 -0.37209597835E+03  0.69092128763E+03  0.00000000000E+00 0.  1.
        -11    1    3    3    0    0 -0.34269386845E+03  0.19337470495E+03 -0.25375710867E+03  0.46821526479E+03  0.00000000000E+00 0. -1.
         22    1    1    2    0    0  0.89585834657E+03 -0.37482957191E+03  0.77278473404E+03  0.12410703567E+04  0.00000000000E+00 0. -1.
<mgrwt>
<rscale>  0 0.23957054E+04</rscale>
<asrwt>0</asrwt>
<pdfrwt beam="1">  1        1 0.19593373E+00 0.23957054E+04</pdfrwt>
<pdfrwt beam="2">  1       -1 0.17332887E+00 0.23957054E+04</pdfrwt>
<totfact> 0.19707084E+00</totfact>
</mgrwt>
</event>
<event>
 6    1  0.1762360E-005  0.2106502E+04  0.7818608E-02  0.8558384E-01
         -1   -1    0    0    0  501 -0.00000000000E+00  0.00000000000E+00  0.99303477245E+03  0.99303477245E+03  0.00000000000E+00 0.  1.
          1   -1    0    0  501    0  0.00000000000E+00 -0.00000000000E+00 -0.11171189019E+04  0.11171189019E+04  0.00000000000E+00 0. -1.
         23    2    1    2    0    0 -0.36132225753E+02  0.85022602888E+03 -0.68047121005E+03  0.10934155461E+04  0.91250484011E+02 0.  0.
         13    1    3    3    0    0  0.92563105336E+00  0.70696462752E+03 -0.54291716106E+03  0.89138032575E+03  0.00000000000E+00 0. -1.
        -13    1    3    3    0    0 -0.37057856807E+02  0.14326140136E+03 -0.13755404899E+03  0.20203522036E+03  0.00000000000E+00 0.  1.
         22    1    1    2    0    0  0.36132225753E+02 -0.85022602888E+03  0.55638708061E+03  0.10167381282E+04  0.00000000000E+00 0.  1.
<mgrwt>
<rscale>  0 0.21065022E+04</rscale>
<asrwt>0</asrwt>
<pdfrwt beam="1">  1        1 0.17186445E+00 0.21065022E+04</pdfrwt>
<pdfrwt beam="2">  1       -1 0.15277458E+00 0.21065022E+04</pdfrwt>
<totfact> 0.37562010E+00</totfact>
</mgrwt>
</event>
<event>
 6    1  0.3401090E-005  0.3581475E+04  0.7818608E-02  0.8094748E-01
          2   -1    0    0  501    0  0.00000000000E+00  0.00000000000E+00  0.20169313081E+04  0.20169313081E+04  0.00000000000E+00 0. -1.
         -2   -1    0    0    0  501 -0.00000000000E+00 -0.00000000000E+00 -0.15899109519E+04  0.15899109519E+04  0.00000000000E+00 0.  1.
         23    2    1    2    0    0  0.14869780185E+04  0.95652700736E+03  0.49244083916E+03  0.18375691373E+04  0.90082245032E+02 0.  0.
         11    1    3    3    0    0  0.67909713941E+03  0.48709150664E+03  0.21654323416E+03  0.86332035355E+03  0.00000000000E+00 0.  1.
        -11    1    3    3    0    0  0.80788087910E+03  0.46943550072E+03  0.27589760500E+03  0.97424878373E+03  0.00000000000E+00 0. -1.
         22    1    1    2    0    0 -0.14869780185E+04 -0.95652700736E+03 -0.65420482949E+02  0.17692731228E+04  0.00000000000E+00 0.  1.
<mgrwt>
<rscale>  0 0.35814752E+04</rscale>
<asrwt>0</asrwt>
<pdfrwt beam="1">  1        2 0.31029713E+00 0.35814752E+04</pdfrwt>
<pdfrwt beam="2">  1       -2 0.24460168E+00 0.35814752E+04</pdfrwt>
<totfact> 0.37026490E-01</totfact>
</mgrwt>
</event>
<event>
 6    1  0.1762360E-005  0.2076207E+04  0.7818608E-02  0.8571797E-01
          2   -1    0    0  501    0  0.00000000000E+00  0.00000000000E+00  0.30612980165E+04  0.30612980165E+04  0.00000000000E+00 0. -1.
         -2   -1    0    0    0  501 -0.00000000000E+00 -0.00000000000E+00 -0.35202690279E+03  0.35202690279E+03  0.00000000000E+00 0.  1.
         23    2    1    2    0    0 -0.98066778276E+02  0.47037905201E+01  0.30529873674E+04  0.30558615202E+04  0.88986213984E+02 0.  0.
         13    1    3    3    0    0  0.50938465818E+01  0.14840720791E+02  0.11101405689E+04  0.11102514476E+04  0.00000000000E+00 0.  1.
        -13    1    3    3    0    0 -0.10316062486E+03 -0.10136930271E+02  0.19428467985E+04  0.19456100725E+04  0.00000000000E+00 0. -1.
         22    1    1    2    0    0  0.98066778276E+02 -0.47037905201E+01 -0.34371625371E+03  0.35746339912E+03  0.00000000000E+00 0.  1.
<mgrwt>
<rscale>  0 0.20762074E+04</rscale>
<asrwt>0</asrwt>
<pdfrwt beam="1">  1        2 0.47096891E+00 0.20762074E+04</pdfrwt>
<pdfrwt beam="2">  1       -2 0.54157987E-01 0.20762074E+04</pdfrwt>
<totfact> 0.47316939E+00</totfact>
</mgrwt>
</event>
<event>
 6    1  0.1762360E-005  0.2939871E+04  0.7818608E-02  0.8261113E-01
         -2   -1    0    0    0  501 -0.00000000000E+00  0.00000000000E+00  0.86161283162E+03  0.86161283162E+03  0.00000000000E+00 0.  1.
          2   -1    0    0  501    0  0.00000000000E+00 -0.00000000000E+00 -0.25077500906E+04  0.25077500906E+04  0.00000000000E+00 0. -1.
         23    2    1    2    0    0 -0.31328098910E+03  0.96602007907E+03  0.39189877215E+03  0.10923186461E+04  0.90750238004E+02 0.  0.
         11    1    3    3    0    0 -0.66357114117E+02  0.29751748328E+03  0.14999943983E+03  0.33973482512E+03  0.00000000000E+00 0. -1.
        -11    1    3    3    0    0 -0.24692387499E+03  0.66850259579E+03  0.24189933232E+03  0.75258382097E+03  0.00000000000E+00 0.  1.
         22    1    1    2    0    0  0.31328098910E+03 -0.96602007907E+03 -0.20380360311E+04  0.22770442761E+04  0.00000000000E+00 0. -1.
<mgrwt>
<rscale>  0 0.29398705E+04</rscale>
<asrwt>0</asrwt>
<pdfrwt beam="1">  1        2 0.38580771E+00 0.29398705E+04</pdfrwt>
<pdfrwt beam="2">  1       -2 0.13255582E+00 0.29398705E+04</pdfrwt>
<totfact> 0.12247818E+00</totfact>
</mgrwt>
</event>
<event>
 6    1  0.1762360E-005  0.1764283E+04  0.7818608E-02  0.8725528E-01
         -1   -1    0    0    0  501 -0.00000000000E+00  0.00000000000E+00  0.56399562912E+03  0.56399562912E+03  0.00000000000E+00 0.  1.
          1   -1    0    0  501    0  0.00000000000E+00 -0.00000000000E+00 -0.13797504203E+04  0.13797504203E+04  0.00000000000E+00 0. -1.
         23    2    1    2    0    0 -0.76084667802E+03  0.44127086052E+03 -0.43348683201E+03  0.98471714869E+03  0.90273969695E+02 0.  0.
         11    1    3    3    0    0 -0.35498479967E+03  0.21731158216E+03 -0.25417291562E+03  0.48769088855E+03  0.00000000000E+00 0. -1.
        -11    1    3    3    0    0 -0.40586187835E+03  0.22395927836E+03 -0.17931391638E+03  0.49702626014E+03  0.00000000000E+00 0.  1.
         22    1    1    2    0    0  0.76084667802E+03 -0.44127086052E+03 -0.38226795916E+03  0.95902890071E+03  0.00000000000E+00 0.  1.
<mgrwt>
<rscale>  0 0.17642825E+04</rscale>
<asrwt>0</asrwt>
<pdfrwt beam="1">  1        1 0.21226930E+00 0.17642825E+04</pdfrwt>
<pdfrwt beam="2">  1       -1 0.86768558E-01 0.17642825E+04</pdfrwt>
<totfact> 0.98366053E+00</totfact>
</mgrwt>
</event>
<event>
 6    1  0.1762360E-005  0.1488570E+04  0.7818608E-02  0.8892090E-01
         -2   -1    0    0    0  501 -0.00000000000E+00  0.00000000000E+00  0.13102601552E+04  0.13102601552E+04  0.00000000000E+00 0. -1.
          2   -1    0    0  501    0  0.00000000000E+00 -0.00000000000E+00 -0.42278619515E+03  0.42278619515E+03  0.00000000000E+00 0.  1.
         23    2    1    2    0    0 -0.42599529605E+03 -0.36218231411E+02  0.11506646048E+04  0.12309974802E+04  0.92423000044E+02 0.  0.
         11    1    3    3    0    0 -0.68743175465E+02  0.25545311260E+02  0.23470483306E+03  0.24589539598E+03  0.00000000000E+00 0.  1.
        -11    1    3    3    0    0 -0.35725212059E+03 -0.61763542671E+02  0.91595977174E+03  0.98510208421E+03  0.00000000000E+00 0. -1.
         22    1    1    2    0    0  0.42599529605E+03  0.36218231411E+02 -0.26319064476E+03  0.50204887016E+03  0.00000000000E+00 0.  1.
<mgrwt>
<rscale>  0 0.14885697E+04</rscale>
<asrwt>0</asrwt>
<pdfrwt beam="1">  1        2 0.65044031E-01 0.14885697E+04</pdfrwt>
<pdfrwt beam="2">  1       -2 0.20157848E+00 0.14885697E+04</pdfrwt>
<totfact> 0.93691847E+00</totfact>
</mgrwt>
</event>
<event>
 6    1  0.1762360E-005  0.3014653E+04  0.7818608E-02  0.8239559E-01
          2   -1    0    0  501    0  0.00000000000E+00  0.00000000000E+00  0.10300881725E+04  0.10300881725E+04  0.00000000000E+00 0. -1.
         -2   -1    0    0    0  501 -0.00000000000E+00 -0.00000000000E+00 -0.22056681961E+04  0.22056681961E+04  0.00000000000E+00 0.  1.
         23    2    1    2    0    0 -0.30439397419E+03  0.14706274783E+04 -0.70828105383E+03  0.16629343194E+04  0.91036410179E+02 0.  0.
         11    1    3    3    0    0 -0.61852826911E+02  0.25226395973E+03 -0.15990535635E+03  0.30501245969E+03  0.00000000000E+00 0. -1.
        -11    1    3    3    0    0 -0.24254114728E+03  0.12183635185E+04 -0.54837569748E+03  0.13579218597E+04  0.00000000000E+00 0.  1.
         22    1    1    2    0    0  0.30439397419E+03 -0.14706274783E+04 -0.46729896979E+03  0.15728220492E+04  0.00000000000E+00 0. -1.
<mgrwt>
<rscale>  0 0.30146527E+04</rscale>
<asrwt>0</asrwt>
<pdfrwt beam="1">  1        2 0.15847510E+00 0.30146527E+04</pdfrwt>
<pdfrwt beam="2">  1       -2 0.33933357E+00 0.30146527E+04</pdfrwt>
<totfact> 0.37395276E-01</totfact>
</mgrwt>
</event>
<event>
 6    1  0.1762360E-005  0.2438449E+04  0.7818608E-02  0.8425248E-01
          2   -1    0    0  501    0  0.00000000000E+00  0.00000000000E+00  0.37990715549E+04  0.37990715549E+04  0.00000000000E+00 0. -1.
         -2   -1    0    0    0  501 -0.00000000000E+00 -0.00000000000E+00 -0.39128191634E+03  0.39128191634E+03  0.00000000000E+00 0.  1.
         23    2    1    2    0    0  0.39006110760E+03 -0.11495309893E+04  0.18668512013E+04  0.22287060945E+04  0.91805691071E+02 0.  0.
         11    1    3    3    0    0  0.13837545208E+03 -0.28418322758E+03  0.47326213497E+03  0.56910888324E+03  0.00000000000E+00 0. -1.
        -11    1    3    3    0    0  0.25168565552E+03 -0.86534776174E+03  0.13935890663E+04  0.16595972113E+04  0.00000000000E+00 0.  1.
         22    1    1    2    0    0 -0.39006110760E+03  0.11495309893E+04  0.15409384372E+04  0.19616473767E+04  0.00000000000E+00 0. -1.
<mgrwt>
<rscale>  0 0.24384487E+04</rscale>
<asrwt>0</asrwt>
<pdfrwt beam="1">  1        2 0.58447252E+00 0.24384487E+04</pdfrwt>
<pdfrwt beam="2">  1       -2 0.60197220E-01 0.24384487E+04</pdfrwt>
<totfact> 0.11375916E+00</totfact>
</mgrwt>
</event>
<event>
 6    1  0.1762360E-005  0.3062724E+04  0.7818608E-02  0.8226043E-01
         -1   -1    0    0    0  501 -0.00000000000E+00  0.00000000000E+00  0.24315260405E+04  0.24315260405E+04  0.00000000000E+00 0.  1.
          1   -1    0    0  501    0  0.00000000000E+00 -0.00000000000E+00 -0.96444349565E+03  0.96444349565E+03  0.00000000000E+00 0. -1.
         23    2    1    2    0    0 -0.12604326936E+03  0.10202666880E+04  0.19906709905E+04  0.22422902563E+04  0.90904237238E+02 0.  0.
         13    1    3    3    0    0 -0.29635098192E+02  0.47037375061E+03  0.83475854126E+03  0.95861959426E+03  0.00000000000E+00 0. -1.
        -13    1    3    3    0    0 -0.96408171167E+02  0.54989293740E+03  0.11559124493E+04  0.12836706620E+04  0.00000000000E+00 0.  1.
         22    1    1    2    0    0  0.12604326936E+03 -0.10202666880E+04 -0.52358844568E+03  0.11536792799E+04  0.00000000000E+00 0. -1.
<mgrwt>
<rscale>  0 0.30627239E+04</rscale>
<asrwt>0</asrwt>
<pdfrwt beam="1">  1        1 0.14837592E+00 0.30627239E+04</pdfrwt>
<pdfrwt beam="2">  1       -1 0.37408093E+00 0.30627239E+04</pdfrwt>
<totfact> 0.14648633E-01</totfact>
</mgrwt>
</event>
<event>
 6    1  0.1762360E-005  0.3339600E+04  0.7818608E-02  0.8152892E-01
         -2   -1    0    0    0  501 -0.00000000000E+00  0.00000000000E+00  0.14061726237E+04  0.14061726237E+04  0.00000000000E+00 0.  1.
          2   -1    0    0  501    0  0.00000000000E+00 -0.00000000000E+00 -0.19828519380E+04  0.19828519380E+04  0.00000000000E+00 0. -1.
         23    2    1    2    0    0  0.16389293978E+04  0.38361402743E+02  0.26371588022E+02  0.16422470833E+04  0.93374803386E+02 0.  0.
         13    1    3    3    0    0  0.50193185366E+03 -0.23884586720E+02 -0.16064014846E+02  0.50275651340E+03  0.00000000000E+00 0. -1.
        -13    1    3    3    0    0  0.11369975441E+04  0.62245989463E+02  0.42435602868E+02  0.11394905699E+04  0.00000000000E+00 0.  1.
         22    1    1    2    0    0 -0.16389293978E+04 -0.38361402743E+02 -0.60305090229E+03  0.17467774783E+04  0.00000000000E+00 0. -1.
<mgrwt>
<rscale>  0 0.33396000E+04</rscale>
<asrwt>0</asrwt>
<pdfrwt beam="1">  1        2 0.30505414E+00 0.33396000E+04</pdfrwt>
<pdfrwt beam="2">  1       -2 0.21633425E+00 0.33396000E+04</pdfrwt>
<totfact> 0.59298780E-01</totfact>
</mgrwt>
</event>
<event>
 6    1  0.2317854E-005  0.2253278E+04  0.7818608E-02  0.8496574E-01
         -4   -1    0    0    0  501 -0.00000000000E+00  0.00000000000E+00  0.91011665487E+03  0.91011665487E+03  0.00000000000E+00 0.  1.
          4   -1    0    0  501    0  0.00000000000E+00 -0.00000000000E+00 -0.13946734350E+04  0.13946734350E+04  0.00000000000E+00 0. -1.
         23    2    1    2    0    0  0.64731171643E+03 -0.83882059354E+03  0.14340282081E+03  0.10731384724E+04  0.91811576629E+02 0.  0.
         13    1    3    3    0    0  0.31936280958E+03 -0.34683839150E+03  0.83925881639E+02  0.47888728065E+03  0.00000000000E+00 0. -1.
        -13    1    3    3    0    0  0.32794890685E+03 -0.49198220204E+03  0.59476939171E+02  0.59425119177E+03  0.00000000000E+00 0.  1.
         22    1    1    2    0    0 -0.64731171643E+03  0.83882059354E+03 -0.62795960098E+03  0.12316516175E+04  0.00000000000E+00 0. -1.
<mgrwt>
<rscale>  0 0.22532781E+04</rscale>
<asrwt>0</asrwt>
<pdfrwt beam="1">  1        4 0.21456514E+00 0.22532781E+04</pdfrwt>
<pdfrwt beam="2">  1       -4 0.14001795E+00 0.22532781E+04</pdfrwt>
<totfact> 0.68679342E-02</totfact>
</mgrwt>
</event>
<event>
 6    1  0.1762360E-005  0.2346736E+04  0.7818608E-02  0.8459718E-01
          2   -1    0    0  501    0  0.00000000000E+00  0.00000000000E+00  0.12853747159E+04  0.12853747159E+04  0.00000000000E+00 0. -1.
         -2   -1    0    0    0  501 -0.00000000000E+00 -0.00000000000E+00 -0.10711214302E+04  0.10711214302E+04  0.00000000000E+00 0.  1.
         23    2    1    2    0    0 -0.10446069720E+04 -0.38700068757E+03 -0.25660243432E+03  0.11470837403E+04  0.94778900250E+02 0.  0.
         13    1    3    3    0    0 -0.27754147991E+03 -0.62543647381E+02 -0.48374065253E+02  0.28858453023E+03  0.00000000000E+00 0. -1.
        -13    1    3    3    0    0 -0.76706549207E+03 -0.32445704019E+03 -0.20822836907E+03  0.85849921010E+03  0.00000000000E+00 0.  1.
         22    1    1    2    0    0  0.10446069720E+04  0.38700068757E+03  0.47085572004E+03  0.12094124058E+04  0.00000000000E+00 0. -1.
<mgrwt>
<rscale>  0 0.23467359E+04</rscale>
<asrwt>0</asrwt>
<pdfrwt beam="1">  1        2 0.19774996E+00 0.23467359E+04</pdfrwt>
<pdfrwt beam="2">  1       -2 0.16478791E+00 0.23467359E+04</pdfrwt>
<totfact> 0.35382761E+00</totfact>
</mgrwt>
</event>
<event>
 6    1  0.3526232E-005  0.3194837E+04  0.7818608E-02  0.8190182E-01
          1   -1    0    0  501    0  0.00000000000E+00  0.00000000000E+00  0.19007243875E+04  0.19007243875E+04  0.00000000000E+00 0. -1.
         -1   -1    0    0    0  501 -0.00000000000E+00 -0.00000000000E+00 -0.13425119751E+04  0.13425119751E+04  0.00000000000E+00 0.  1.
         23    2    1    2    0    0 -0.46271458096E+03 -0.40736260656E+03  0.17739912084E+04  0.18800903112E+04  0.87439660245E+02 0.  0.
         11    1    3    3    0    0 -0.95096691619E+02 -0.64195281641E+02  0.24537893204E+03  0.27087863561E+03  0.00000000000E+00 0. -1.
        -11    1    3    3    0    0 -0.36761788934E+03 -0.34316732492E+03  0.15286122764E+04  0.16092116756E+04  0.00000000000E+00 0.  1.
         22    1    1    2    0    0  0.46271458096E+03  0.40736260656E+03 -0.12157787960E+04  0.13631460514E+04  0.00000000000E+00 0.  1.
<mgrwt>
<rscale>  0 0.31948366E+04</rscale>
<asrwt>0</asrwt>
<pdfrwt beam="1">  1        1 0.29241914E+00 0.31948366E+04</pdfrwt>
<pdfrwt beam="2">  1       -1 0.20654030E+00 0.31948366E+04</pdfrwt>
<totfact> 0.39538091E-01</totfact>
</mgrwt>
</event>
<event>
 6    1  0.1762360E-005  0.3861511E+04  0.7818608E-02  0.8033082E-01
          1   -1    0    0  501    0  0.00000000000E+00  0.00000000000E+00  0.36615317771E+04  0.36615317771E+04  0.00000000000E+00 0. -1.
         -1   -1    0    0    0  501 -0.00000000000E+00 -0.00000000000E+00 -0.10181031458E+04  0.10181031458E+04  0.00000000000E+00 0.  1.
         23    2    1    2    0    0 -0.85159312621E+03 -0.46089222562E+03 -0.70019975272E+03  0.11986173610E+04  0.93655688825E+02 0.  0.
         11    1    3    3    0    0 -0.16752162607E+03 -0.68892788041E+02 -0.17064737083E+03  0.24885786429E+03  0.00000000000E+00 0. -1.
        -11    1    3    3    0    0 -0.68407150014E+03 -0.39199943758E+03 -0.52955238189E+03  0.94975949668E+03  0.00000000000E+00 0.  1.
         22    1    1    2    0    0  0.85159312621E+03  0.46089222562E+03  0.33436283840E+04  0.34810175620E+04  0.00000000000E+00 0. -1.
<mgrwt>
<rscale>  0 0.38615111E+04</rscale>
<asrwt>0</asrwt>
<pdfrwt beam="1">  1        1 0.56331257E+00 0.38615111E+04</pdfrwt>
<pdfrwt beam="2">  1       -1 0.15663126E+00 0.38615111E+04</pdfrwt>
<totfact> 0.45432053E-02</totfact>
</mgrwt>
</event>
<event>
 6    1  0.1762360E-005  0.7810453E+03  0.7818608E-02  0.9587866E-01
          2   -1    0    0  501    0  0.00000000000E+00  0.00000000000E+00  0.20376294435E+04  0.20376294435E+04  0.00000000000E+00 0. -1.
         -2   -1    0    0    0  501 -0.00000000000E+00 -0.00000000000E+00 -0.74845765989E+02  0.74845765989E+02  0.00000000000E+00 0.  1.
         23    2    1    2    0    0  0.31072960069E+03  0.18385068550E+03  0.13580719593E+04  0.14081810796E+04  0.90887550883E+02 0.  0.
         11    1    3    3    0    0  0.10803841459E+03  0.78199258643E+02  0.35072633826E+03  0.37522844699E+03  0.00000000000E+00 0. -1.
        -11    1    3    3    0    0  0.20269118610E+03  0.10565142685E+03  0.10073456211E+04  0.10329526326E+04  0.00000000000E+00 0.  1.
         22    1    1    2    0    0 -0.31072960069E+03 -0.18385068550E+03  0.60471171818E+03  0.70429412990E+03  0.00000000000E+00 0.  1.
<mgrwt>
<rscale>  0 0.78104529E+03</rscale>
<asrwt>0</asrwt>
<pdfrwt beam="1">  1        2 0.31348141E+00 0.78104529E+03</pdfrwt>
<pdfrwt beam="2">  1       -2 0.11514735E-01 0.78104529E+03</pdfrwt>
<totfact> 0.35453954E+02</totfact>
</mgrwt>
</event>
<event>
 6    1  0.1762360E-005  0.1152023E+04  0.7818608E-02  0.9155919E-01
         -2   -1    0    0    0  501 -0.00000000000E+00  0.00000000000E+00  0.28165184416E+03  0.28165184416E+03  0.00000000000E+00 0.  1.
          2   -1    0    0  501    0  0.00000000000E+00 -0.00000000000E+00 -0.11780115368E+04  0.11780115368E+04  0.00000000000E+00 0. -1.
         23    2    1    2    0    0  0.35546480948E+03  0.10004978699E+02 -0.10192388045E+04  0.10834259473E+04  0.92242681267E+02 0.  0.
         13    1    3    3    0    0  0.13352931536E+03 -0.15246667905E+02 -0.26999927993E+03  0.30159932047E+03  0.00000000000E+00 0. -1.
        -13    1    3    3    0    0  0.22193549412E+03  0.25251646604E+02 -0.74923952455E+03  0.78182662679E+03  0.00000000000E+00 0.  1.
         22    1    1    2    0    0 -0.35546480948E+03 -0.10004978699E+02  0.12287911186E+03  0.37623743369E+03  0.00000000000E+00 0.  1.
<mgrwt>
<rscale>  0 0.11520228E+04</rscale>
<asrwt>0</asrwt>
<pdfrwt beam="1">  1        2 0.18123254E+00 0.11520228E+04</pdfrwt>
<pdfrwt beam="2">  1       -2 0.43331053E-01 0.11520228E+04</pdfrwt>
<totfact> 0.97539175E+01</totfact>
</mgrwt>
</event>
<event>
 6    1  0.1762360E-005  0.1481582E+04  0.7818608E-02  0.8896794E-01
         -1   -1    0    0    0  501 -0.00000000000E+00  0.00000000000E+00  0.24847585555E+03  0.24847585555E+03  0.00000000000E+00 0.  1.
          1   -1    0    0  501    0  0.00000000000E+00 -0.00000000000E+00 -0.22085506307E+04  0.22085506307E+04  0.00000000000E+00 0. -1.
         23    2    1    2    0    0 -0.22511608768E+03 -0.39874450394E+03 -0.19435424305E+04  0.19988259289E+04  0.90958684952E+02 0.  0.
         13    1    3    3    0    0 -0.17571732372E+03 -0.22305931607E+03 -0.12228121317E+04  0.12553491728E+04  0.00000000000E+00 0.  1.
        -13    1    3    3    0    0 -0.49398763960E+02 -0.17568518787E+03 -0.72073029886E+03  0.74347675607E+03  0.00000000000E+00 0. -1.
         22    1    1    2    0    0  0.22511608768E+03  0.39874450394E+03 -0.16532344630E+02  0.45820055737E+03  0.00000000000E+00 0.  1.
<mgrwt>
<rscale>  0 0.14815823E+04</rscale>
<asrwt>0</asrwt>
<pdfrwt beam="1">  1        1 0.33977701E+00 0.14815823E+04</pdfrwt>
<pdfrwt beam="2">  1       -1 0.38227056E-01 0.14815823E+04</pdfrwt>
<totfact> 0.13797294E+01</totfact>
</mgrwt>
</event>
<event>
 6    1  0.1762360E-005  0.1078920E+04  0.7818608E-02  0.9225985E-01
         -1   -1    0    0    0  501 -0.00000000000E+00  0.00000000000E+00  0.49204850343E+03  0.49204850343E+03  0.00000000000E+00 0.  1.
          1   -1    0    0  501    0  0.00000000000E+00 -0.00000000000E+00 -0.59144003881E+03  0.59144003881E+03  0.00000000000E+00 0. -1.
         23    2    1    2    0    0 -0.49021595593E+03 -0.21550874441E+03 -0.59300209248E+02  0.54649411323E+03  0.91561993309E+02 0.  0.
         13    1    3    3    0    0 -0.18820748089E+03 -0.13208781114E+03 -0.27178684829E+02  0.23153385632E+03  0.00000000000E+00 0.  1.
        -13    1    3    3    0    0 -0.30200847504E+03 -0.83420933270E+02 -0.32121524418E+02  0.31496025691E+03  0.00000000000E+00 0. -1.
         22    1    1    2    0    0  0.49021595593E+03  0.21550874441E+03 -0.40091326134E+02  0.53699442901E+03  0.00000000000E+00 0.  1.
<mgrwt>
<rscale>  0 0.10789202E+04</rscale>
<asrwt>0</asrwt>
<pdfrwt beam="1">  1        1 0.90990775E-01 0.10789202E+04</pdfrwt>
<pdfrwt beam="2">  1       -1 0.75699770E-01 0.10789202E+04</pdfrwt>
<totfact> 0.61210418E+01</totfact>
</mgrwt>
</event>
<event>
 6    1  0.1762360E-005  0.2590075E+04  0.7818608E-02  0.8371580E-01
          1   -1    0    0  501    0  0.00000000000E+00  0.00000000000E+00  0.11398285241E+04  0.11398285241E+04  0.00000000000E+00 0. -1.
         -1   -1    0    0    0  501 -0.00000000000E+00 -0.00000000000E+00 -0.14713807478E+04  0.14713807478E+04  0.00000000000E+00 0.  1.
         23    2    1    2    0    0 -0.12272756423E+04  0.22318100876E+03 -0.51110099219E+03  0.13509501617E+04  0.88469488793E+02 0.  0.
         13    1    3    3    0    0 -0.83641583245E+03  0.16307316363E+03 -0.39159189403E+03  0.93783181485E+03  0.00000000000E+00 0. -1.
        -13    1    3    3    0    0 -0.39085980981E+03  0.60107845123E+02 -0.11950909817E+03  0.41311834687E+03  0.00000000000E+00 0.  1.
         22    1    1    2    0    0  0.12272756423E+04 -0.22318100876E+03  0.17954876850E+03  0.12602591103E+04  0.00000000000E+00 0. -1.
<mgrwt>
<rscale>  0 0.25900747E+04</rscale>
<asrwt>0</asrwt>
<pdfrwt beam="1">  1        1 0.17535824E+00 0.25900747E+04</pdfrwt>
<pdfrwt beam="2">  1       -1 0.22636627E+00 0.25900747E+04</pdfrwt>
<totfact> 0.10411707E+00</totfact>
</mgrwt>
</event>
<event>
 6    1  0.1762360E-005  0.2579961E+04  0.7818608E-02  0.8375040E-01
         -2   -1    0    0    0  501 -0.00000000000E+00  0.00000000000E+00  0.62867770353E+03  0.62867770353E+03  0.00000000000E+00 0.  1.
          2   -1    0    0  501    0  0.00000000000E+00 -0.00000000000E+00 -0.26469032591E+04  0.26469032591E+04  0.00000000000E+00 0. -1.
         23    2    1    2    0    0 -0.37704998235E+02 -0.11325137498E+04 -0.23184453711E+03  0.11601220990E+04  0.90123997041E+02 0.  0.
         11    1    3    3    0    0  0.15402443979E+02 -0.51777639094E+03 -0.74367929729E+02  0.52331655360E+03  0.00000000000E+00 0.  1.
        -11    1    3    3    0    0 -0.53107442214E+02 -0.61473735889E+03 -0.15747660738E+03  0.63680554544E+03  0.00000000000E+00 0. -1.
         22    1    1    2    0    0  0.37704998235E+02  0.11325137498E+04 -0.17863810185E+04  0.21154588636E+04  0.00000000000E+00 0. -1.
<mgrwt>
<rscale>  0 0.25799605E+04</rscale>
<asrwt>0</asrwt>
<pdfrwt beam="1">  1        2 0.40721588E+00 0.25799605E+04</pdfrwt>
<pdfrwt beam="2">  1       -2 0.96719648E-01 0.25799605E+04</pdfrwt>
<totfact> 0.22604253E+00</totfact>
</mgrwt>
</event>
<event>
 6    1  0.1762360E-005  0.6344006E+03  0.7818608E-02  0.9836499E-01
         -2   -1    0    0    0  501 -0.00000000000E+00  0.00000000000E+00  0.12249678053E+03  0.12249678053E+03  0.00000000000E+00 0.  1.
          2   -1    0    0  501    0  0.00000000000E+00 -0.00000000000E+00 -0.82137683223E+03  0.82137683223E+03  0.00000000000E+00 0. -1.
         23    2    1    2    0    0 -0.38556111544E+01 -0.19517473550E+03 -0.18121501736E+01  0.21998708680E+03  0.10140508546E+03 0.  0.
         11    1    3    3    0    0  0.27402045258E+01 -0.59990719719E+02 -0.48104538750E+02  0.76944407345E+02  0.00000000000E+00 0.  1.
        -11    1    3    3    0    0 -0.65958156803E+01 -0.13518401578E+03  0.46292388577E+02  0.14304267946E+03  0.00000000000E+00 0. -1.
         22    1    1    2    0    0  0.38556111544E+01  0.19517473550E+03 -0.69706790153E+03  0.72388652595E+03  0.00000000000E+00 0. -1.
<mgrwt>
<rscale>  0 0.63440056E+03</rscale>
<asrwt>0</asrwt>
<pdfrwt beam="1">  1        2 0.12636567E+00 0.63440056E+03</pdfrwt>
<pdfrwt beam="2">  1       -2 0.18845658E-01 0.63440056E+03</pdfrwt>
<totfact> 0.79197577E+02</totfact>
</mgrwt>
</event>
<event>
 6    1  0.1762360E-005  0.1185939E+04  0.7818608E-02  0.9125254E-01
         -1   -1    0    0    0  501 -0.00000000000E+00  0.00000000000E+00  0.14336587392E+03  0.14336587392E+03  0.00000000000E+00 0.  1.
          1   -1    0    0  501    0  0.00000000000E+00 -0.00000000000E+00 -0.24525542820E+04  0.24525542820E+04  0.00000000000E+00 0. -1.
         23    2    1    2    0    0  0.36994845509E+03 -0.34482934341E+03 -0.49493040856E+03  0.71249210465E+03  0.83185061000E+02 0.  0.
         11    1    3    3    0    0  0.13851809076E+03 -0.81850688534E+02 -0.13243982065E+03  0.20839170515E+03  0.00000000000E+00 0.  1.
        -11    1    3    3    0    0  0.23143036433E+03 -0.26297865488E+03 -0.36249058791E+03  0.50410039950E+03  0.00000000000E+00 0. -1.
         22    1    1    2    0    0 -0.36994845509E+03  0.34482934341E+03 -0.18142579995E+04  0.18834280513E+04  0.00000000000E+00 0. -1.
<mgrwt>
<rscale>  0 0.11859386E+04</rscale>
<asrwt>0</asrwt>
<pdfrwt beam="1">  1        1 0.37731602E+00 0.11859386E+04</pdfrwt>
<pdfrwt beam="2">  1       -1 0.22056290E-01 0.11859386E+04</pdfrwt>
<totfact> 0.25264338E+01</totfact>
</mgrwt>
</event>
<event>
 6    1  0.1762360E-005  0.1794954E+04  0.7818608E-02  0.8708988E-01
          2   -1    0    0  501    0  0.00000000000E+00  0.00000000000E+00  0.82218361563E+03  0.82218361563E+03  0.00000000000E+00 0. -1.
         -2   -1    0    0    0  501 -0.00000000000E+00 -0.00000000000E+00 -0.97966506124E+03  0.97966506124E+03  0.00000000000E+00 0.  1.
         23    2    1    2    0    0 -0.60774122491E+03 -0.63522176889E+03  0.86225340151E+02  0.88957180576E+03  0.10510516731E+03 0.  0.
         11    1    3    3    0    0 -0.49579360480E+03 -0.50580676984E+03  0.28019924085E+02  0.70882783744E+03  0.00000000000E+00 0.  1.
        -11    1    3    3    0    0 -0.11194762011E+03 -0.12941499905E+03  0.58205416067E+02  0.18074396833E+03  0.00000000000E+00 0. -1.
         22    1    1    2    0    0  0.60774122491E+03  0.63522176889E+03 -0.24370678576E+03  0.91227687111E+03  0.00000000000E+00 0. -1.
<mgrwt>
<rscale>  0 0.17949536E+04</rscale>
<asrwt>0</asrwt>
<pdfrwt beam="1">  1        2 0.12648979E+00 0.17949536E+04</pdfrwt>
<pdfrwt beam="2">  1       -2 0.15071770E+00 0.17949536E+04</pdfrwt>
<totfact> 0.92746854E+00</totfact>
</mgrwt>
</event>
<event>
 6    1  0.1762360E-005  0.2962993E+04  0.7818608E-02  0.8254378E-01
         -4   -1    0    0    0  501 -0.00000000000E+00  0.00000000000E+00  0.14777871597E+04  0.14777871597E+04  0.00000000000E+00 0.  1.
          4   -1    0    0  501    0  0.00000000000E+00 -0.00000000000E+00 -0.14852150494E+04  0.14852150494E+04  0.00000000000E+00 0. -1.
         23    2    1    2    0    0 -0.11182302747E+04  0.44542533944E+03 -0.86508749015E+03  0.14850229567E+04  0.89856195824E+02 0.  0.
         13    1    3    3    0    0 -0.68292915147E+03  0.24112674013E+03 -0.56065020434E+03  0.91589463497E+03  0.00000000000E+00 0.  1.
        -13    1    3    3    0    0 -0.43530112323E+03  0.20429859931E+03 -0.30443728581E+03  0.56912832170E+03  0.00000000000E+00 0. -1.
         22    1    1    2    0    0  0.11182302747E+04 -0.44542533944E+03  0.85765960046E+03  0.14779792524E+04  0.00000000000E+00 0.  1.
<mgrwt>
<rscale>  0 0.29629929E+04</rscale>
<asrwt>0</asrwt>
<pdfrwt beam="1">  1        4 0.22849462E+00 0.29629929E+04</pdfrwt>
<pdfrwt beam="2">  1       -4 0.22735187E+00 0.29629929E+04</pdfrwt>
<totfact> 0.12862019E-02</totfact>
</mgrwt>
</event>
<event>
 6    1  0.1762360E-005  0.3787843E+04  0.7818608E-02  0.8048769E-01
          2   -1    0    0  501    0  0.00000000000E+00  0.00000000000E+00  0.12992556284E+04  0.12992556284E+04  0.00000000000E+00 0. -1.
         -2   -1    0    0    0  501 -0.00000000000E+00 -0.00000000000E+00 -0.27607642127E+04  0.27607642127E+04  0.00000000000E+00 0.  1.
         23    2    1    2    0    0  0.17746865360E+04 -0.58862497375E+03 -0.41546382422E+03  0.19175443334E+04  0.91511860327E+02 0.  0.
         11    1    3    3    0    0  0.12135871908E+04 -0.39285765833E+03 -0.24061898998E+03  0.12980864793E+04  0.00000000000E+00 0. -1.
        -11    1    3    3    0    0  0.56109934523E+03 -0.19576731543E+03 -0.17484483424E+03  0.61945785415E+03  0.00000000000E+00 0.  1.
         22    1    1    2    0    0 -0.17746865360E+04  0.58862497375E+03 -0.10460447601E+04  0.21424755077E+04  0.00000000000E+00 0. -1.
<mgrwt>
<rscale>  0 0.37878429E+04</rscale>
<asrwt>0</asrwt>
<pdfrwt beam="1">  1        2 0.19988548E+00 0.37878429E+04</pdfrwt>
<pdfrwt beam="2">  1       -2 0.42473295E+00 0.37878429E+04</pdfrwt>
<totfact> 0.67714777E-02</totfact>
</mgrwt>
</event>
<event>
 6    1  0.1762360E-005  0.1268726E+04  0.7818608E-02  0.9054740E-01
         -2   -1    0    0    0  501 -0.00000000000E+00  0.00000000000E+00  0.17593310791E+04  0.17593310791E+04  0.00000000000E+00 0.  1.
          2   -1    0    0  501    0  0.00000000000E+00 -0.00000000000E+00 -0.22873265943E+03  0.22873265943E+03  0.00000000000E+00 0. -1.
         23    2    1    2    0    0  0.59095717919E+03 -0.59915451284E+02  0.11022784227E+04  0.12557535114E+04  0.95283320870E+02 0.  0.
         11    1    3    3    0    0  0.16372105037E+03  0.16740365115E+02  0.24996123261E+03  0.29927485689E+03  0.00000000000E+00 0. -1.
        -11    1    3    3    0    0  0.42723612882E+03 -0.76655816399E+02  0.85231719013E+03  0.95647865452E+03  0.00000000000E+00 0.  1.
         22    1    1    2    0    0 -0.59095717919E+03  0.59915451284E+02  0.42831999689E+03  0.73231022707E+03  0.00000000000E+00 0.  1.
<mgrwt>
<rscale>  0 0.12687261E+04</rscale>
<asrwt>0</asrwt>
<pdfrwt beam="1">  1        2 0.35189641E-01 0.12687261E+04</pdfrwt>
<pdfrwt beam="2">  1       -2 0.27066631E+00 0.12687261E+04</pdfrwt>
<totfact> 0.70412536E+00</totfact>
</mgrwt>
</event>
<event>
 6    1  0.1762360E-005  0.1595295E+04  0.7818608E-02  0.8823444E-01
         -2   -1    0    0    0  501 -0.00000000000E+00  0.00000000000E+00  0.12217236298E+04  0.12217236298E+04  0.00000000000E+00 0. -1.
          2   -1    0    0  501    0  0.00000000000E+00 -0.00000000000E+00 -0.52077360297E+03  0.52077360297E+03  0.00000000000E+00 0.  1.
         23    2    1    2    0    0  0.66109776609E+03 -0.27451084883E+03  0.73106887184E+03  0.10260381569E+04  0.76721194418E+02 0.  0.
         13    1    3    3    0    0  0.50977148467E+03 -0.20172152303E+03  0.51309637024E+03  0.75088376237E+03  0.00000000000E+00 0.  1.
        -13    1    3    3    0    0  0.15132628141E+03 -0.72789325799E+02  0.21797250160E+03  0.27515439457E+03  0.00000000000E+00 0. -1.
         22    1    1    2    0    0 -0.66109776609E+03  0.27451084883E+03 -0.30118845055E+02  0.71645907579E+03  0.00000000000E+00 0.  1.
<mgrwt>
<rscale>  0 0.15952949E+04</rscale>
<asrwt>0</asrwt>
<pdfrwt beam="1">  1        2 0.80119016E-01 0.15952949E+04</pdfrwt>
<pdfrwt beam="2">  1       -2 0.18795748E+00 0.15952949E+04</pdfrwt>
<totfact> 0.90021795E+00</totfact>
</mgrwt>
</event>
<event>
 6    1  0.1762360E-005  0.3493917E+04  0.7818608E-02  0.8115233E-01
         -2   -1    0    0    0  501 -0.00000000000E+00  0.00000000000E+00  0.82736785584E+03  0.82736785584E+03  0.00000000000E+00 0.  1.
          2   -1    0    0  501    0  0.00000000000E+00 -0.00000000000E+00 -0.36886421763E+04  0.36886421763E+04  0.00000000000E+00 0. -1.
         23    2    1    2    0    0 -0.16732049961E+04  0.41612238962E+03 -0.17852376597E+04  0.24836154599E+04  0.92192455946E+02 0.  0.
         11    1    3    3    0    0 -0.11731290049E+04  0.24854047764E+03 -0.12303829318E+04  0.17180937663E+04  0.00000000000E+00 0. -1.
        -11    1    3    3    0    0 -0.50007599118E+03  0.16758191198E+03 -0.55485472799E+03  0.76552169358E+03  0.00000000000E+00 0.  1.
         22    1    1    2    0    0  0.16732049961E+04 -0.41612238962E+03 -0.10760366607E+04  0.20323945722E+04  0.00000000000E+00 0. -1.
<mgrwt>
<rscale>  0 0.34939170E+04</rscale>
<asrwt>0</asrwt>
<pdfrwt beam="1">  1        2 0.56748343E+00 0.34939170E+04</pdfrwt>
<pdfrwt beam="2">  1       -2 0.12728736E+00 0.34939170E+04</pdfrwt>
<totfact> 0.22366262E-01</totfact>
</mgrwt>
</event>
<event>
 6    1  0.1762360E-005  0.1877282E+04  0.7818608E-02  0.8666248E-01
          2   -1    0    0  501    0  0.00000000000E+00  0.00000000000E+00  0.95506866604E+03  0.95506866604E+03  0.00000000000E+00 0. -1.
         -2   -1    0    0    0  501 -0.00000000000E+00 -0.00000000000E+00 -0.92249560301E+03  0.92249560301E+03  0.00000000000E+00 0.  1.
         23    2    1    2    0    0 -0.31117686009E+02  0.45884310880E+03  0.83202192837E+03  0.95527158385E+03  0.93690985345E+02 0.  0.
         13    1    3    3    0    0  0.99207750029E+01  0.34062466267E+03  0.55450316530E+03  0.65084356256E+03  0.00000000000E+00 0. -1.
        -13    1    3    3    0    0 -0.41038461012E+02  0.11821844613E+03  0.27751876308E+03  0.30442802129E+03  0.00000000000E+00 0.  1.
         22    1    1    2    0    0  0.31117686009E+02 -0.45884310880E+03 -0.79944886534E+03  0.92229268520E+03  0.00000000000E+00 0.  1.
<mgrwt>
<rscale>  0 0.18772817E+04</rscale>
<asrwt>0</asrwt>
<pdfrwt beam="1">  1        2 0.14693364E+00 0.18772817E+04</pdfrwt>
<pdfrwt beam="2">  1       -2 0.14192240E+00 0.18772817E+04</pdfrwt>
<totfact> 0.87611021E+00</totfact>
</mgrwt>
</event>
<event>
 6    1  0.1762360E-005  0.3397520E+04  0.7818608E-02  0.8138515E-01
          1   -1    0    0  501    0  0.00000000000E+00  0.00000000000E+00  0.29427377264E+04  0.29427377264E+04  0.00000000000E+00 0. -1.
         -1   -1    0    0    0  501 -0.00000000000E+00 -0.00000000000E+00 -0.98064648249E+03  0.98064648249E+03  0.00000000000E+00 0.  1.
         23    2    1    2    0    0  0.14938935098E+04 -0.36326084621E+03  0.15069681520E+03  0.15474999446E+04  0.91489273800E+02 0.  0.
         11    1    3    3    0    0  0.59700521962E+03 -0.10206875261E+03  0.43616260953E+02  0.60723606673E+03  0.00000000000E+00 0. -1.
        -11    1    3    3    0    0  0.89688829020E+03 -0.26119209360E+03  0.10708055424E+03  0.94026387783E+03  0.00000000000E+00 0.  1.
         22    1    1    2    0    0 -0.14938935098E+04  0.36326084621E+03  0.18113944287E+04  0.23758842643E+04  0.00000000000E+00 0. -1.
<mgrwt>
<rscale>  0 0.33975199E+04</rscale>
<asrwt>0</asrwt>
<pdfrwt beam="1">  1        1 0.45272888E+00 0.33975199E+04</pdfrwt>
<pdfrwt beam="2">  1       -1 0.15086869E+00 0.33975199E+04</pdfrwt>
<totfact> 0.18583380E-01</totfact>
</mgrwt>
</event>
<event>
 6    1  0.1762360E-005  0.6349391E+03  0.7818608E-02  0.9835458E-01
         -2   -1    0    0    0  501 -0.00000000000E+00  0.00000000000E+00  0.14593208517E+03  0.14593208517E+03  0.00000000000E+00 0.  1.
          2   -1    0    0  501    0  0.00000000000E+00 -0.00000000000E+00 -0.69064261841E+03  0.69064261841E+03  0.00000000000E+00 0. -1.
         23    2    1    2    0    0  0.14452677871E+03 -0.12590673474E+03 -0.60031655539E+03  0.63699382946E+03  0.92955239055E+02 0.  0.
         11    1    3    3    0    0  0.12874558291E+03 -0.99785595310E+02 -0.36487646199E+03  0.39958406207E+03  0.00000000000E+00 0.  1.
        -11    1    3    3    0    0  0.15781195804E+02 -0.26121139430E+02 -0.23544009340E+03  0.23740976738E+03  0.00000000000E+00 0. -1.
         22    1    1    2    0    0 -0.14452677871E+03  0.12590673474E+03  0.55606022152E+02  0.19958087413E+03  0.00000000000E+00 0.  1.
<mgrwt>
<rscale>  0 0.63493911E+03</rscale>
<asrwt>0</asrwt>
<pdfrwt beam="1">  1        2 0.10625271E+00 0.63493911E+03</pdfrwt>
<pdfrwt beam="2">  1       -2 0.22451090E-01 0.63493911E+03</pdfrwt>
<totfact> 0.72875498E+02</totfact>
</mgrwt>
</event>
<event>
 6    1  0.1762360E-005  0.1266324E+04  0.7818608E-02  0.9056706E-01
         -1   -1    0    0    0  501 -0.00000000000E+00  0.00000000000E+00  0.37558728372E+03  0.37558728372E+03  0.00000000000E+00 0.  1.
          1   -1    0    0  501    0  0.00000000000E+00 -0.00000000000E+00 -0.10673786529E+04  0.10673786529E+04  0.00000000000E+00 0. -1.
         23    2    1    2    0    0  0.55192361458E+03 -0.24063073726E+03 -0.55730905831E+03  0.82603132100E+03  0.95976709407E+02 0.  0.
         11    1    3    3    0    0  0.13950226956E+03 -0.74771965633E+02 -0.94603085592E+02  0.18439488566E+03  0.00000000000E+00 0. -1.
        -11    1    3    3    0    0  0.41242134503E+03 -0.16585877163E+03 -0.46270597272E+03  0.64163643534E+03  0.00000000000E+00 0.  1.
         22    1    1    2    0    0 -0.55192361458E+03  0.24063073726E+03 -0.13448231091E+03  0.61693461566E+03  0.00000000000E+00 0.  1.
<mgrwt>
<rscale>  0 0.12663236E+04</rscale>
<asrwt>0</asrwt>
<pdfrwt beam="1">  1        1 0.16421210E+00 0.12663236E+04</pdfrwt>
<pdfrwt beam="2">  1       -1 0.57782661E-01 0.12663236E+04</pdfrwt>
<totfact> 0.40106250E+01</totfact>
</mgrwt>
</event>
<event>
 6    1  0.1762360E-005  0.1617606E+04  0.7818608E-02  0.8809804E-01
          1   -1    0    0  501    0  0.00000000000E+00  0.00000000000E+00  0.14153208267E+04  0.14153208267E+04  0.00000000000E+00 0. -1.
         -1   -1    0    0    0  501 -0.00000000000E+00 -0.00000000000E+00 -0.46220067461E+03  0.46220067461E+03  0.00000000000E+00 0.  1.
         23    2    1    2    0    0 -0.33350272048E+03 -0.16785179590E+03 -0.35153760199E+03  0.52049160288E+03  0.89075996201E+02 0.  0.
         11    1    3    3    0    0 -0.10686081338E+03 -0.90411823085E+02 -0.16846733848E+03  0.21903144825E+03  0.00000000000E+00 0.  1.
        -11    1    3    3    0    0 -0.22664190710E+03 -0.77439972810E+02 -0.18307026351E+03  0.30146015463E+03  0.00000000000E+00 0. -1.
         22    1    1    2    0    0  0.33350272048E+03  0.16785179590E+03  0.13046577541E+04  0.13570298985E+04  0.00000000000E+00 0. -1.
<mgrwt>
<rscale>  0 0.16176059E+04</rscale>
<asrwt>0</asrwt>
<pdfrwt beam="1">  1        1 0.21774166E+00 0.16176059E+04</pdfrwt>
<pdfrwt beam="2">  1       -1 0.71107797E-01 0.16176059E+04</pdfrwt>
<totfact> 0.14344039E+01</totfact>
</mgrwt>
</event>
<event>
 6    1  0.2949108E-005  0.3812552E+04  0.7818608E-02  0.8043467E-01
         -1   -1    0    0    0  501 -0.00000000000E+00  0.00000000000E+00  0.17291463174E+04  0.17291463174E+04  0.00000000000E+00 0.  1.
          1   -1    0    0  501    0  0.00000000000E+00 -0.00000000000E+00 -0.21015503912E+04  0.21015503912E+04  0.00000000000E+00 0. -1.
         23    2    1    2    0    0  0.98316869738E+03  0.10337719216E+04  0.10829541599E+04  0.17927142108E+04  0.75693169114E+02 0.  0.
         13    1    3    3    0    0  0.63042122123E+03  0.65539291501E+03  0.73508287268E+03  0.11693235732E+04  0.00000000000E+00 0. -1.
        -13    1    3    3    0    0  0.35274747615E+03  0.37837900656E+03  0.34787128720E+03  0.62339063756E+03  0.00000000000E+00 0.  1.
         22    1    1    2    0    0 -0.98316869738E+03 -0.10337719216E+04 -0.14553582337E+04  0.20379824979E+04  0.00000000000E+00 0. -1.
<mgrwt>
<rscale>  0 0.38125520E+04</rscale>
<asrwt>0</asrwt>
<pdfrwt beam="1">  1        1 0.32331544E+00 0.38125520E+04</pdfrwt>
<pdfrwt beam="2">  1       -1 0.26602251E+00 0.38125520E+04</pdfrwt>
<totfact> 0.11080970E-01</totfact>
</mgrwt>
</event>
<event>
 6    1  0.1762360E-005  0.3419279E+04  0.7818608E-02  0.8133191E-01
         -1   -1    0    0    0  501 -0.00000000000E+00  0.00000000000E+00  0.81805650105E+03  0.81805650105E+03  0.00000000000E+00 0.  1.
          1   -1    0    0  501    0  0.00000000000E+00 -0.00000000000E+00 -0.35729398778E+04  0.35729398778E+04  0.00000000000E+00 0. -1.
         23    2    1    2    0    0  0.10803120948E+04  0.16185363592E+03  0.30847888475E+03  0.11386957828E+04  0.90543038576E+02 0.  0.
         11    1    3    3    0    0  0.57349952637E+03  0.12832473389E+03  0.18284417235E+03  0.61546806208E+03  0.00000000000E+00 0. -1.
        -11    1    3    3    0    0  0.50681256845E+03  0.33528902035E+02  0.12563471240E+03  0.52322772076E+03  0.00000000000E+00 0.  1.
         22    1    1    2    0    0 -0.10803120948E+04 -0.16185363592E+03 -0.30633622615E+04  0.32523005960E+04  0.00000000000E+00 0. -1.
<mgrwt>
<rscale>  0 0.34192787E+04</rscale>
<asrwt>0</asrwt>
<pdfrwt beam="1">  1        1 0.54968305E+00 0.34192787E+04</pdfrwt>
<pdfrwt beam="2">  1       -1 0.12585485E+00 0.34192787E+04</pdfrwt>
<totfact> 0.98666322E-02</totfact>
</mgrwt>
</event>
<event>
 6    1  0.1762360E-005  0.2718226E+04  0.7818608E-02  0.8329115E-01
          1   -1    0    0  501    0  0.00000000000E+00  0.00000000000E+00  0.13595008585E+04  0.13595008585E+04  0.00000000000E+00 0. -1.
         -1   -1    0    0    0  501 -0.00000000000E+00 -0.00000000000E+00 -0.13587254008E+04  0.13587254008E+04  0.00000000000E+00 0.  1.
         23    2    1    2    0    0  0.13548833988E+03 -0.47617452381E+03 -0.12637084508E+04  0.13602797131E+04  0.91118505892E+02 0.  0.
         13    1    3    3    0    0  0.10280620499E+03 -0.32629615588E+03 -0.75387122972E+03  0.82786480063E+03  0.00000000000E+00 0. -1.
        -13    1    3    3    0    0  0.32682134893E+02 -0.14987836793E+03 -0.50983722103E+03  0.53241491251E+03  0.00000000000E+00 0.  1.
         22    1    1    2    0    0 -0.13548833988E+03  0.47617452381E+03  0.12644839085E+04  0.13579465462E+04  0.00000000000E+00 0. -1.
<mgrwt>
<rscale>  0 0.27182261E+04</rscale>
<asrwt>0</asrwt>
<pdfrwt beam="1">  1        1 0.20915398E+00 0.27182261E+04</pdfrwt>
<pdfrwt beam="2">  1       -1 0.20903468E+00 0.27182261E+04</pdfrwt>
<totfact> 0.93365600E-01</totfact>
</mgrwt>
</event>
<event>
 6    1  0.1762360E-005  0.1186994E+04  0.7818608E-02  0.9124318E-01
          2   -1    0    0  501    0  0.00000000000E+00  0.00000000000E+00  0.62222195505E+03  0.62222195505E+03  0.00000000000E+00 0.  1.
         -2   -1    0    0    0  501 -0.00000000000E+00 -0.00000000000E+00 -0.56609792925E+03  0.56609792925E+03  0.00000000000E+00 0. -1.
         23    2    1    2    0    0  0.34452761021E+03 -0.51583389101E+02 -0.44841453732E+03  0.57519731750E+03  0.91740048773E+02 0.  0.
         13    1    3    3    0    0  0.20729621772E+03 -0.72300835924E+02 -0.24533646560E+03  0.32922502048E+03  0.00000000000E+00 0.  1.
        -13    1    3    3    0    0  0.13723139250E+03  0.20717446823E+02 -0.20307807172E+03  0.24597229702E+03  0.00000000000E+00 0. -1.
         22    1    1    2    0    0 -0.34452761021E+03  0.51583389101E+02  0.50453856313E+03  0.61312256680E+03  0.00000000000E+00 0.  1.
<mgrwt>
<rscale>  0 0.11869938E+04</rscale>
<asrwt>0</asrwt>
<pdfrwt beam="1">  1        2 0.95726454E-01 0.11869938E+04</pdfrwt>
<pdfrwt beam="2">  1       -2 0.87091990E-01 0.11869938E+04</pdfrwt>
<totfact> 0.53432250E+01</totfact>
</mgrwt>
</event>
<event>
 6    1  0.1762360E-005  0.1186490E+04  0.7818608E-02  0.9124765E-01
          1   -1    0    0  501    0  0.00000000000E+00  0.00000000000E+00  0.57213899712E+03  0.57213899712E+03  0.00000000000E+00 0. -1.
         -1   -1    0    0    0  501 -0.00000000000E+00 -0.00000000000E+00 -0.61512911238E+03  0.61512911238E+03  0.00000000000E+00 0.  1.
         23    2    1    2    0    0  0.58890881767E+03  0.54863088694E+01 -0.55680094184E+01  0.59714599575E+03  0.98532443384E+02 0.  0.
         11    1    3    3    0    0  0.44351231704E+03 -0.31160140868E+02  0.19919360285E+02  0.44505158202E+03  0.00000000000E+00 0. -1.
        -11    1    3    3    0    0  0.14539650063E+03  0.36646449737E+02 -0.25487369703E+02  0.15209441373E+03  0.00000000000E+00 0.  1.
         22    1    1    2    0    0 -0.58890881767E+03 -0.54863088694E+01 -0.37422105840E+02  0.59012211374E+03  0.00000000000E+00 0.  1.
<mgrwt>
<rscale>  0 0.11864895E+04</rscale>
<asrwt>0</asrwt>
<pdfrwt beam="1">  1        1 0.88021384E-01 0.11864895E+04</pdfrwt>
<pdfrwt beam="2">  1       -1 0.94635248E-01 0.11864895E+04</pdfrwt>
<totfact> 0.39262232E+01</totfact>
</mgrwt>
</event>
<event>
 6    1  0.1762360E-005  0.1778330E+04  0.7818608E-02  0.8717909E-01
          2   -1    0    0  501    0  0.00000000000E+00  0.00000000000E+00  0.10643967919E+04  0.10643967919E+04  0.00000000000E+00 0. -1.
         -2   -1    0    0    0  501 -0.00000000000E+00 -0.00000000000E+00 -0.74278177939E+03  0.74278177939E+03  0.00000000000E+00 0.  1.
         23    2    1    2    0    0 -0.19056849616E+03 -0.56670783229E+03  0.82677835626E+03  0.10244499319E+04  0.91984203556E+02 0.  0.
         13    1    3    3    0    0 -0.30496799089E+02 -0.22731815060E+03  0.29741020723E+03  0.37557479642E+03  0.00000000000E+00 0. -1.
        -13    1    3    3    0    0 -0.16007169707E+03 -0.33938968170E+03  0.52936814903E+03  0.64887513549E+03  0.00000000000E+00 0.  1.
         22    1    1    2    0    0  0.19056849616E+03  0.56670783229E+03 -0.50516334379E+03  0.78272863933E+03  0.00000000000E+00 0.  1.
<mgrwt>
<rscale>  0 0.17783302E+04</rscale>
<asrwt>0</asrwt>
<pdfrwt beam="1">  1        2 0.16375335E+00 0.17783302E+04</pdfrwt>
<pdfrwt beam="2">  1       -2 0.11427412E+00 0.17783302E+04</pdfrwt>
<totfact> 0.12985157E+01</totfact>
</mgrwt>
</event>
<event>
 6    1  0.1762360E-005  0.2934307E+04  0.7818608E-02  0.8262743E-01
         -1   -1    0    0    0  501 -0.00000000000E+00  0.00000000000E+00  0.17380005094E+04  0.17380005094E+04  0.00000000000E+00 0.  1.
          1   -1    0    0  501    0  0.00000000000E+00 -0.00000000000E+00 -0.12385149949E+04  0.12385149949E+04  0.00000000000E+00 0. -1.
         23    2    1    2    0    0 -0.13119913582E+04 -0.54743841442E+03 -0.11236305867E+03  0.14288175952E+04  0.88792577978E+02 0.  0.
         11    1    3    3    0    0 -0.70560836328E+03 -0.28055836855E+03 -0.10253132239E+03  0.76623027385E+03  0.00000000000E+00 0. -1.
        -11    1    3    3    0    0 -0.60638299489E+03 -0.26688004587E+03 -0.98317362854E+01  0.66258732135E+03  0.00000000000E+00 0.  1.
         22    1    1    2    0    0  0.13119913582E+04  0.54743841442E+03  0.61184857310E+03  0.15476979091E+04  0.00000000000E+00 0.  1.
<mgrwt>
<rscale>  0 0.29343072E+04</rscale>
<asrwt>0</asrwt>
<pdfrwt beam="1">  1        1 0.19054077E+00 0.29343072E+04</pdfrwt>
<pdfrwt beam="2">  1       -1 0.26738469E+00 0.29343072E+04</pdfrwt>
<totfact> 0.46058156E-01</totfact>
</mgrwt>
</event>
<event>
 6    1  0.1762360E-005  0.3211629E+04  0.7818608E-02  0.8185753E-01
          2   -1    0    0  501    0  0.00000000000E+00  0.00000000000E+00  0.22963650486E+04  0.22963650486E+04  0.00000000000E+00 0.  1.
         -2   -1    0    0    0  501 -0.00000000000E+00 -0.00000000000E+00 -0.11229228504E+04  0.11229228504E+04  0.00000000000E+00 0. -1.
         23    2    1    2    0    0  0.79056257874E+03  0.55635826258E+03 -0.77612956292E+03  0.12432010994E+04  0.92995526000E+02 0.  0.
         11    1    3    3    0    0  0.25294975191E+03  0.20770143070E+03 -0.31018145948E+03  0.45092793117E+03  0.00000000000E+00 0.  1.
        -11    1    3    3    0    0  0.53761282683E+03  0.34865683188E+03 -0.46594810344E+03  0.79227316823E+03  0.00000000000E+00 0. -1.
         22    1    1    2    0    0 -0.79056257874E+03 -0.55635826258E+03  0.19495717612E+04  0.21760867996E+04  0.00000000000E+00 0.  1.
<mgrwt>
<rscale>  0 0.32116294E+04</rscale>
<asrwt>0</asrwt>
<pdfrwt beam="1">  1        2 0.35328693E+00 0.32116294E+04</pdfrwt>
<pdfrwt beam="2">  1       -2 0.17275736E+00 0.32116294E+04</pdfrwt>
<totfact> 0.78077636E-01</totfact>
</mgrwt>
</event>
<event>
 6    1  0.1762360E-005  0.2967746E+04  0.7818608E-02  0.8253002E-01
          2   -1    0    0  501    0  0.00000000000E+00  0.00000000000E+00  0.22743022288E+04  0.22743022288E+04  0.00000000000E+00 0. -1.
         -2   -1    0    0    0  501 -0.00000000000E+00 -0.00000000000E+00 -0.96815579883E+03  0.96815579883E+03  0.00000000000E+00 0.  1.
         23    2    1    2    0    0  0.11593663079E+04  0.91397209160E+03  0.50664093216E+03  0.15635642665E+04  0.92590287543E+02 0.  0.
         11    1    3    3    0    0  0.55421052025E+03  0.38231467637E+03  0.24862292987E+03  0.71772360542E+03  0.00000000000E+00 0.  1.
        -11    1    3    3    0    0  0.60515578762E+03  0.53165741523E+03  0.25801800229E+03  0.84584066110E+03  0.00000000000E+00 0. -1.
         22    1    1    2    0    0 -0.11593663079E+04 -0.91397209160E+03  0.79950549779E+03  0.16788937611E+04  0.00000000000E+00 0. -1.
<mgrwt>
<rscale>  0 0.29677459E+04</rscale>
<asrwt>0</asrwt>
<pdfrwt beam="1">  1        2 0.34989265E+00 0.29677459E+04</pdfrwt>
<pdfrwt beam="2">  1       -2 0.14894705E+00 0.29677459E+04</pdfrwt>
<totfact> 0.12282789E+00</totfact>
</mgrwt>
</event>
<event>
 6    1  0.1762360E-005  0.1626144E+04  0.7818608E-02  0.8804646E-01
         -2   -1    0    0    0  501 -0.00000000000E+00  0.00000000000E+00  0.45462801875E+03  0.45462801875E+03  0.00000000000E+00 0.  1.
          2   -1    0    0  501    0  0.00000000000E+00 -0.00000000000E+00 -0.14541258157E+04  0.14541258157E+04  0.00000000000E+00 0. -1.
         23    2    1    2    0    0  0.71846044975E+03  0.13960597123E+03 -0.92863419059E+02  0.74356666483E+03  0.92695875779E+02 0.  0.
         13    1    3    3    0    0  0.48501826912E+03  0.13203334941E+03 -0.41184605301E+02  0.50435275200E+03  0.00000000000E+00 0.  1.
        -13    1    3    3    0    0  0.23344218063E+03  0.75726218146E+01 -0.51678813758E+02  0.23921391282E+03  0.00000000000E+00 0. -1.
         22    1    1    2    0    0 -0.71846044975E+03 -0.13960597123E+03 -0.90663437787E+03  0.11651871696E+04  0.00000000000E+00 0. -1.
<mgrwt>
<rscale>  0 0.16261443E+04</rscale>
<asrwt>0</asrwt>
<pdfrwt beam="1">  1        2 0.22371166E+00 0.16261443E+04</pdfrwt>
<pdfrwt beam="2">  1       -2 0.69942772E-01 0.16261443E+04</pdfrwt>
<totfact> 0.24017605E+01</totfact>
</mgrwt>
</event>
<event>
 6    1  0.1762360E-005  0.1042843E+04  0.7818608E-02  0.9262765E-01
         -2   -1    0    0    0  501 -0.00000000000E+00  0.00000000000E+00  0.32094520976E+03  0.32094520976E+03  0.00000000000E+00 0.  1.
          2   -1    0    0  501    0  0.00000000000E+00 -0.00000000000E+00 -0.84712320066E+03  0.84712320066E+03  0.00000000000E+00 0. -1.
         23    2    1    2    0    0  0.29998669150E+03 -0.13884555012E+03 -0.71072856643E+03  0.78948022150E+03  0.94200972055E+02 0.  0.
         13    1    3    3    0    0  0.10295042469E+03 -0.93950248168E+02 -0.24652901968E+03  0.28319957030E+03  0.00000000000E+00 0.  1.
        -13    1    3    3    0    0  0.19703626681E+03 -0.44895301951E+02 -0.46419954675E+03  0.50628065120E+03  0.00000000000E+00 0. -1.
         22    1    1    2    0    0 -0.29998669150E+03  0.13884555012E+03  0.18455057552E+03  0.37858818892E+03  0.00000000000E+00 0.  1.
<mgrwt>
<rscale>  0 0.10428425E+04</rscale>
<asrwt>0</asrwt>
<pdfrwt beam="1">  1        2 0.13032665E+00 0.10428425E+04</pdfrwt>
<pdfrwt beam="2">  1       -2 0.49376186E-01 0.10428425E+04</pdfrwt>
<totfact> 0.12330273E+02</totfact>
</mgrwt>
</event>
<event>
 6    1  0.1762360E-005  0.1392164E+04  0.7818608E-02  0.8959510E-01
          2   -1    0    0  501    0  0.00000000000E+00  0.00000000000E+00  0.11581483398E+04  0.11581483398E+04  0.00000000000E+00 0.  1.
         -2   -1    0    0    0  501 -0.00000000000E+00 -0.00000000000E+00 -0.41836628754E+03  0.41836628754E+03  0.00000000000E+00 0. -1.
         23    2    1    2    0    0 -0.34950688729E+03  0.70027619919E+02 -0.30224708505E+03  0.47520465515E+03  0.86065277790E+02 0.  0.
         13    1    3    3    0    0 -0.16058082667E+03 -0.51320607531E+00 -0.17106428908E+03  0.23462620543E+03  0.00000000000E+00 0. -1.
        -13    1    3    3    0    0 -0.18892606062E+03  0.70540825994E+02 -0.13118279597E+03  0.24057844973E+03  0.00000000000E+00 0.  1.
         22    1    1    2    0    0  0.34950688729E+03 -0.70027619919E+02  0.10420291374E+04  0.11013099722E+04  0.00000000000E+00 0.  1.
<mgrwt>
<rscale>  0 0.13921641E+04</rscale>
<asrwt>0</asrwt>
<pdfrwt beam="1">  1        2 0.17817667E+00 0.13921641E+04</pdfrwt>
<pdfrwt beam="2">  1       -2 0.64364045E-01 0.13921641E+04</pdfrwt>
<totfact> 0.43590580E+01</totfact>
</mgrwt>
</event>
<event>
 6    1  0.1762360E-005  0.7906427E+03  0.7818608E-02  0.9573661E-01
          2   -1    0    0  501    0  0.00000000000E+00  0.00000000000E+00  0.19907842099E+04  0.19907842099E+04  0.00000000000E+00 0. -1.
         -2   -1    0    0    0  501 -0.00000000000E+00 -0.00000000000E+00 -0.78501204102E+02  0.78501204102E+02  0.00000000000E+00 0.  1.
         23    2    1    2    0    0 -0.31045265164E+03  0.17906453172E+03  0.56741492598E+03  0.67748258761E+03  0.92617508428E+02 0.  0.
         11    1    3    3    0    0 -0.13315199379E+03  0.11603046542E+03  0.33249124488E+03  0.37648764957E+03  0.00000000000E+00 0.  1.
        -11    1    3    3    0    0 -0.17730065785E+03  0.63034066302E+02  0.23492368110E+03  0.30099493805E+03  0.00000000000E+00 0. -1.
         22    1    1    2    0    0  0.31045265164E+03 -0.17906453172E+03  0.13448680798E+04  0.13918028264E+04  0.00000000000E+00 0. -1.
<mgrwt>
<rscale>  0 0.79064267E+03</rscale>
<asrwt>0</asrwt>
<pdfrwt beam="1">  1        2 0.30627445E+00 0.79064267E+03</pdfrwt>
<pdfrwt beam="2">  1       -2 0.12077110E-01 0.79064267E+03</pdfrwt>
<totfact> 0.34733647E+02</totfact>
</mgrwt>
</event>
<event>
 6    1  0.1762360E-005  0.2978707E+04  0.7818608E-02  0.8249838E-01
         -2   -1    0    0    0  501 -0.00000000000E+00  0.00000000000E+00  0.11251223017E+04  0.11251223017E+04  0.00000000000E+00 0.  1.
          2   -1    0    0  501    0  0.00000000000E+00 -0.00000000000E+00 -0.19714953564E+04  0.19714953564E+04  0.00000000000E+00 0. -1.
         23    2    1    2    0    0  0.10286346479E+04  0.61653170999E+03 -0.13393897330E+04  0.17999812274E+04  0.88130436181E+02 0.  0.
         13    1    3    3    0    0  0.38985217742E+03  0.22136750600E+03 -0.43962504980E+03  0.62790005364E+03  0.00000000000E+00 0.  1.
        -13    1    3    3    0    0  0.63878247052E+03  0.39516420399E+03 -0.89976468317E+03  0.11720811737E+04  0.00000000000E+00 0. -1.
         22    1    1    2    0    0 -0.10286346479E+04 -0.61653170999E+03  0.49301667829E+03  0.12966364307E+04  0.00000000000E+00 0.  1.
<mgrwt>
<rscale>  0 0.29787067E+04</rscale>
<asrwt>0</asrwt>
<pdfrwt beam="1">  1        2 0.30330698E+00 0.29787067E+04</pdfrwt>
<pdfrwt beam="2">  1       -2 0.17309574E+00 0.29787067E+04</pdfrwt>
<totfact> 0.12042672E+00</totfact>
</mgrwt>
</event>
<event>
 6    1  0.1762360E-005  0.6799156E+03  0.7818608E-02  0.9752209E-01
         -1   -1    0    0    0  501 -0.00000000000E+00  0.00000000000E+00  0.96560776529E+02  0.96560776529E+02  0.00000000000E+00 0. -1.
          1   -1    0    0  501    0  0.00000000000E+00 -0.00000000000E+00 -0.11968762525E+04  0.11968762525E+04  0.00000000000E+00 0.  1.
         23    2    1    2    0    0 -0.15652295626E+03  0.22443757836E+03 -0.92390477975E+03  0.96787229483E+03  0.91132182246E+02 0.  0.
         11    1    3    3    0    0 -0.57989709397E+02  0.97633443088E+02 -0.24206686568E+03  0.26737887551E+03  0.00000000000E+00 0. -1.
        -11    1    3    3    0    0 -0.98533246859E+02  0.12680413527E+03 -0.68183791407E+03  0.70049341933E+03  0.00000000000E+00 0.  1.
         22    1    1    2    0    0  0.15652295626E+03 -0.22443757836E+03 -0.17641069623E+03  0.32556473421E+03  0.00000000000E+00 0. -1.
<mgrwt>
<rscale>  0 0.67991558E+03</rscale>
<asrwt>0</asrwt>
<pdfrwt beam="1">  1        1 0.18413482E+00 0.67991558E+03</pdfrwt>
<pdfrwt beam="2">  1       -1 0.14855503E-01 0.67991558E+03</pdfrwt>
<totfact> 0.36481916E+02</totfact>
</mgrwt>
</event>
<event>
 6    1  0.1762360E-005  0.2175826E+04  0.7818608E-02  0.8528558E-01
          2   -1    0    0  501    0  0.00000000000E+00  0.00000000000E+00  0.18569634504E+04  0.18569634504E+04  0.00000000000E+00 0. -1.
         -2   -1    0    0    0  501 -0.00000000000E+00 -0.00000000000E+00 -0.63736046277E+03  0.63736046277E+03  0.00000000000E+00 0.  1.
         23    2    1    2    0    0  0.23258010797E+03 -0.86702810086E+03 -0.89271401084E+02  0.90719335782E+03  0.95912309437E+02 0.  0.
         11    1    3    3    0    0  0.33090366595E+02 -0.10402633918E+03  0.20095614616E+02  0.11099678073E+03  0.00000000000E+00 0. -1.
        -11    1    3    3    0    0  0.19948974138E+03 -0.76300176168E+03 -0.10936701570E+03  0.79619657709E+03  0.00000000000E+00 0.  1.
         22    1    1    2    0    0 -0.23258010797E+03  0.86702810086E+03  0.13088743888E+04  0.15871305554E+04  0.00000000000E+00 0.  1.
<mgrwt>
<rscale>  0 0.21758264E+04</rscale>
<asrwt>0</asrwt>
<pdfrwt beam="1">  1        2 0.28568668E+00 0.21758264E+04</pdfrwt>
<pdfrwt beam="2">  1       -2 0.98055457E-01 0.21758264E+04</pdfrwt>
<totfact> 0.63574841E+00</totfact>
</mgrwt>
</event>
<event>
 6    1  0.1762360E-005  0.3415200E+03  0.7818608E-02  0.1066150E+00
          1   -1    0    0  501    0  0.00000000000E+00  0.00000000000E+00  0.65915943146E+02  0.65915943146E+02  0.00000000000E+00 0. -1.
         -1   -1    0    0    0  501 -0.00000000000E+00 -0.00000000000E+00 -0.44236605111E+03  0.44236605111E+03  0.00000000000E+00 0.  1.
         23    2    1    2    0    0  0.67910958715E+02 -0.14384454378E+03 -0.19525998983E+03  0.26717411384E+03  0.89176187327E+02 0.  0.
         13    1    3    3    0    0 -0.19363096119E+02 -0.96520417850E+01 -0.16445672632E+02  0.27176304941E+02  0.00000000000E+00 0.  1.
        -13    1    3    3    0    0  0.87274054834E+02 -0.13419250200E+03 -0.17881431720E+03  0.23999780890E+03  0.00000000000E+00 0. -1.
         22    1    1    2    0    0 -0.67910958715E+02  0.14384454378E+03 -0.18119011813E+03  0.24110788042E+03  0.00000000000E+00 0. -1.
<mgrwt>
<rscale>  0 0.34151999E+03</rscale>
<asrwt>0</asrwt>
<pdfrwt beam="1">  1        1 0.10140914E-01 0.34151999E+03</pdfrwt>
<pdfrwt beam="2">  1       -1 0.68056315E-01 0.34151999E+03</pdfrwt>
<totfact> 0.14325496E+03</totfact>
</mgrwt>
</event>
<event>
 6    1  0.1762360E-005  0.9315938E+03  0.7818608E-02  0.9386927E-01
         -2   -1    0    0    0  501 -0.00000000000E+00  0.00000000000E+00  0.31984852035E+03  0.31984852035E+03  0.00000000000E+00 0.  1.
          2   -1    0    0  501    0  0.00000000000E+00 -0.00000000000E+00 -0.67834223678E+03  0.67834223678E+03  0.00000000000E+00 0. -1.
         23    2    1    2    0    0  0.30708003797E+03  0.34663884492E+03 -0.20795477223E+03  0.51124249269E+03  0.60556259049E+02 0.  0.
         11    1    3    3    0    0  0.16030337018E+03  0.17568805734E+03 -0.13965107204E+03  0.27580044581E+03  0.00000000000E+00 0. -1.
        -11    1    3    3    0    0  0.14677666778E+03  0.17095078758E+03 -0.68303700182E+02  0.23544204688E+03  0.00000000000E+00 0.  1.
         22    1    1    2    0    0 -0.30708003797E+03 -0.34663884492E+03 -0.15053894421E+03  0.48694826445E+03  0.00000000000E+00 0.  1.
<mgrwt>
<rscale>  0 0.93159382E+03</rscale>
<asrwt>0</asrwt>
<pdfrwt beam="1">  1        2 0.10436034E+00 0.93159382E+03</pdfrwt>
<pdfrwt beam="2">  1       -2 0.49207465E-01 0.93159382E+03</pdfrwt>
<totfact> 0.16697292E+02</totfact>
</mgrwt>
</event>
<event>
 6    1  0.1762360E-005  0.2665514E+04  0.7818608E-02  0.8346282E-01
          1   -1    0    0  501    0  0.00000000000E+00  0.00000000000E+00  0.83653202422E+03  0.83653202422E+03  0.00000000000E+00 0. -1.
         -1   -1    0    0    0  501 -0.00000000000E+00 -0.00000000000E+00 -0.21233387758E+04  0.21233387758E+04  0.00000000000E+00 0.  1.
         23    2    1    2    0    0  0.33933448102E+03  0.14015677395E+03  0.77695669841E+03  0.86370492184E+03  0.86790952948E+02 0.  0.
         13    1    3    3    0    0  0.23689275566E+03  0.63969259909E+02  0.56949250635E+03  0.62010640917E+03  0.00000000000E+00 0.  1.
        -13    1    3    3    0    0  0.10244172536E+03  0.76187514044E+02  0.20746419206E+03  0.24359851267E+03  0.00000000000E+00 0. -1.
         22    1    1    2    0    0 -0.33933448102E+03 -0.14015677395E+03 -0.20637634500E+04  0.20961658782E+04  0.00000000000E+00 0.  1.
<mgrwt>
<rscale>  0 0.26655137E+04</rscale>
<asrwt>0</asrwt>
<pdfrwt beam="1">  1        1 0.12869724E+00 0.26655137E+04</pdfrwt>
<pdfrwt beam="2">  1       -1 0.32666750E+00 0.26655137E+04</pdfrwt>
<totfact> 0.39863645E-01</totfact>
</mgrwt>
</event>
<event>
 6    1  0.1762360E-005  0.1043095E+04  0.7818608E-02  0.9262502E-01
         -1   -1    0    0    0  501 -0.00000000000E+00  0.00000000000E+00  0.17378675532E+03  0.17378675532E+03  0.00000000000E+00 0.  1.
          1   -1    0    0  501    0  0.00000000000E+00 -0.00000000000E+00 -0.15652040375E+04  0.15652040375E+04  0.00000000000E+00 0. -1.
         23    2    1    2    0    0  0.16243934039E+03 -0.19605779828E+03 -0.14521769633E+04  0.14772333891E+04  0.92603205133E+02 0.  0.
         11    1    3    3    0    0  0.13403085903E+03 -0.19000794229E+03 -0.13796359340E+04  0.13990934921E+04  0.00000000000E+00 0.  1.
        -11    1    3    3    0    0  0.28408481358E+02 -0.60498559840E+01 -0.72541029319E+02  0.78139897012E+02  0.00000000000E+00 0. -1.
         22    1    1    2    0    0 -0.16243934039E+03  0.19605779828E+03  0.60759681084E+02  0.26175740375E+03  0.00000000000E+00 0.  1.
<mgrwt>
<rscale>  0 0.10430949E+04</rscale>
<asrwt>0</asrwt>
<pdfrwt beam="1">  1        1 0.24080062E+00 0.10430949E+04</pdfrwt>
<pdfrwt beam="2">  1       -1 0.26736424E-01 0.10430949E+04</pdfrwt>
<totfact> 0.73575668E+01</totfact>
</mgrwt>
</event>
<event>
 6    1  0.1762360E-005  0.2502406E+04  0.7818608E-02  0.8402129E-01
         -1   -1    0    0    0  501 -0.00000000000E+00  0.00000000000E+00  0.10452839472E+04  0.10452839472E+04  0.00000000000E+00 0.  1.
          1   -1    0    0  501    0  0.00000000000E+00 -0.00000000000E+00 -0.14976880894E+04  0.14976880894E+04  0.00000000000E+00 0. -1.
         23    2    1    2    0    0  0.25299137429E+03  0.43595996368E+02 -0.14692257042E+04  0.14942435992E+04  0.90744242168E+02 0.  0.
         13    1    3    3    0    0 -0.39815228299E+01 -0.90376816056E+01 -0.61508053944E+02  0.62295849885E+02  0.00000000000E+00 0.  1.
        -13    1    3    3    0    0  0.25697289712E+03  0.52633677974E+02 -0.14077176503E+04  0.14319477493E+04  0.00000000000E+00 0. -1.
         22    1    1    2    0    0 -0.25299137429E+03 -0.43595996368E+02  0.10168215620E+04  0.10487284374E+04  0.00000000000E+00 0.  1.
<mgrwt>
<rscale>  0 0.25024063E+04</rscale>
<asrwt>0</asrwt>
<pdfrwt beam="1">  1        1 0.23041355E+00 0.25024063E+04</pdfrwt>
<pdfrwt beam="2">  1       -1 0.16081291E+00 0.25024063E+04</pdfrwt>
<totfact> 0.16804150E+00</totfact>
</mgrwt>
</event>
<event>
 6    1  0.1762360E-005  0.2713271E+04  0.7818608E-02  0.8330712E-01
          1   -1    0    0  501    0  0.00000000000E+00  0.00000000000E+00  0.20986069206E+04  0.20986069206E+04  0.00000000000E+00 0. -1.
         -1   -1    0    0    0  501 -0.00000000000E+00 -0.00000000000E+00 -0.87699133998E+03  0.87699133998E+03  0.00000000000E+00 0.  1.
         23    2    1    2    0    0 -0.56510228510E+03 -0.83441045418E+03 -0.38203026379E+03  0.10815915571E+04  0.91168937551E+02 0.  0.
         13    1    3    3    0    0 -0.77995084293E+02 -0.67671477986E+02 -0.32056247027E+02  0.10812152922E+03  0.00000000000E+00 0.  1.
        -13    1    3    3    0    0 -0.48710720081E+03 -0.76673897619E+03 -0.34997401676E+03  0.97347002784E+03  0.00000000000E+00 0. -1.
         22    1    1    2    0    0  0.56510228510E+03  0.83441045418E+03  0.16036458444E+04  0.18940067035E+04  0.00000000000E+00 0. -1.
<mgrwt>
<rscale>  0 0.27132712E+04</rscale>
<asrwt>0</asrwt>
<pdfrwt beam="1">  1        1 0.32286260E+00 0.27132712E+04</pdfrwt>
<pdfrwt beam="2">  1       -1 0.13492175E+00 0.27132712E+04</pdfrwt>
<totfact> 0.10274256E+00</totfact>
</mgrwt>
</event>
<event>
 6    1  0.1762360E-005  0.4481779E+03  0.7818608E-02  0.1028267E+00
          2   -1    0    0  501    0  0.00000000000E+00  0.00000000000E+00  0.20315976616E+04  0.20315976616E+04  0.00000000000E+00 0. -1.
         -2   -1    0    0    0  501 -0.00000000000E+00 -0.00000000000E+00 -0.24717417165E+02  0.24717417165E+02  0.00000000000E+00 0.  1.
         23    2    1    2    0    0  0.54840759298E+02 -0.20003897194E+03  0.13058296129E+04  0.13252233696E+04  0.89458942205E+02 0.  0.
         11    1    3    3    0    0 -0.15420403858E+02 -0.69937016264E+02  0.29125033264E+03  0.29992620986E+03  0.00000000000E+00 0. -1.
        -11    1    3    3    0    0  0.70261163157E+02 -0.13010195568E+03  0.10145792802E+04  0.10252971597E+04  0.00000000000E+00 0.  1.
         22    1    1    2    0    0 -0.54840759298E+02  0.20003897194E+03  0.70105063160E+03  0.73109170919E+03  0.00000000000E+00 0.  1.
<mgrwt>
<rscale>  0 0.44817785E+03</rscale>
<asrwt>0</asrwt>
<pdfrwt beam="1">  1        2 0.31255335E+00 0.44817785E+03</pdfrwt>
<pdfrwt beam="2">  1       -2 0.38026812E-02 0.44817785E+03</pdfrwt>
<totfact> 0.20997532E+03</totfact>
</mgrwt>
</event>
<event>
 6    1  0.1762360E-005  0.1930585E+04  0.7818608E-02  0.8639780E-01
         -2   -1    0    0    0  501 -0.00000000000E+00  0.00000000000E+00  0.39571591444E+03  0.39571591444E+03  0.00000000000E+00 0. -1.
          2   -1    0    0  501    0  0.00000000000E+00 -0.00000000000E+00 -0.23546939039E+04  0.23546939039E+04  0.00000000000E+00 0.  1.
         23    2    1    2    0    0 -0.74698195797E+03  0.55070906136E+03 -0.13491774111E+04  0.16399507866E+04  0.88861578364E+02 0.  0.
         13    1    3    3    0    0 -0.54982876968E+03  0.36161901575E+03 -0.98779520391E+03  0.11869369627E+04  0.00000000000E+00 0.  1.
        -13    1    3    3    0    0 -0.19715318829E+03  0.18909004561E+03 -0.36138220721E+03  0.45301382395E+03  0.00000000000E+00 0. -1.
         22    1    1    2    0    0  0.74698195797E+03 -0.55070906136E+03 -0.60980057836E+03  0.11104590317E+04  0.00000000000E+00 0. -1.
<mgrwt>
<rscale>  0 0.19305852E+04</rscale>
<asrwt>0</asrwt>
<pdfrwt beam="1">  1        2 0.36226061E+00 0.19305852E+04</pdfrwt>
<pdfrwt beam="2">  1       -2 0.60879370E-01 0.19305852E+04</pdfrwt>
<totfact> 0.99046086E+00</totfact>
</mgrwt>
</event>
<event>
 6    1  0.1762360E-005  0.1848330E+04  0.7818608E-02  0.8681012E-01
         -1   -1    0    0    0  501 -0.00000000000E+00  0.00000000000E+00  0.10938076194E+04  0.10938076194E+04  0.00000000000E+00 0.  1.
          1   -1    0    0  501    0  0.00000000000E+00 -0.00000000000E+00 -0.78083319870E+03  0.78083319870E+03  0.00000000000E+00 0. -1.
         23    2    1    2    0    0  0.43535555496E+03 -0.80509461327E+03  0.44594401561E+02  0.92083809728E+03  0.90787362541E+02 0.  0.
         13    1    3    3    0    0  0.17924131403E+03 -0.40405304205E+03  0.50936955975E+02  0.44495042749E+03  0.00000000000E+00 0. -1.
        -13    1    3    3    0    0  0.25611424093E+03 -0.40104157122E+03 -0.63425544144E+01  0.47588766978E+03  0.00000000000E+00 0.  1.
         22    1    1    2    0    0 -0.43535555496E+03  0.80509461327E+03  0.26838001911E+03  0.95380272080E+03  0.00000000000E+00 0.  1.
<mgrwt>
<rscale>  0 0.18483304E+04</rscale>
<asrwt>0</asrwt>
<pdfrwt beam="1">  1        1 0.12012818E+00 0.18483304E+04</pdfrwt>
<pdfrwt beam="2">  1       -1 0.16827810E+00 0.18483304E+04</pdfrwt>
<totfact> 0.54724070E+00</totfact>
</mgrwt>
</event>
<event>
 6    1  0.1762360E-005  0.1285587E+04  0.7818608E-02  0.9041074E-01
         -2   -1    0    0    0  501 -0.00000000000E+00  0.00000000000E+00  0.11312985662E+03  0.11312985662E+03  0.00000000000E+00 0.  1.
          2   -1    0    0  501    0  0.00000000000E+00 -0.00000000000E+00 -0.36522913919E+04  0.36522913919E+04  0.00000000000E+00 0. -1.
         23    2    1    2    0    0  0.22968905952E+03 -0.51511584315E+03 -0.89647323229E+03  0.10632179137E+04  0.93095004638E+02 0.  0.
         11    1    3    3    0    0  0.46213875538E+01 -0.68527392890E+02 -0.76819210279E+02  0.10304635785E+03  0.00000000000E+00 0. -1.
        -11    1    3    3    0    0  0.22506767196E+03 -0.44658845026E+03 -0.81965402201E+03  0.96017155586E+03  0.00000000000E+00 0.  1.
         22    1    1    2    0    0 -0.22968905952E+03  0.51511584315E+03 -0.26426883030E+04  0.27022033348E+04  0.00000000000E+00 0. -1.
<mgrwt>
<rscale>  0 0.12855866E+04</rscale>
<asrwt>0</asrwt>
<pdfrwt beam="1">  1        2 0.56189095E+00 0.12855866E+04</pdfrwt>
<pdfrwt beam="2">  1       -2 0.17404594E-01 0.12855866E+04</pdfrwt>
<totfact> 0.17335131E+01</totfact>
</mgrwt>
</event>
<event>
 6    1  0.1762360E-005  0.8300723E+03  0.7818608E-02  0.9517481E-01
         -2   -1    0    0    0  501 -0.00000000000E+00  0.00000000000E+00  0.47496094315E+02  0.47496094315E+02  0.00000000000E+00 0.  1.
          2   -1    0    0  501    0  0.00000000000E+00 -0.00000000000E+00 -0.36267192952E+04  0.36267192952E+04  0.00000000000E+00 0. -1.
         23    2    1    2    0    0  0.29199181397E+03  0.28243936595E+03 -0.20492084022E+04  0.20911877527E+04  0.93701261194E+02 0.  0.
         13    1    3    3    0    0  0.14801937464E+03  0.15091875927E+03 -0.83071277642E+03  0.85718721647E+03  0.00000000000E+00 0.  1.
        -13    1    3    3    0    0  0.14397243933E+03  0.13152060668E+03 -0.12184956258E+04  0.12340005362E+04  0.00000000000E+00 0. -1.
         22    1    1    2    0    0 -0.29199181397E+03 -0.28243936595E+03 -0.15300147987E+04  0.15830276369E+04  0.00000000000E+00 0.  1.
<mgrwt>
<rscale>  0 0.83007229E+03</rscale>
<asrwt>0</asrwt>
<pdfrwt beam="1">  1        2 0.55795677E+00 0.83007229E+03</pdfrwt>
<pdfrwt beam="2">  1       -2 0.73070920E-02 0.83007229E+03</pdfrwt>
<totfact> 0.80350654E+01</totfact>
</mgrwt>
</event>
<event>
 6    1  0.1762360E-005  0.3249082E+04  0.7818608E-02  0.8175974E-01
          1   -1    0    0  501    0  0.00000000000E+00  0.00000000000E+00  0.37215941894E+04  0.37215941894E+04  0.00000000000E+00 0. -1.
         -1   -1    0    0    0  501 -0.00000000000E+00 -0.00000000000E+00 -0.70914060031E+03  0.70914060031E+03  0.00000000000E+00 0.  1.
         23    2    1    2    0    0  0.43814932439E+02 -0.10330333227E+04  0.32138474042E+04  0.33773416708E+04  0.92433920632E+02 0.  0.
         11    1    3    3    0    0 -0.12046291242E+02 -0.53831032045E+03  0.15710330283E+04  0.16607431740E+04  0.00000000000E+00 0. -1.
        -11    1    3    3    0    0  0.55861223681E+02 -0.49472300230E+03  0.16428143759E+04  0.17165984967E+04  0.00000000000E+00 0.  1.
         22    1    1    2    0    0 -0.43814932439E+02  0.10330333227E+04 -0.20139381511E+03  0.10533931189E+04  0.00000000000E+00 0.  1.
<mgrwt>
<rscale>  0 0.32490820E+04</rscale>
<asrwt>0</asrwt>
<pdfrwt beam="1">  1        1 0.57255294E+00 0.32490820E+04</pdfrwt>
<pdfrwt beam="2">  1       -1 0.10909856E+00 0.32490820E+04</pdfrwt>
<totfact> 0.10720902E-01</totfact>
</mgrwt>
</event>
<event>
 6    1  0.1762360E-005  0.4214504E+04  0.7818608E-02  0.7962619E-01
         -2   -1    0    0    0  501 -0.00000000000E+00  0.00000000000E+00  0.14903674274E+04  0.14903674274E+04  0.00000000000E+00 0.  1.
          2   -1    0    0  501    0  0.00000000000E+00 -0.00000000000E+00 -0.29794737584E+04  0.29794737584E+04  0.00000000000E+00 0. -1.
         23    2    1    2    0    0  0.20324232072E+04 -0.16250936053E+03 -0.13049415054E+04  0.24226308721E+04  0.95470542429E+02 0.  0.
         13    1    3    3    0    0  0.95014301491E+03 -0.37172347260E+02 -0.57518462514E+03  0.11113014376E+04  0.00000000000E+00 0.  1.
        -13    1    3    3    0    0  0.10822801923E+04 -0.12533701327E+03 -0.72975688021E+03  0.13113294345E+04  0.00000000000E+00 0. -1.
         22    1    1    2    0    0 -0.20324232072E+04  0.16250936053E+03 -0.18416482567E+03  0.20472103137E+04  0.00000000000E+00 0.  1.
<mgrwt>
<rscale>  0 0.42145038E+04</rscale>
<asrwt>0</asrwt>
<pdfrwt beam="1">  1        2 0.45838057E+00 0.42145038E+04</pdfrwt>
<pdfrwt beam="2">  1       -2 0.22928730E+00 0.42145038E+04</pdfrwt>
<totfact> 0.12005728E-01</totfact>
</mgrwt>
</event>
<event>
 6    1  0.1762360E-005  0.3827012E+04  0.7818608E-02  0.8040383E-01
          2   -1    0    0  501    0  0.00000000000E+00  0.00000000000E+00  0.10913959969E+04  0.10913959969E+04  0.00000000000E+00 0. -1.
         -2   -1    0    0    0  501 -0.00000000000E+00 -0.00000000000E+00 -0.33548824957E+04  0.33548824957E+04  0.00000000000E+00 0.  1.
         23    2    1    2    0    0  0.16089745176E+04 -0.52555226514E+03 -0.21665357991E+04  0.27508718689E+04  0.91730522308E+02 0.  0.
         13    1    3    3    0    0  0.19534151530E+03 -0.96029720808E+02 -0.27866169880E+03  0.35359914770E+03  0.00000000000E+00 0. -1.
        -13    1    3    3    0    0  0.14136330023E+04 -0.42952254433E+03 -0.18878741003E+04  0.23972727212E+04  0.00000000000E+00 0.  1.
         22    1    1    2    0    0 -0.16089745176E+04  0.52555226514E+03 -0.96950699692E+02  0.16954066237E+04  0.00000000000E+00 0. -1.
<mgrwt>
<rscale>  0 0.38270121E+04</rscale>
<asrwt>0</asrwt>
<pdfrwt beam="1">  1        2 0.16790708E+00 0.38270121E+04</pdfrwt>
<pdfrwt beam="2">  1       -2 0.51613577E+00 0.38270121E+04</pdfrwt>
<totfact> 0.23234534E-02</totfact>
</mgrwt>
</event>
<event>
 6    1  0.1762360E-005  0.3629028E+04  0.7818608E-02  0.8083875E-01
          1   -1    0    0  501    0  0.00000000000E+00  0.00000000000E+00  0.22144116284E+04  0.22144116284E+04  0.00000000000E+00 0. -1.
         -1   -1    0    0    0  501 -0.00000000000E+00 -0.00000000000E+00 -0.14868337344E+04  0.14868337344E+04  0.00000000000E+00 0.  1.
         23    2    1    2    0    0 -0.10413621090E+04  0.82026214367E+03  0.16260089370E+04  0.20998574132E+04  0.90725224920E+02 0.  0.
         11    1    3    3    0    0 -0.94597141140E+03  0.74588352568E+03  0.15160110805E+04  0.19363609533E+04  0.00000000000E+00 0. -1.
        -11    1    3    3    0    0 -0.95390697556E+02  0.74378617988E+02  0.10999785645E+03  0.16349645996E+03  0.00000000000E+00 0.  1.
         22    1    1    2    0    0  0.10413621090E+04 -0.82026214367E+03 -0.89843104293E+03  0.16013879496E+04  0.00000000000E+00 0.  1.
<mgrwt>
<rscale>  0 0.36290285E+04</rscale>
<asrwt>0</asrwt>
<pdfrwt beam="1">  1        1 0.34067871E+00 0.36290285E+04</pdfrwt>
<pdfrwt beam="2">  1       -1 0.22874365E+00 0.36290285E+04</pdfrwt>
<totfact> 0.16540981E-01</totfact>
</mgrwt>
</event>
<event>
 6    1  0.1762360E-005  0.1906715E+04  0.7818608E-02  0.8651521E-01
          2   -1    0    0  501    0  0.00000000000E+00  0.00000000000E+00  0.40034192265E+04  0.40034192265E+04  0.00000000000E+00 0. -1.
         -2   -1    0    0    0  501 -0.00000000000E+00 -0.00000000000E+00 -0.22702865614E+03  0.22702865614E+03  0.00000000000E+00 0.  1.
         23    2    1    2    0    0  0.71669605522E+03  0.19002445476E+03  0.57081705970E+03  0.94024058504E+03  0.91965825853E+02 0.  0.
         13    1    3    3    0    0  0.50732581050E+03  0.17502430565E+03  0.42659131651E+03  0.68556045459E+03  0.00000000000E+00 0.  1.
        -13    1    3    3    0    0  0.20937024472E+03  0.15000149111E+02  0.14422574320E+03  0.25468013045E+03  0.00000000000E+00 0. -1.
         22    1    1    2    0    0 -0.71669605522E+03 -0.19002445476E+03  0.32055735106E+04  0.32902072976E+04  0.00000000000E+00 0. -1.
<mgrwt>
<rscale>  0 0.19067154E+04</rscale>
<asrwt>0</asrwt>
<pdfrwt beam="1">  1        2 0.61591060E+00 0.19067154E+04</pdfrwt>
<pdfrwt beam="2">  1       -2 0.34927488E-01 0.19067154E+04</pdfrwt>
<totfact> 0.24778927E+00</totfact>
</mgrwt>
</event>
<event>
 6    1  0.1762360E-005  0.6027160E+03  0.7818608E-02  0.9899787E-01
         -1   -1    0    0    0  501 -0.00000000000E+00  0.00000000000E+00  0.21644016951E+03  0.21644016951E+03  0.00000000000E+00 0.  1.
          1   -1    0    0  501    0  0.00000000000E+00 -0.00000000000E+00 -0.41959238073E+03  0.41959238073E+03  0.00000000000E+00 0. -1.
         23    2    1    2    0    0 -0.28189313545E+03 -0.27587100853E+01 -0.13880349146E+02  0.29648109896E+03  0.90758072116E+02 0.  0.
         13    1    3    3    0    0 -0.52733144526E+02 -0.36952972165E+02 -0.56235972619E+01  0.64636920793E+02  0.00000000000E+00 0.  1.
        -13    1    3    3    0    0 -0.22915999092E+03  0.34194262079E+02 -0.82567518837E+01  0.23184417817E+03  0.00000000000E+00 0. -1.
         22    1    1    2    0    0  0.28189313545E+03  0.27587100853E+01 -0.18927186207E+03  0.33955145128E+03  0.00000000000E+00 0. -1.
<mgrwt>
<rscale>  0 0.60271601E+03</rscale>
<asrwt>0</asrwt>
<pdfrwt beam="1">  1        1 0.64552673E-01 0.60271601E+03</pdfrwt>
<pdfrwt beam="2">  1       -1 0.33298488E-01 0.60271601E+03</pdfrwt>
<totfact> 0.48266375E+02</totfact>
</mgrwt>
</event>
<event>
 6    1  0.1762360E-005  0.1864101E+04  0.7818608E-02  0.8672935E-01
          4   -1    0    0  501    0  0.00000000000E+00  0.00000000000E+00  0.37781622046E+03  0.37781622046E+03  0.00000000000E+00 0. -1.
         -4   -1    0    0    0  501 -0.00000000000E+00 -0.00000000000E+00 -0.22993129163E+04  0.22993129163E+04  0.00000000000E+00 0.  1.
         23    2    1    2    0    0  0.68738159803E+03 -0.62083128603E+03 -0.84499270869E+03  0.12569933047E+04  0.89969680391E+02 0.  0.
         13    1    3    3    0    0  0.38986012591E+03 -0.30272113356E+03 -0.48381698636E+03  0.69116559432E+03  0.00000000000E+00 0. -1.
        -13    1    3    3    0    0  0.29752147212E+03 -0.31811015247E+03 -0.36117572233E+03  0.56582771042E+03  0.00000000000E+00 0.  1.
         22    1    1    2    0    0 -0.68738159803E+03  0.62083128603E+03 -0.10765039871E+04  0.14201358320E+04  0.00000000000E+00 0.  1.
<mgrwt>
<rscale>  0 0.18641006E+04</rscale>
<asrwt>0</asrwt>
<pdfrwt beam="1">  1        4 0.58125573E-01 0.18641006E+04</pdfrwt>
<pdfrwt beam="2">  1       -4 0.35374045E+00 0.18641006E+04</pdfrwt>
<totfact> 0.74299127E-02</totfact>
</mgrwt>
</event>
<event>
 6    1  0.1762360E-005  0.9800320E+03  0.7818608E-02  0.9330721E-01
          2   -1    0    0  501    0  0.00000000000E+00  0.00000000000E+00  0.21927856848E+03  0.21927856848E+03  0.00000000000E+00 0. -1.
         -2   -1    0    0    0  501 -0.00000000000E+00 -0.00000000000E+00 -0.10950257018E+04  0.10950257018E+04  0.00000000000E+00 0.  1.
         23    2    1    2    0    0 -0.34108013004E+03  0.29473601101E+03 -0.68437490765E+03  0.82458159359E+03  0.91437514062E+02 0.  0.
         13    1    3    3    0    0 -0.10065464686E+03  0.96036296585E+02 -0.29109108358E+03  0.32262725728E+03  0.00000000000E+00 0. -1.
        -13    1    3    3    0    0 -0.24042548318E+03  0.19869971442E+03 -0.39328382406E+03  0.50195433631E+03  0.00000000000E+00 0.  1.
         22    1    1    2    0    0  0.34108013004E+03 -0.29473601101E+03 -0.19137222564E+03  0.48972267666E+03  0.00000000000E+00 0. -1.
<mgrwt>
<rscale>  0 0.98003198E+03</rscale>
<asrwt>0</asrwt>
<pdfrwt beam="1">  1        2 0.33735164E-01 0.98003198E+03</pdfrwt>
<pdfrwt beam="2">  1       -2 0.16846549E+00 0.98003198E+03</pdfrwt>
<totfact> 0.34048743E+01</totfact>
</mgrwt>
</event>
<event>
 6    1  0.1762360E-005  0.9191779E+03  0.7818608E-02  0.9401921E-01
          1   -1    0    0  501    0  0.00000000000E+00  0.00000000000E+00  0.58485998162E+03  0.58485998162E+03  0.00000000000E+00 0. -1.
         -1   -1    0    0    0  501 -0.00000000000E+00 -0.00000000000E+00 -0.36114973222E+03  0.36114973222E+03  0.00000000000E+00 0.  1.
         23    2    1    2    0    0 -0.37804249385E+03  0.14280940399E+03 -0.10028926397E+03  0.42804606871E+03  0.99271584271E+02 0.  0.
         11    1    3    3    0    0 -0.31933821628E+03  0.88001178833E+02 -0.10530277968E+03  0.34757701199E+03  0.00000000000E+00 0. -1.
        -11    1    3    3    0    0 -0.58704277567E+02  0.54808225155E+02  0.50135157091E+01  0.80469056718E+02  0.00000000000E+00 0.  1.
         22    1    1    2    0    0  0.37804249385E+03 -0.14280940399E+03  0.32399951336E+03  0.51796364514E+03  0.00000000000E+00 0. -1.
<mgrwt>
<rscale>  0 0.91917795E+03</rscale>
<asrwt>0</asrwt>
<pdfrwt beam="1">  1        1 0.89978459E-01 0.91917795E+03</pdfrwt>
<pdfrwt beam="2">  1       -1 0.55561497E-01 0.91917795E+03</pdfrwt>
<totfact> 0.11721016E+02</totfact>
</mgrwt>
</event>
<event>
 6    1  0.1762360E-005  0.2304169E+04  0.7818608E-02  0.8476279E-01
          1   -1    0    0  501    0  0.00000000000E+00  0.00000000000E+00  0.13032633477E+04  0.13032633477E+04  0.00000000000E+00 0. -1.
         -1   -1    0    0    0  501 -0.00000000000E+00 -0.00000000000E+00 -0.10184423532E+04  0.10184423532E+04  0.00000000000E+00 0.  1.
         23    2    1    2    0    0 -0.89413366461E+03  0.39434845511E+03  0.75404548544E+03  0.12376589598E+04  0.90715998319E+02 0.  0.
         11    1    3    3    0    0 -0.38498009659E+03  0.12750230455E+03  0.28389732693E+03  0.49503959910E+03  0.00000000000E+00 0.  1.
        -11    1    3    3    0    0 -0.50915356802E+03  0.26684615057E+03  0.47014815851E+03  0.74261936067E+03  0.00000000000E+00 0. -1.
         22    1    1    2    0    0  0.89413366461E+03 -0.39434845511E+03 -0.46922449095E+03  0.10840467412E+04  0.00000000000E+00 0.  1.
<mgrwt>
<rscale>  0 0.23041689E+04</rscale>
<asrwt>0</asrwt>
<pdfrwt beam="1">  1        1 0.20050205E+00 0.23041689E+04</pdfrwt>
<pdfrwt beam="2">  1       -1 0.15668344E+00 0.23041689E+04</pdfrwt>
<totfact> 0.25183718E+00</totfact>
</mgrwt>
</event>
<event>
 6    1  0.1762360E-005  0.2859739E+04  0.7818608E-02  0.8284958E-01
          2   -1    0    0  501    0  0.00000000000E+00  0.00000000000E+00  0.12809648263E+04  0.12809648263E+04  0.00000000000E+00 0. -1.
         -2   -1    0    0    0  501 -0.00000000000E+00 -0.00000000000E+00 -0.15960833234E+04  0.15960833234E+04  0.00000000000E+00 0.  1.
         23    2    1    2    0    0 -0.37961488226E+03 -0.13767578270E+04 -0.18763510276E+03  0.14432344975E+04  0.90273529253E+02 0.  0.
         13    1    3    3    0    0 -0.11003849740E+03 -0.37791366669E+03 -0.92179410301E+02  0.40425765801E+03  0.00000000000E+00 0.  1.
        -13    1    3    3    0    0 -0.26957638486E+03 -0.99884416031E+03 -0.95455692463E+02  0.10389768395E+04  0.00000000000E+00 0. -1.
         22    1    1    2    0    0  0.37961488226E+03  0.13767578270E+04 -0.12748339434E+03  0.14338136521E+04  0.00000000000E+00 0. -1.
<mgrwt>
<rscale>  0 0.28597389E+04</rscale>
<asrwt>0</asrwt>
<pdfrwt beam="1">  1        2 0.19707151E+00 0.28597389E+04</pdfrwt>
<pdfrwt beam="2">  1       -2 0.24555128E+00 0.28597389E+04</pdfrwt>
<totfact> 0.10052863E+00</totfact>
</mgrwt>
</event>
<event>
 6    1  0.1762360E-005  0.2686257E+04  0.7818608E-02  0.8339478E-01
          2   -1    0    0  501    0  0.00000000000E+00  0.00000000000E+00  0.25426539729E+04  0.25426539729E+04  0.00000000000E+00 0. -1.
         -2   -1    0    0    0  501 -0.00000000000E+00 -0.00000000000E+00 -0.70949277994E+03  0.70949277994E+03  0.00000000000E+00 0.  1.
         23    2    1    2    0    0  0.12186274507E+04  0.46022089693E+03  0.13059270627E+04  0.18468596057E+04  0.92675631993E+02 0.  0.
         13    1    3    3    0    0  0.10905096091E+04  0.39713966016E+03  0.11247300053E+04  0.16161524377E+04  0.00000000000E+00 0. -1.
        -13    1    3    3    0    0  0.12811784162E+03  0.63081236765E+02  0.18119705740E+03  0.23070716803E+03  0.00000000000E+00 0.  1.
         22    1    1    2    0    0 -0.12186274507E+04 -0.46022089693E+03  0.52723413024E+03  0.14052871470E+04  0.00000000000E+00 0.  1.
<mgrwt>
<rscale>  0 0.26862573E+04</rscale>
<asrwt>0</asrwt>
<pdfrwt beam="1">  1        2 0.39117753E+00 0.26862573E+04</pdfrwt>
<pdfrwt beam="2">  1       -2 0.10915274E+00 0.26862573E+04</pdfrwt>
<totfact> 0.19325934E+00</totfact>
</mgrwt>
</event>
<event>
 6    1  0.1762360E-005  0.1460222E+04  0.7818608E-02  0.8911344E-01
          2   -1    0    0  501    0  0.00000000000E+00  0.00000000000E+00  0.33545774566E+04  0.33545774566E+04  0.00000000000E+00 0. -1.
         -2   -1    0    0    0  501 -0.00000000000E+00 -0.00000000000E+00 -0.15890593036E+03  0.15890593036E+03  0.00000000000E+00 0.  1.
         23    2    1    2    0    0  0.36257477795E+03 -0.53107096725E+03  0.24218639170E+04  0.25073645779E+04  0.89193341630E+02 0.  0.
         11    1    3    3    0    0  0.31695563472E+03 -0.42400874054E+03  0.18778362434E+04  0.19510287654E+04  0.00000000000E+00 0.  1.
        -11    1    3    3    0    0  0.45619143224E+02 -0.10706222672E+03  0.54402767360E+03  0.55633581249E+03  0.00000000000E+00 0. -1.
         22    1    1    2    0    0 -0.36257477795E+03  0.53107096725E+03  0.77380760931E+03  0.10061188091E+04  0.00000000000E+00 0.  1.
<mgrwt>
<rscale>  0 0.14602222E+04</rscale>
<asrwt>0</asrwt>
<pdfrwt beam="1">  1        2 0.51608879E+00 0.14602222E+04</pdfrwt>
<pdfrwt beam="2">  1       -2 0.24447069E-01 0.14602222E+04</pdfrwt>
<totfact> 0.15013003E+01</totfact>
</mgrwt>
</event>
<event>
 6    1  0.1762360E-005  0.2517347E+04  0.7818608E-02  0.8396832E-01
          2   -1    0    0  501    0  0.00000000000E+00  0.00000000000E+00  0.17517892494E+04  0.17517892494E+04  0.00000000000E+00 0. -1.
         -2   -1    0    0    0  501 -0.00000000000E+00 -0.00000000000E+00 -0.90436620533E+03  0.90436620533E+03  0.00000000000E+00 0.  1.
         23    2    1    2    0    0  0.12132883567E+04 -0.29129677883E+03  0.58625346720E+03  0.13813488036E+04  0.86654137834E+02 0.  0.
         11    1    3    3    0    0  0.21417852590E+03 -0.84158039128E+02  0.11962939229E+03  0.25935729796E+03  0.00000000000E+00 0. -1.
        -11    1    3    3    0    0  0.99910983081E+03 -0.20713873970E+03  0.46662407491E+03  0.11219915057E+04  0.00000000000E+00 0.  1.
         22    1    1    2    0    0 -0.12132883567E+04  0.29129677883E+03  0.26116957691E+03  0.12748066511E+04  0.00000000000E+00 0.  1.
<mgrwt>
<rscale>  0 0.25173470E+04</rscale>
<asrwt>0</asrwt>
<pdfrwt beam="1">  1        2 0.26950604E+00 0.25173470E+04</pdfrwt>
<pdfrwt beam="2">  1       -2 0.13913326E+00 0.25173470E+04</pdfrwt>
<totfact> 0.29838168E+00</totfact>
</mgrwt>
</event>
<event>
 6    1  0.1762360E-005  0.3524273E+04  0.7818608E-02  0.8108062E-01
         -1   -1    0    0    0  501 -0.00000000000E+00  0.00000000000E+00  0.13815089148E+04  0.13815089148E+04  0.00000000000E+00 0.  1.
          1   -1    0    0  501    0  0.00000000000E+00 -0.00000000000E+00 -0.22476327273E+04  0.22476327273E+04  0.00000000000E+00 0. -1.
         23    2    1    2    0    0 -0.28160802069E+03  0.14901689156E+04 -0.13551081767E+04  0.20357138330E+04  0.88916618150E+02 0.  0.
         13    1    3    3    0    0 -0.18365025574E+03  0.10702684341E+04 -0.92132882594E+03  0.14240957633E+04  0.00000000000E+00 0. -1.
        -13    1    3    3    0    0 -0.97957764945E+02  0.41990048154E+03 -0.43377935074E+03  0.61161806974E+03  0.00000000000E+00 0.  1.
         22    1    1    2    0    0  0.28160802069E+03 -0.14901689156E+04  0.48898436420E+03  0.15934278091E+04  0.00000000000E+00 0.  1.
<mgrwt>
<rscale>  0 0.35242728E+04</rscale>
<asrwt>0</asrwt>
<pdfrwt beam="1">  1        1 0.34578964E+00 0.35242728E+04</pdfrwt>
<pdfrwt beam="2">  1       -1 0.21253984E+00 0.35242728E+04</pdfrwt>
<totfact> 0.20334648E-01</totfact>
</mgrwt>
</event>
<event>
 6    1  0.1762360E-005  0.7238281E+03  0.7818608E-02  0.9677329E-01
          2   -1    0    0  501    0  0.00000000000E+00  0.00000000000E+00  0.62850365871E+03  0.62850365871E+03  0.00000000000E+00 0. -1.
         -2   -1    0    0    0  501 -0.00000000000E+00 -0.00000000000E+00 -0.20840260143E+03  0.20840260143E+03  0.00000000000E+00 0.  1.
         23    2    1    2    0    0 -0.27612141291E+03 -0.20306508021E+03  0.10174467140E+03  0.36911437275E+03  0.91733203070E+02 0.  0.
         11    1    3    3    0    0 -0.25323540240E+03 -0.16782961870E+03  0.59576369888E+02  0.30958729591E+03  0.00000000000E+00 0. -1.
        -11    1    3    3    0    0 -0.22886010513E+02 -0.35235461515E+02  0.42168301508E+02  0.59527076843E+02  0.00000000000E+00 0.  1.
         22    1    1    2    0    0  0.27612141291E+03  0.20306508021E+03  0.31835638588E+03  0.46779188738E+03  0.00000000000E+00 0. -1.
<mgrwt>
<rscale>  0 0.72382815E+03</rscale>
<asrwt>0</asrwt>
<pdfrwt beam="1">  1        2 0.96692870E-01 0.72382815E+03</pdfrwt>
<pdfrwt beam="2">  1       -2 0.32061939E-01 0.72382815E+03</pdfrwt>
<totfact> 0.42681557E+02</totfact>
</mgrwt>
</event>
<event>
 6    1  0.1762360E-005  0.1092013E+04  0.7818608E-02  0.9213012E-01
         -2   -1    0    0    0  501 -0.00000000000E+00  0.00000000000E+00  0.22488665368E+03  0.22488665368E+03  0.00000000000E+00 0.  1.
          2   -1    0    0  501    0  0.00000000000E+00 -0.00000000000E+00 -0.13256590884E+04  0.13256590884E+04  0.00000000000E+00 0. -1.
         23    2    1    2    0    0  0.11815666067E+03  0.47311778270E+03 -0.21785687600E+03  0.54191235149E+03  0.91683943585E+02 0.  0.
         13    1    3    3    0    0  0.21803487243E+02  0.24959035774E+03 -0.84761120537E+02  0.26449042759E+03  0.00000000000E+00 0. -1.
        -13    1    3    3    0    0  0.96353173430E+02  0.22352742496E+03 -0.13309575546E+03  0.27742192390E+03  0.00000000000E+00 0.  1.
         22    1    1    2    0    0 -0.11815666067E+03 -0.47311778270E+03 -0.88291555872E+03  0.10086333906E+04  0.00000000000E+00 0. -1.
<mgrwt>
<rscale>  0 0.10920129E+04</rscale>
<asrwt>0</asrwt>
<pdfrwt beam="1">  1        2 0.20394755E+00 0.10920129E+04</pdfrwt>
<pdfrwt beam="2">  1       -2 0.34597947E-01 0.10920129E+04</pdfrwt>
<totfact> 0.12413955E+02</totfact>
</mgrwt>
</event>
<event>
 6    1  0.1762360E-005  0.2201518E+04  0.7818608E-02  0.8517796E-01
         -1   -1    0    0    0  501 -0.00000000000E+00  0.00000000000E+00  0.11972348773E+04  0.11972348773E+04  0.00000000000E+00 0.  1.
          1   -1    0    0  501    0  0.00000000000E+00 -0.00000000000E+00 -0.10120576366E+04  0.10120576366E+04  0.00000000000E+00 0. -1.
         23    2    1    2    0    0 -0.93838644494E+03  0.44917079923E+03  0.44760350446E+03  0.11363567885E+04  0.92921077910E+02 0.  0.
         13    1    3    3    0    0 -0.43748396190E+03  0.25994062132E+03  0.20840380233E+03  0.54990316271E+03  0.00000000000E+00 0. -1.
        -13    1    3    3    0    0 -0.50090248304E+03  0.18923017791E+03  0.23919970212E+03  0.58645362582E+03  0.00000000000E+00 0.  1.
         22    1    1    2    0    0  0.93838644494E+03 -0.44917079923E+03 -0.26242626372E+03  0.10729357254E+04  0.00000000000E+00 0. -1.
<mgrwt>
<rscale>  0 0.22015183E+04</rscale>
<asrwt>0</asrwt>
<pdfrwt beam="1">  1        1 0.15570117E+00 0.22015183E+04</pdfrwt>
<pdfrwt beam="2">  1       -1 0.18418998E+00 0.22015183E+04</pdfrwt>
<totfact> 0.26216732E+00</totfact>
</mgrwt>
</event>
<event>
 6    1  0.1762360E-005  0.6849987E+04  0.7818608E-02  0.7593107E-01
         -2   -1    0    0    0  501 -0.00000000000E+00  0.00000000000E+00  0.34866834295E+04  0.34866834295E+04  0.00000000000E+00 0.  1.
          2   -1    0    0  501    0  0.00000000000E+00 -0.00000000000E+00 -0.33643947136E+04  0.33643947136E+04  0.00000000000E+00 0. -1.
         23    2    1    2    0    0  0.77540456389E+02  0.20379886105E+04 -0.26900923083E+04  0.33770463176E+04  0.91842829425E+02 0.  0.
         13    1    3    3    0    0  0.21370104220E+02  0.14112759649E+04 -0.18147175529E+04  0.22989902843E+04  0.00000000000E+00 0. -1.
        -13    1    3    3    0    0  0.56170352170E+02  0.62671264556E+03 -0.87537475541E+03  0.10780560333E+04  0.00000000000E+00 0.  1.
         22    1    1    2    0    0 -0.77540456389E+02 -0.20379886105E+04  0.28123810242E+04  0.34740318254E+04  0.00000000000E+00 0.  1.
<mgrwt>
<rscale>  0 0.68499867E+04</rscale>
<asrwt>0</asrwt>
<pdfrwt beam="1">  1        2 0.51759919E+00 0.68499867E+04</pdfrwt>
<pdfrwt beam="2">  1       -2 0.53641284E+00 0.68499867E+04</pdfrwt>
<totfact> 0.65383578E-04</totfact>
</mgrwt>
</event>
<event>
 6    1  0.1762360E-005  0.1887075E+04  0.7818608E-02  0.8661317E-01
          2   -1    0    0  501    0  0.00000000000E+00  0.00000000000E+00  0.12563987991E+04  0.12563987991E+04  0.00000000000E+00 0. -1.
         -2   -1    0    0    0  501 -0.00000000000E+00 -0.00000000000E+00 -0.70858327923E+03  0.70858327923E+03  0.00000000000E+00 0.  1.
         23    2    1    2    0    0  0.77504146487E+03  0.53147874472E+03  0.21786370817E+03  0.96897649282E+03  0.91059980007E+02 0.  0.
         13    1    3    3    0    0  0.30782422687E+03  0.18405966067E+03  0.44018487044E+02  0.36134656569E+03  0.00000000000E+00 0. -1.
        -13    1    3    3    0    0  0.46721723800E+03  0.34741908405E+03  0.17384522112E+03  0.60762992714E+03  0.00000000000E+00 0.  1.
         22    1    1    2    0    0 -0.77504146487E+03 -0.53147874472E+03  0.32995181174E+03  0.99600558554E+03  0.00000000000E+00 0. -1.
<mgrwt>
<rscale>  0 0.18870752E+04</rscale>
<asrwt>0</asrwt>
<pdfrwt beam="1">  1        2 0.19329212E+00 0.18870752E+04</pdfrwt>
<pdfrwt beam="2">  1       -2 0.10901281E+00 0.18870752E+04</pdfrwt>
<totfact> 0.11041232E+01</totfact>
</mgrwt>
</event>
<event>
 6    1  0.1762360E-005  0.2048509E+04  0.7818608E-02  0.8584271E-01
         -1   -1    0    0    0  501 -0.00000000000E+00  0.00000000000E+00  0.16206689153E+04  0.16206689153E+04  0.00000000000E+00 0.  1.
          1   -1    0    0  501    0  0.00000000000E+00 -0.00000000000E+00 -0.64732359632E+03  0.64732359632E+03  0.00000000000E+00 0. -1.
         23    2    1    2    0    0  0.69001872700E+03  0.68432896802E+03  0.83865047836E+03  0.12868836083E+04  0.91119791628E+02 0.  0.
         11    1    3    3    0    0  0.30287773297E+03  0.35735220298E+03  0.37534961502E+03  0.60026898270E+03  0.00000000000E+00 0.  1.
        -11    1    3    3    0    0  0.38714099403E+03  0.32697676504E+03  0.46330086334E+03  0.68661462561E+03  0.00000000000E+00 0. -1.
         22    1    1    2    0    0 -0.69001872700E+03 -0.68432896802E+03  0.13469484062E+03  0.98110890331E+03  0.00000000000E+00 0. -1.
<mgrwt>
<rscale>  0 0.20485090E+04</rscale>
<asrwt>0</asrwt>
<pdfrwt beam="1">  1        1 0.99588246E-01 0.20485090E+04</pdfrwt>
<pdfrwt beam="2">  1       -1 0.24933368E+00 0.20485090E+04</pdfrwt>
<totfact> 0.19934580E+00</totfact>
</mgrwt>
</event>
<event>
 6    1  0.1762360E-005  0.2182639E+04  0.7818608E-02  0.8525689E-01
         -2   -1    0    0    0  501 -0.00000000000E+00  0.00000000000E+00  0.20598410666E+04  0.20598410666E+04  0.00000000000E+00 0.  1.
          2   -1    0    0  501    0  0.00000000000E+00 -0.00000000000E+00 -0.57818942438E+03  0.57818942438E+03  0.00000000000E+00 0. -1.
         23    2    1    2    0    0 -0.10368562684E+04 -0.32272990165E+03  0.64059370720E+03  0.12644934653E+04  0.96736319207E+02 0.  0.
         11    1    3    3    0    0 -0.48071254605E+03 -0.19600699746E+03  0.32764813110E+03  0.61388646573E+03  0.00000000000E+00 0. -1.
        -11    1    3    3    0    0 -0.55614372235E+03 -0.12672290418E+03  0.31294557610E+03  0.65060699961E+03  0.00000000000E+00 0.  1.
         22    1    1    2    0    0  0.10368562684E+04  0.32272990165E+03  0.84105793499E+03  0.13735370256E+04  0.00000000000E+00 0.  1.
<mgrwt>
<rscale>  0 0.21826391E+04</rscale>
<asrwt>0</asrwt>
<pdfrwt beam="1">  1        2 0.88952220E-01 0.21826391E+04</pdfrwt>
<pdfrwt beam="2">  1       -2 0.31689862E+00 0.21826391E+04</pdfrwt>
<totfact> 0.11889998E+00</totfact>
</mgrwt>
</event>
<event>
 6    1  0.1762360E-005  0.1516720E+04  0.7818608E-02  0.8873410E-01
         -1   -1    0    0    0  501 -0.00000000000E+00  0.00000000000E+00  0.41308734439E+03  0.41308734439E+03  0.00000000000E+00 0.  1.
          1   -1    0    0  501    0  0.00000000000E+00 -0.00000000000E+00 -0.13922234062E+04  0.13922234062E+04  0.00000000000E+00 0. -1.
         23    2    1    2    0    0  0.67205305006E+01 -0.51345355854E+03 -0.11511332577E+04  0.12637733487E+04  0.91299384896E+02 0.  0.
         13    1    3    3    0    0 -0.32368075496E+02 -0.22242183052E+03 -0.56865019947E+03  0.61145908478E+03  0.00000000000E+00 0.  1.
        -13    1    3    3    0    0  0.39088605997E+02 -0.29103172802E+03 -0.58248305819E+03  0.65231426392E+03  0.00000000000E+00 0. -1.
         22    1    1    2    0    0 -0.67205305006E+01  0.51345355854E+03  0.17199719583E+03  0.54153740192E+03  0.00000000000E+00 0.  1.
<mgrwt>
<rscale>  0 0.15167200E+04</rscale>
<asrwt>0</asrwt>
<pdfrwt beam="1">  1        1 0.21418821E+00 0.15167200E+04</pdfrwt>
<pdfrwt beam="2">  1       -1 0.63551900E-01 0.15167200E+04</pdfrwt>
<totfact> 0.18872784E+01</totfact>
</mgrwt>
</event>
<event>
 6    1  0.1762360E-005  0.3556365E+04  0.7818608E-02  0.8100561E-01
         -2   -1    0    0    0  501 -0.00000000000E+00  0.00000000000E+00  0.26571649349E+04  0.26571649349E+04  0.00000000000E+00 0. -1.
          2   -1    0    0  501    0  0.00000000000E+00 -0.00000000000E+00 -0.11899648647E+04  0.11899648647E+04  0.00000000000E+00 0.  1.
         23    2    1    2    0    0 -0.26122267917E+03  0.96854367353E+03 -0.85262169871E+03  0.13197028125E+04  0.91310550639E+02 0.  0.
         13    1    3    3    0    0 -0.84289662457E+02  0.47571632040E+03 -0.43091084747E+03  0.64737541131E+03  0.00000000000E+00 0.  1.
        -13    1    3    3    0    0 -0.17693301671E+03  0.49282735313E+03 -0.42171085124E+03  0.67232740123E+03  0.00000000000E+00 0. -1.
         22    1    1    2    0    0  0.26122267917E+03 -0.96854367353E+03  0.23198217689E+04  0.25274269871E+04  0.00000000000E+00 0. -1.
<mgrwt>
<rscale>  0 0.35563649E+04</rscale>
<asrwt>0</asrwt>
<pdfrwt beam="1">  1        2 0.18307152E+00 0.35563649E+04</pdfrwt>
<pdfrwt beam="2">  1       -2 0.40879460E+00 0.35563649E+04</pdfrwt>
<totfact> 0.10200422E-01</totfact>
</mgrwt>
</event>
<event>
 6    1  0.1762360E-005  0.1417594E+04  0.7818608E-02  0.8941181E-01
          2   -1    0    0  501    0  0.00000000000E+00  0.00000000000E+00  0.95159772577E+03  0.95159772577E+03  0.00000000000E+00 0.  1.
         -2   -1    0    0    0  501 -0.00000000000E+00 -0.00000000000E+00 -0.52794690014E+03  0.52794690014E+03  0.00000000000E+00 0. -1.
         23    2    1    2    0    0 -0.47269328606E+03 -0.20827778869E+03 -0.28899193154E+03  0.59938652688E+03  0.94494931961E+02 0.  0.
         13    1    3    3    0    0 -0.24750602226E+03 -0.15599083457E+03 -0.13979922204E+03  0.32424711873E+03  0.00000000000E+00 0. -1.
        -13    1    3    3    0    0 -0.22518726380E+03 -0.52286954124E+02 -0.14919270950E+03  0.27513940815E+03  0.00000000000E+00 0.  1.
         22    1    1    2    0    0  0.47269328606E+03  0.20827778869E+03  0.71264275717E+03  0.88015809903E+03  0.00000000000E+00 0.  1.
<mgrwt>
<rscale>  0 0.14175938E+04</rscale>
<asrwt>0</asrwt>
<pdfrwt beam="1">  1        2 0.14639965E+00 0.14175938E+04</pdfrwt>
<pdfrwt beam="2">  1       -2 0.81222600E-01 0.14175938E+04</pdfrwt>
<totfact> 0.35179373E+01</totfact>
</mgrwt>
</event>
<event>
 6    1  0.1762360E-005  0.7359274E+03  0.7818608E-02  0.9657690E-01
         -1   -1    0    0    0  501 -0.00000000000E+00  0.00000000000E+00  0.92336168422E+02  0.92336168422E+02  0.00000000000E+00 0.  1.
          1   -1    0    0  501    0  0.00000000000E+00 -0.00000000000E+00 -0.14663517483E+04  0.14663517483E+04  0.00000000000E+00 0. -1.
         23    2    1    2    0    0  0.33848482822E+03 -0.11180903525E+03 -0.56135017896E+03  0.67127691096E+03  0.91790132741E+02 0.  0.
         11    1    3    3    0    0  0.11091629386E+03  0.74702950026E+01 -0.16964477108E+03  0.20282400722E+03  0.00000000000E+00 0.  1.
        -11    1    3    3    0    0  0.22756853437E+03 -0.11927933025E+03 -0.39170540788E+03  0.46845290374E+03  0.00000000000E+00 0. -1.
         22    1    1    2    0    0 -0.33848482822E+03  0.11180903525E+03 -0.81266540095E+03  0.88741100579E+03  0.00000000000E+00 0.  1.
<mgrwt>
<rscale>  0 0.73592745E+03</rscale>
<asrwt>0</asrwt>
<pdfrwt beam="1">  1        1 0.22559258E+00 0.73592745E+03</pdfrwt>
<pdfrwt beam="2">  1       -1 0.14205564E-01 0.73592745E+03</pdfrwt>
<totfact> 0.25273967E+02</totfact>
</mgrwt>
</event>
<event>
 6    1  0.1762360E-005  0.2207295E+04  0.7818608E-02  0.8515398E-01
         -2   -1    0    0    0  501 -0.00000000000E+00  0.00000000000E+00  0.13692254872E+04  0.13692254872E+04  0.00000000000E+00 0.  1.
          2   -1    0    0  501    0  0.00000000000E+00 -0.00000000000E+00 -0.88958168530E+03  0.88958168530E+03  0.00000000000E+00 0. -1.
         23    2    1    2    0    0 -0.10542395861E+04  0.29380945002E+01  0.56793158309E+03  0.12008731152E+04  0.90112255761E+02 0.  0.
         13    1    3    3    0    0 -0.67867482987E+03 -0.23683150456E+02  0.40445202408E+03  0.79040613364E+03  0.00000000000E+00 0. -1.
        -13    1    3    3    0    0 -0.37556475619E+03  0.26621244956E+02  0.16347955901E+03  0.41046698160E+03  0.00000000000E+00 0.  1.
         22    1    1    2    0    0  0.10542395861E+04 -0.29380945002E+01 -0.88287781177E+02  0.10579340573E+04  0.00000000000E+00 0.  1.
<mgrwt>
<rscale>  0 0.22072951E+04</rscale>
<asrwt>0</asrwt>
<pdfrwt beam="1">  1        2 0.13685872E+00 0.22072951E+04</pdfrwt>
<pdfrwt beam="2">  1       -2 0.21065007E+00 0.22072951E+04</pdfrwt>
<totfact> 0.30865922E+00</totfact>
</mgrwt>
</event>
<event>
 6    1  0.1762360E-005  0.3942071E+04  0.7818608E-02  0.8016336E-01
          1   -1    0    0  501    0  0.00000000000E+00  0.00000000000E+00  0.22102661905E+04  0.22102661905E+04  0.00000000000E+00 0. -1.
         -1   -1    0    0    0  501 -0.00000000000E+00 -0.00000000000E+00 -0.17576977712E+04  0.17576977712E+04  0.00000000000E+00 0.  1.
         23    2    1    2    0    0  0.15986246706E+04  0.32449440532E+03  0.13383348453E+04  0.21117636444E+04  0.86649150230E+02 0.  0.
         13    1    3    3    0    0  0.11745403120E+04  0.24599951974E+03  0.93517708116E+03  0.15213864997E+04  0.00000000000E+00 0. -1.
        -13    1    3    3    0    0  0.42408435859E+03  0.78494885588E+02  0.40315776416E+03  0.59037714477E+03  0.00000000000E+00 0.  1.
         22    1    1    2    0    0 -0.15986246706E+04 -0.32449440532E+03 -0.88576642597E+03  0.18562003173E+04  0.00000000000E+00 0.  1.
<mgrwt>
<rscale>  0 0.39420705E+04</rscale>
<asrwt>0</asrwt>
<pdfrwt beam="1">  1        1 0.34004095E+00 0.39420705E+04</pdfrwt>
<pdfrwt beam="2">  1       -1 0.27041504E+00 0.39420705E+04</pdfrwt>
<totfact> 0.86565325E-02</totfact>
</mgrwt>
</event>
<event>
 6    1  0.1762360E-005  0.4958914E+04  0.7818608E-02  0.7834877E-01
          2   -1    0    0  501    0  0.00000000000E+00  0.00000000000E+00  0.36096698158E+04  0.36096698158E+04  0.00000000000E+00 0. -1.
         -2   -1    0    0    0  501 -0.00000000000E+00 -0.00000000000E+00 -0.17031214734E+04  0.17031214734E+04  0.00000000000E+00 0.  1.
         23    2    1    2    0    0  0.47869008551E+02 -0.24776822128E+04  0.10064453477E+04  0.26762431688E+04  0.90247831079E+02 0.  0.
         13    1    3    3    0    0  0.21937875572E+02 -0.49156222686E+03  0.16370308609E+03  0.51856860073E+03  0.00000000000E+00 0.  1.
        -13    1    3    3    0    0  0.25931132980E+02 -0.19861199860E+04  0.84274226159E+03  0.21576745681E+04  0.00000000000E+00 0. -1.
         22    1    1    2    0    0 -0.47869008551E+02  0.24776822128E+04  0.90010299471E+03  0.26365481203E+04  0.00000000000E+00 0. -1.
<mgrwt>
<rscale>  0 0.49589137E+04</rscale>
<asrwt>0</asrwt>
<pdfrwt beam="1">  1        2 0.55533382E+00 0.49589137E+04</pdfrwt>
<pdfrwt beam="2">  1       -2 0.26201869E+00 0.49589137E+04</pdfrwt>
<totfact> 0.26844793E-02</totfact>
</mgrwt>
</event>
<event>
 6    1  0.1762360E-005  0.1227725E+04  0.7818608E-02  0.9088929E-01
          2   -1    0    0  501    0  0.00000000000E+00  0.00000000000E+00  0.29522526623E+04  0.29522526623E+04  0.00000000000E+00 0.  1.
         -2   -1    0    0    0  501 -0.00000000000E+00 -0.00000000000E+00 -0.12764050828E+03  0.12764050828E+03  0.00000000000E+00 0. -1.
         23    2    1    2    0    0 -0.12384154180E+02  0.57834358017E+03  0.19091473941E+04  0.19969756342E+04  0.91832712330E+02 0.  0.
         13    1    3    3    0    0 -0.48769842730E+02  0.28559764928E+03  0.88798608276E+03  0.93405770593E+03  0.00000000000E+00 0.  1.
        -13    1    3    3    0    0  0.36385688550E+02  0.29274593089E+03  0.10211613114E+04  0.10629179283E+04  0.00000000000E+00 0. -1.
         22    1    1    2    0    0  0.12384154180E+02 -0.57834358017E+03  0.91546475988E+03  0.10829175364E+04  0.00000000000E+00 0. -1.
<mgrwt>
<rscale>  0 0.12277248E+04</rscale>
<asrwt>0</asrwt>
<pdfrwt beam="1">  1        2 0.45419267E+00 0.12277248E+04</pdfrwt>
<pdfrwt beam="2">  1       -2 0.19637003E-01 0.12277248E+04</pdfrwt>
<totfact> 0.41065319E+01</totfact>
</mgrwt>
</event>
<event>
 6    1  0.2279222E-005  0.2687156E+04  0.7818608E-02  0.8339185E-01
         -1   -1    0    0    0  501 -0.00000000000E+00  0.00000000000E+00  0.14216420537E+04  0.14216420537E+04  0.00000000000E+00 0.  1.
          1   -1    0    0  501    0  0.00000000000E+00 -0.00000000000E+00 -0.12698000742E+04  0.12698000742E+04  0.00000000000E+00 0. -1.
         23    2    1    2    0    0  0.12034258134E+04 -0.54613179152E+03 -0.15802317814E+03  0.13340512342E+04  0.90706938235E+02 0.  0.
         11    1    3    3    0    0  0.58869387711E+03 -0.25152776844E+03 -0.33197332852E+02  0.64103725488E+03  0.00000000000E+00 0. -1.
        -11    1    3    3    0    0  0.61473193632E+03 -0.29460402308E+03 -0.12482584529E+03  0.69301397937E+03  0.00000000000E+00 0.  1.
         22    1    1    2    0    0 -0.12034258134E+04  0.54613179152E+03  0.30986515764E+03  0.13573908936E+04  0.00000000000E+00 0. -1.
<mgrwt>
<rscale>  0 0.26871555E+04</rscale>
<asrwt>0</asrwt>
<pdfrwt beam="1">  1        1 0.19535386E+00 0.26871555E+04</pdfrwt>
<pdfrwt beam="2">  1       -1 0.21871416E+00 0.26871555E+04</pdfrwt>
<totfact> 0.93307193E-01</totfact>
</mgrwt>
</event>
<event>
 6    1  0.3179501E-005  0.3202302E+04  0.7818608E-02  0.8188209E-01
         -2   -1    0    0    0  501 -0.00000000000E+00  0.00000000000E+00  0.13157193804E+04  0.13157193804E+04  0.00000000000E+00 0.  1.
          2   -1    0    0  501    0  0.00000000000E+00 -0.00000000000E+00 -0.19485044706E+04  0.19485044706E+04  0.00000000000E+00 0. -1.
         23    2    1    2    0    0 -0.70389121245E+03  0.66883609997E+03  0.97902850860E+03  0.13825364048E+04  0.10052622736E+03 0.  0.
         13    1    3    3    0    0 -0.48563800401E+03  0.47018047911E+03  0.74441962137E+03  0.10055220169E+04  0.00000000000E+00 0.  1.
        -13    1    3    3    0    0 -0.21825320843E+03  0.19865562086E+03  0.23460888724E+03  0.37701438787E+03  0.00000000000E+00 0. -1.
         22    1    1    2    0    0  0.70389121245E+03 -0.66883609997E+03 -0.16118135988E+04  0.18816874461E+04  0.00000000000E+00 0. -1.
<mgrwt>
<rscale>  0 0.32023024E+04</rscale>
<asrwt>0</asrwt>
<pdfrwt beam="1">  1        2 0.29976992E+00 0.32023024E+04</pdfrwt>
<pdfrwt beam="2">  1       -2 0.20241837E+00 0.32023024E+04</pdfrwt>
<totfact> 0.77053923E-01</totfact>
</mgrwt>
</event>
<event>
 6    1  0.1762360E-005  0.3720182E+04  0.7818608E-02  0.8063504E-01
         -1   -1    0    0    0  501 -0.00000000000E+00  0.00000000000E+00  0.12027943271E+04  0.12027943271E+04  0.00000000000E+00 0.  1.
          1   -1    0    0  501    0  0.00000000000E+00 -0.00000000000E+00 -0.28765841343E+04  0.28765841343E+04  0.00000000000E+00 0. -1.
         23    2    1    2    0    0  0.17337110492E+03 -0.15554685997E+04  0.26283514687E+03  0.15893872331E+04  0.86771870517E+02 0.  0.
         11    1    3    3    0    0  0.25721716341E+02 -0.45067831976E+03  0.44589518734E+02  0.45360861960E+03  0.00000000000E+00 0. -1.
        -11    1    3    3    0    0  0.14764938858E+03 -0.11047902800E+04  0.21824562814E+03  0.11357786135E+04  0.00000000000E+00 0.  1.
         22    1    1    2    0    0 -0.17337110492E+03  0.15554685997E+04 -0.19366249541E+04  0.24899912284E+04  0.00000000000E+00 0. -1.
<mgrwt>
<rscale>  0 0.37201823E+04</rscale>
<asrwt>0</asrwt>
<pdfrwt beam="1">  1        1 0.44255140E+00 0.37201823E+04</pdfrwt>
<pdfrwt beam="2">  1       -1 0.18504528E+00 0.37201823E+04</pdfrwt>
<totfact> 0.11262257E-01</totfact>
</mgrwt>
</event>
<event>
 6    1  0.1817452E-005  0.2926522E+04  0.7818608E-02  0.8265030E-01
          2   -1    0    0  501    0  0.00000000000E+00  0.00000000000E+00  0.17572518466E+04  0.17572518466E+04  0.00000000000E+00 0. -1.
         -2   -1    0    0    0  501 -0.00000000000E+00 -0.00000000000E+00 -0.12184553403E+04  0.12184553403E+04  0.00000000000E+00 0.  1.
         23    2    1    2    0    0 -0.48346346632E+03  0.81462302562E+03 -0.86243409960E+03  0.12843187608E+04  0.91293516588E+02 0.  0.
         11    1    3    3    0    0 -0.30171093879E+03  0.43546486541E+03 -0.44570311719E+03  0.69232247419E+03  0.00000000000E+00 0. -1.
        -11    1    3    3    0    0 -0.18175252753E+03  0.37915816021E+03 -0.41673098241E+03  0.59199628666E+03  0.00000000000E+00 0.  1.
         22    1    1    2    0    0  0.48346346632E+03 -0.81462302562E+03  0.14012306058E+04  0.16913884261E+04  0.00000000000E+00 0. -1.
<mgrwt>
<rscale>  0 0.29265221E+04</rscale>
<asrwt>0</asrwt>
<pdfrwt beam="1">  1        2 0.27034644E+00 0.29265221E+04</pdfrwt>
<pdfrwt beam="2">  1       -2 0.18745467E+00 0.29265221E+04</pdfrwt>
<totfact> 0.12657187E+00</totfact>
</mgrwt>
</event>
<event>
 6    1  0.1762360E-005  0.2574847E+04  0.7818608E-02  0.8376796E-01
          2   -1    0    0  501    0  0.00000000000E+00  0.00000000000E+00  0.13631290532E+04  0.13631290532E+04  0.00000000000E+00 0. -1.
         -2   -1    0    0    0  501 -0.00000000000E+00 -0.00000000000E+00 -0.12159225444E+04  0.12159225444E+04  0.00000000000E+00 0.  1.
         23    2    1    2    0    0  0.72358346141E+03 -0.86395956051E+02 -0.98668163183E+03  0.12311867668E+04  0.10603266126E+03 0.  0.
         13    1    3    3    0    0  0.64223280603E+03 -0.67467913671E+02 -0.92147065969E+03  0.11252213441E+04  0.00000000000E+00 0. -1.
        -13    1    3    3    0    0  0.81350655386E+02 -0.18928042380E+02 -0.65210972140E+02  0.10596542270E+03  0.00000000000E+00 0.  1.
         22    1    1    2    0    0 -0.72358346141E+03  0.86395956051E+02  0.11338881406E+04  0.13478648308E+04  0.00000000000E+00 0. -1.
<mgrwt>
<rscale>  0 0.25748471E+04</rscale>
<asrwt>0</asrwt>
<pdfrwt beam="1">  1        2 0.20971216E+00 0.25748471E+04</pdfrwt>
<pdfrwt beam="2">  1       -2 0.18706501E+00 0.25748471E+04</pdfrwt>
<totfact> 0.21851166E+00</totfact>
</mgrwt>
</event>
<event>
 6    1  0.1762360E-005  0.2591109E+03  0.7818608E-02  0.1107679E+00
          1   -1    0    0  501    0  0.00000000000E+00  0.00000000000E+00  0.19067870511E+03  0.19067870511E+03  0.00000000000E+00 0. -1.
         -1   -1    0    0    0  501 -0.00000000000E+00 -0.00000000000E+00 -0.88025650578E+02  0.88025650578E+02  0.00000000000E+00 0.  1.
         23    2    1    2    0    0  0.44057926275E+02  0.44070055257E+02  0.15959533865E+03  0.19429052769E+03  0.91623503487E+02 0.  0.
         13    1    3    3    0    0  0.12773642774E+02  0.17066413632E+02 -0.71622252881E+01  0.22488350208E+02  0.00000000000E+00 0.  1.
        -13    1    3    3    0    0  0.31284283501E+02  0.27003641625E+02  0.16675756394E+03  0.17180217748E+03  0.00000000000E+00 0. -1.
         22    1    1    2    0    0 -0.44057926275E+02 -0.44070055257E+02 -0.56942284117E+02  0.84413828005E+02  0.00000000000E+00 0.  1.
<mgrwt>
<rscale>  0 0.25911092E+03</rscale>
<asrwt>0</asrwt>
<pdfrwt beam="1">  1        1 0.29335185E-01 0.25911092E+03</pdfrwt>
<pdfrwt beam="2">  1       -1 0.13542408E-01 0.25911092E+03</pdfrwt>
<totfact> 0.58341952E+03</totfact>
</mgrwt>
</event>
<event>
 6    1  0.1762360E-005  0.1984687E+04  0.7818608E-02  0.8613814E-01
         -1   -1    0    0    0  501 -0.00000000000E+00  0.00000000000E+00  0.60057272541E+03  0.60057272541E+03  0.00000000000E+00 0.  1.
          1   -1    0    0  501    0  0.00000000000E+00 -0.00000000000E+00 -0.16396778252E+04  0.16396778252E+04  0.00000000000E+00 0. -1.
         23    2    1    2    0    0 -0.52703487188E+03  0.31464040136E+03 -0.13978571667E+04  0.15292882564E+04  0.89182814552E+02 0.  0.
         11    1    3    3    0    0 -0.40484643135E+03  0.21141906486E+03 -0.11034339752E+04  0.11942215839E+04  0.00000000000E+00 0.  1.
        -11    1    3    3    0    0 -0.12218844053E+03  0.10322133651E+03 -0.29442319150E+03  0.33506667247E+03  0.00000000000E+00 0. -1.
         22    1    1    2    0    0  0.52703487188E+03 -0.31464040136E+03  0.35875206686E+03  0.71096229423E+03  0.00000000000E+00 0.  1.
<mgrwt>
<rscale>  0 0.19846872E+04</rscale>
<asrwt>0</asrwt>
<pdfrwt beam="1">  1        1 0.25225813E+00 0.19846872E+04</pdfrwt>
<pdfrwt beam="2">  1       -1 0.92395804E-01 0.19846872E+04</pdfrwt>
<totfact> 0.55469210E+00</totfact>
</mgrwt>
</event>
<event>
 6    1  0.1762360E-005  0.2352948E+04  0.7818608E-02  0.8457332E-01
         -2   -1    0    0    0  501 -0.00000000000E+00  0.00000000000E+00  0.91404288288E+03  0.91404288288E+03  0.00000000000E+00 0.  1.
          2   -1    0    0  501    0  0.00000000000E+00 -0.00000000000E+00 -0.15142524066E+04  0.15142524066E+04  0.00000000000E+00 0. -1.
         23    2    1    2    0    0  0.97624218765E+03  0.65124319109E+03 -0.24154594399E+03  0.12011823907E+04  0.85604846588E+02 0.  0.
         13    1    3    3    0    0  0.26719479648E+03  0.20248060674E+03 -0.10284272646E+03  0.35066805066E+03  0.00000000000E+00 0. -1.
        -13    1    3    3    0    0  0.70904739117E+03  0.44876258435E+03 -0.13870321754E+03  0.85051434003E+03  0.00000000000E+00 0.  1.
         22    1    1    2    0    0 -0.97624218765E+03 -0.65124319109E+03 -0.35866357969E+03  0.12271128988E+04  0.00000000000E+00 0. -1.
<mgrwt>
<rscale>  0 0.23529485E+04</rscale>
<asrwt>0</asrwt>
<pdfrwt beam="1">  1        2 0.23296190E+00 0.23529485E+04</pdfrwt>
<pdfrwt beam="2">  1       -2 0.14062198E+00 0.23529485E+04</pdfrwt>
<totfact> 0.39942962E+00</totfact>
</mgrwt>
</event>
<event>
 6    1  0.1762360E-005  0.1407136E+04  0.7818608E-02  0.8948670E-01
         -2   -1    0    0    0  501 -0.00000000000E+00  0.00000000000E+00  0.12315220974E+04  0.12315220974E+04  0.00000000000E+00 0.  1.
          2   -1    0    0  501    0  0.00000000000E+00 -0.00000000000E+00 -0.40194782374E+03  0.40194782374E+03  0.00000000000E+00 0. -1.
         23    2    1    2    0    0 -0.20836489627E+03 -0.27074039375E+02  0.11924320349E+04  0.12141672996E+04  0.90327957455E+02 0.  0.
         11    1    3    3    0    0 -0.16844602387E+03  0.13989937622E+02  0.80771642929E+03  0.82521246443E+03  0.00000000000E+00 0.  1.
        -11    1    3    3    0    0 -0.39918872400E+02 -0.41063976997E+02  0.38471560562E+03  0.38895483515E+03  0.00000000000E+00 0. -1.
         22    1    1    2    0    0  0.20836489627E+03  0.27074039375E+02 -0.36285776121E+03  0.41930262159E+03  0.00000000000E+00 0. -1.
<mgrwt>
<rscale>  0 0.14071356E+04</rscale>
<asrwt>0</asrwt>
<pdfrwt beam="1">  1        2 0.61838127E-01 0.14071356E+04</pdfrwt>
<pdfrwt beam="2">  1       -2 0.18946494E+00 0.14071356E+04</pdfrwt>
<totfact> 0.12010378E+01</totfact>
</mgrwt>
</event>
<event>
 6    1  0.1762360E-005  0.1462767E+04  0.7818608E-02  0.8909597E-01
          2   -1    0    0  501    0  0.00000000000E+00  0.00000000000E+00  0.13894604297E+04  0.13894604297E+04  0.00000000000E+00 0.  1.
         -2   -1    0    0    0  501 -0.00000000000E+00 -0.00000000000E+00 -0.38498522760E+03  0.38498522760E+03  0.00000000000E+00 0. -1.
         23    2    1    2    0    0  0.70890926931E+03 -0.16774440934E+03  0.50001315151E+03  0.88834605825E+03  0.91951229124E+02 0.  0.
         13    1    3    3    0    0  0.31231753120E+03 -0.37795425246E+02  0.18012396109E+03  0.36251258713E+03  0.00000000000E+00 0.  1.
        -13    1    3    3    0    0  0.39659173811E+03 -0.12994898409E+03  0.31988919042E+03  0.52583347112E+03  0.00000000000E+00 0. -1.
         22    1    1    2    0    0 -0.70890926931E+03  0.16774440934E+03  0.50446205061E+03  0.88609959908E+03  0.00000000000E+00 0.  1.
<mgrwt>
<rscale>  0 0.14627669E+04</rscale>
<asrwt>0</asrwt>
<pdfrwt beam="1">  1        2 0.21376314E+00 0.14627669E+04</pdfrwt>
<pdfrwt beam="2">  1       -2 0.59228497E-01 0.14627669E+04</pdfrwt>
<totfact> 0.37837575E+01</totfact>
</mgrwt>
</event>
<event>
 6    1  0.1762360E-005  0.1378721E+04  0.7818608E-02  0.8969367E-01
          1   -1    0    0  501    0  0.00000000000E+00  0.00000000000E+00  0.11870933574E+04  0.11870933574E+04  0.00000000000E+00 0. -1.
         -1   -1    0    0    0  501 -0.00000000000E+00 -0.00000000000E+00 -0.40032063969E+03  0.40032063969E+03  0.00000000000E+00 0.  1.
         23    2    1    2    0    0 -0.53655371584E+03  0.25248780032E+03 -0.31398771273E+01  0.59968838398E+03  0.89310244462E+02 0.  0.
         11    1    3    3    0    0 -0.22309796883E+03  0.14782191778E+03  0.20260100668E+02  0.26839242678E+03  0.00000000000E+00 0. -1.
        -11    1    3    3    0    0 -0.31345574701E+03  0.10466588254E+03 -0.23399977795E+02  0.33129595721E+03  0.00000000000E+00 0.  1.
         22    1    1    2    0    0  0.53655371584E+03 -0.25248780032E+03  0.78991259481E+03  0.98772561308E+03  0.00000000000E+00 0. -1.
<mgrwt>
<rscale>  0 0.13787211E+04</rscale>
<asrwt>0</asrwt>
<pdfrwt beam="1">  1        1 0.18262975E+00 0.13787211E+04</pdfrwt>
<pdfrwt beam="2">  1       -1 0.61587791E-01 0.13787211E+04</pdfrwt>
<totfact> 0.28521183E+01</totfact>
</mgrwt>
</event>
<event>
 6    1  0.1762360E-005  0.3156787E+04  0.7818608E-02  0.8200324E-01
         -1   -1    0    0    0  501 -0.00000000000E+00  0.00000000000E+00  0.84437728941E+03  0.84437728941E+03  0.00000000000E+00 0.  1.
          1   -1    0    0  501    0  0.00000000000E+00 -0.00000000000E+00 -0.29504900323E+04  0.29504900323E+04  0.00000000000E+00 0. -1.
         23    2    1    2    0    0  0.11410040270E+04 -0.53782454762E+03  0.83944271830E+02  0.12675178877E+04  0.91703442521E+02 0.  0.
         13    1    3    3    0    0  0.26805940170E+03 -0.13578927737E+03  0.58343872367E+02  0.30610223477E+03  0.00000000000E+00 0.  1.
        -13    1    3    3    0    0  0.87294462528E+03 -0.40203527025E+03  0.25600399463E+02  0.96141565298E+03  0.00000000000E+00 0. -1.
         22    1    1    2    0    0 -0.11410040270E+04  0.53782454762E+03 -0.21900570147E+04  0.25273494340E+04  0.00000000000E+00 0. -1.
<mgrwt>
<rscale>  0 0.31567875E+04</rscale>
<asrwt>0</asrwt>
<pdfrwt beam="1">  1        1 0.45392154E+00 0.31567875E+04</pdfrwt>
<pdfrwt beam="2">  1       -1 0.12990420E+00 0.31567875E+04</pdfrwt>
<totfact> 0.27689269E-01</totfact>
</mgrwt>
</event>
<event>
 6    1  0.1762360E-005  0.1471148E+04  0.7818608E-02  0.8903869E-01
          2   -1    0    0  501    0  0.00000000000E+00  0.00000000000E+00  0.60265538395E+03  0.60265538395E+03  0.00000000000E+00 0. -1.
         -2   -1    0    0    0  501 -0.00000000000E+00 -0.00000000000E+00 -0.89780806520E+03  0.89780806520E+03  0.00000000000E+00 0.  1.
         23    2    1    2    0    0  0.15009946714E+03  0.26496384520E+03 -0.82785972313E+03  0.88685731997E+03  0.91806837966E+02 0.  0.
         13    1    3    3    0    0  0.76922932974E+02  0.14347515944E+03 -0.56734365955E+03  0.59023816127E+03  0.00000000000E+00 0.  1.
        -13    1    3    3    0    0  0.73176534165E+02  0.12148868575E+03 -0.26051606359E+03  0.29661915869E+03  0.00000000000E+00 0. -1.
         22    1    1    2    0    0 -0.15009946714E+03 -0.26496384520E+03  0.53270704188E+03  0.61360612918E+03  0.00000000000E+00 0. -1.
<mgrwt>
<rscale>  0 0.14711477E+04</rscale>
<asrwt>0</asrwt>
<pdfrwt beam="1">  1        2 0.92716213E-01 0.14711477E+04</pdfrwt>
<pdfrwt beam="2">  1       -2 0.13812432E+00 0.14711477E+04</pdfrwt>
<totfact> 0.17757124E+01</totfact>
</mgrwt>
</event>
<event>
 6    1  0.1762360E-005  0.1661606E+04  0.7818608E-02  0.8783570E-01
          1   -1    0    0  501    0  0.00000000000E+00  0.00000000000E+00  0.52679779488E+03  0.52679779488E+03  0.00000000000E+00 0. -1.
         -1   -1    0    0    0  501 -0.00000000000E+00 -0.00000000000E+00 -0.13102447148E+04  0.13102447148E+04  0.00000000000E+00 0.  1.
         23    2    1    2    0    0 -0.12016943984E+02  0.16639183091E+03 -0.12898537491E+04  0.13038647485E+04  0.92249336537E+02 0.  0.
         11    1    3    3    0    0  0.28267418254E+02  0.26062111021E+02 -0.42889789453E+03  0.43061779399E+03  0.00000000000E+00 0.  1.
        -11    1    3    3    0    0 -0.40284362238E+02  0.14032971989E+03 -0.86095585456E+03  0.87324695455E+03  0.00000000000E+00 0. -1.
         22    1    1    2    0    0  0.12016943984E+02 -0.16639183091E+03  0.50640682918E+03  0.53317776114E+03  0.00000000000E+00 0. -1.
<mgrwt>
<rscale>  0 0.16616065E+04</rscale>
<asrwt>0</asrwt>
<pdfrwt beam="1">  1        1 0.81045816E-01 0.16616065E+04</pdfrwt>
<pdfrwt beam="2">  1       -1 0.20157611E+00 0.16616065E+04</pdfrwt>
<totfact> 0.57746312E+00</totfact>
</mgrwt>
</event>
<event>
 6    1  0.1762360E-005  0.2621901E+04  0.7818608E-02  0.8360800E-01
         -2   -1    0    0    0  501 -0.00000000000E+00  0.00000000000E+00  0.96065107527E+03  0.96065107527E+03  0.00000000000E+00 0.  1.
          2   -1    0    0  501    0  0.00000000000E+00 -0.00000000000E+00 -0.17889855184E+04  0.17889855184E+04  0.00000000000E+00 0. -1.
         23    2    1    2    0    0  0.31585042397E+03  0.11555233620E+04  0.13905242648E+03  0.12098856119E+04  0.97426310856E+02 0.  0.
         11    1    3    3    0    0  0.14207985079E+03  0.68050742564E+03  0.10338667387E+03  0.70282703753E+03  0.00000000000E+00 0. -1.
        -11    1    3    3    0    0  0.17377057318E+03  0.47501593636E+03  0.35665752611E+02  0.50705857434E+03  0.00000000000E+00 0.  1.
         22    1    1    2    0    0 -0.31585042397E+03 -0.11555233620E+04 -0.96738686960E+03  0.15397509818E+04  0.00000000000E+00 0. -1.
<mgrwt>
<rscale>  0 0.26219007E+04</rscale>
<asrwt>0</asrwt>
<pdfrwt beam="1">  1        2 0.27522854E+00 0.26219007E+04</pdfrwt>
<pdfrwt beam="2">  1       -2 0.14779247E+00 0.26219007E+04</pdfrwt>
<totfact> 0.24081724E+00</totfact>
</mgrwt>
</event>
<event>
 6    1  0.1762360E-005  0.1620040E+04  0.7818608E-02  0.8808330E-01
          1   -1    0    0  501    0  0.00000000000E+00  0.00000000000E+00  0.89477237747E+03  0.89477237747E+03  0.00000000000E+00 0. -1.
         -1   -1    0    0    0  501 -0.00000000000E+00 -0.00000000000E+00 -0.73329521628E+03  0.73329521628E+03  0.00000000000E+00 0.  1.
         23    2    1    2    0    0  0.74218681208E+02 -0.15314188453E+03  0.87416999904E+03  0.89533849610E+03  0.92179097113E+02 0.  0.
         11    1    3    3    0    0  0.51539008234E+02 -0.64414333744E+02  0.61407771816E+03  0.61959415725E+03  0.00000000000E+00 0.  1.
        -11    1    3    3    0    0  0.22679672973E+02 -0.88727550782E+02  0.26009228088E+03  0.27574433884E+03  0.00000000000E+00 0. -1.
         22    1    1    2    0    0 -0.74218681208E+02  0.15314188453E+03 -0.71269283784E+03  0.73272909765E+03  0.00000000000E+00 0.  1.
<mgrwt>
<rscale>  0 0.16200399E+04</rscale>
<asrwt>0</asrwt>
<pdfrwt beam="1">  1        1 0.13765729E+00 0.16200399E+04</pdfrwt>
<pdfrwt beam="2">  1       -1 0.11281465E+00 0.16200399E+04</pdfrwt>
<totfact> 0.12655682E+01</totfact>
</mgrwt>
</event>
<event>
 6    1  0.1762360E-005  0.1446183E+04  0.7818608E-02  0.8921051E-01
         -1   -1    0    0    0  501 -0.00000000000E+00  0.00000000000E+00  0.32618115600E+03  0.32618115600E+03  0.00000000000E+00 0.  1.
          1   -1    0    0  501    0  0.00000000000E+00 -0.00000000000E+00 -0.16029784023E+04  0.16029784023E+04  0.00000000000E+00 0. -1.
         23    2    1    2    0    0 -0.39639455720E+03  0.60099875189E+03 -0.64578526003E+03  0.97181726238E+03  0.95194772216E+02 0.  0.
         11    1    3    3    0    0 -0.36281302897E+03  0.58058844541E+03 -0.62660199612E+03  0.92808744118E+03  0.00000000000E+00 0. -1.
        -11    1    3    3    0    0 -0.33581528228E+02  0.20410306479E+02 -0.19183263906E+02  0.43729821207E+02  0.00000000000E+00 0.  1.
         22    1    1    2    0    0  0.39639455720E+03 -0.60099875189E+03 -0.63101198630E+03  0.95734229594E+03  0.00000000000E+00 0. -1.
<mgrwt>
<rscale>  0 0.14461830E+04</rscale>
<asrwt>0</asrwt>
<pdfrwt beam="1">  1        1 0.24661206E+00 0.14461830E+04</pdfrwt>
<pdfrwt beam="2">  1       -1 0.50181716E-01 0.14461830E+04</pdfrwt>
<totfact> 0.21508420E+01</totfact>
</mgrwt>
</event>
<event>
 6    1  0.1762360E-005  0.2534751E+04  0.7818608E-02  0.8390709E-01
          2   -1    0    0  501    0  0.00000000000E+00  0.00000000000E+00  0.17100990736E+04  0.17100990736E+04  0.00000000000E+00 0. -1.
         -2   -1    0    0    0  501 -0.00000000000E+00 -0.00000000000E+00 -0.93926760154E+03  0.93926760154E+03  0.00000000000E+00 0.  1.
         23    2    1    2    0    0  0.13464152765E+03  0.11365384221E+04 -0.17959173073E+03  0.11616999819E+04  0.86288656758E+02 0.  0.
         13    1    3    3    0    0  0.50590982440E+02  0.72054827274E+03 -0.13667700649E+03  0.73513935071E+03  0.00000000000E+00 0.  1.
        -13    1    3    3    0    0  0.84050545207E+02  0.41599014936E+03 -0.42914724237E+02  0.42656063118E+03  0.00000000000E+00 0. -1.
         22    1    1    2    0    0 -0.13464152765E+03 -0.11365384221E+04  0.95042320283E+03  0.14876666933E+04  0.00000000000E+00 0. -1.
<mgrwt>
<rscale>  0 0.25347510E+04</rscale>
<asrwt>0</asrwt>
<pdfrwt beam="1">  1        2 0.26309216E+00 0.25347510E+04</pdfrwt>
<pdfrwt beam="2">  1       -2 0.14450271E+00 0.25347510E+04</pdfrwt>
<totfact> 0.28471199E+00</totfact>
</mgrwt>
</event>
<event>
 6    1  0.1762360E-005  0.2980419E+04  0.7818608E-02  0.8249345E-01
          1   -1    0    0  501    0  0.00000000000E+00  0.00000000000E+00  0.20904569992E+04  0.20904569992E+04  0.00000000000E+00 0. -1.
         -1   -1    0    0    0  501 -0.00000000000E+00 -0.00000000000E+00 -0.10623151840E+04  0.10623151840E+04  0.00000000000E+00 0.  1.
         23    2    1    2    0    0 -0.73449959537E+03 -0.95960423797E+03  0.14343924100E+04  0.18778723853E+04  0.92699301056E+02 0.  0.
         13    1    3    3    0    0 -0.48371718712E+03 -0.55786077413E+03  0.86757537027E+03  0.11392444793E+04  0.00000000000E+00 0. -1.
        -13    1    3    3    0    0 -0.25078240825E+03 -0.40174346385E+03  0.56681703970E+03  0.73862790600E+03  0.00000000000E+00 0.  1.
         22    1    1    2    0    0  0.73449959537E+03  0.95960423797E+03 -0.40625059473E+03  0.12748997980E+04  0.00000000000E+00 0.  1.
<mgrwt>
<rscale>  0 0.29804189E+04</rscale>
<asrwt>0</asrwt>
<pdfrwt beam="1">  1        1 0.32160877E+00 0.29804189E+04</pdfrwt>
<pdfrwt beam="2">  1       -1 0.16343311E+00 0.29804189E+04</pdfrwt>
<totfact> 0.60709618E-01</totfact>
</mgrwt>
</event>
<event>
 6    1  0.1762360E-005  0.2096593E+04  0.7818608E-02  0.8562746E-01
          1   -1    0    0  501    0  0.00000000000E+00  0.00000000000E+00  0.27471796342E+04  0.27471796342E+04  0.00000000000E+00 0. -1.
         -1   -1    0    0    0  501 -0.00000000000E+00 -0.00000000000E+00 -0.40001963899E+03  0.40001963899E+03  0.00000000000E+00 0.  1.
         23    2    1    2    0    0  0.58890869275E+03 -0.60565198239E+03  0.21028499906E+04  0.22678158810E+04  0.85924472370E+02 0.  0.
         11    1    3    3    0    0  0.14418530195E+03 -0.18168676485E+03  0.49800424729E+03  0.54937028691E+03  0.00000000000E+00 0.  1.
        -11    1    3    3    0    0  0.44472339079E+03 -0.42396521754E+03  0.16048457433E+04  0.17184455941E+04  0.00000000000E+00 0. -1.
         22    1    1    2    0    0 -0.58890869275E+03  0.60565198239E+03  0.24431000466E+03  0.87938339224E+03  0.00000000000E+00 0.  1.
<mgrwt>
<rscale>  0 0.20965932E+04</rscale>
<asrwt>0</asrwt>
<pdfrwt beam="1">  1        1 0.42264301E+00 0.20965932E+04</pdfrwt>
<pdfrwt beam="2">  1       -1 0.61541484E-01 0.20965932E+04</pdfrwt>
<totfact> 0.22403533E+00</totfact>
</mgrwt>
</event>
<event>
 6    1  0.1762360E-005  0.1597910E+04  0.7818608E-02  0.8821833E-01
          2   -1    0    0  501    0  0.00000000000E+00  0.00000000000E+00  0.18729079629E+04  0.18729079629E+04  0.00000000000E+00 0. -1.
         -2   -1    0    0    0  501 -0.00000000000E+00 -0.00000000000E+00 -0.34082256348E+03  0.34082256348E+03  0.00000000000E+00 0.  1.
         23    2    1    2    0    0  0.32685216865E+03 -0.29370792523E+03  0.16886277877E+04  0.17472520115E+04  0.91263906048E+02 0.  0.
         13    1    3    3    0    0  0.97895170397E+02 -0.11103868513E+03  0.73079132565E+03  0.74563329836E+03  0.00000000000E+00 0.  1.
        -13    1    3    3    0    0  0.22895699825E+03 -0.18266924010E+03  0.95783646209E+03  0.10016187131E+04  0.00000000000E+00 0. -1.
         22    1    1    2    0    0 -0.32685216865E+03  0.29370792523E+03 -0.15654238836E+03  0.46647851488E+03  0.00000000000E+00 0.  1.
<mgrwt>
<rscale>  0 0.15979103E+04</rscale>
<asrwt>0</asrwt>
<pdfrwt beam="1">  1        2 0.28813968E+00 0.15979103E+04</pdfrwt>
<pdfrwt beam="2">  1       -2 0.52434242E-01 0.15979103E+04</pdfrwt>
<totfact> 0.25879031E+01</totfact>
</mgrwt>
</event>
<event>
 6    1  0.1762360E-005  0.1813745E+04  0.7818608E-02  0.8699024E-01
         -2   -1    0    0    0  501 -0.00000000000E+00  0.00000000000E+00  0.40722566012E+03  0.40722566012E+03  0.00000000000E+00 0.  1.
          2   -1    0    0  501    0  0.00000000000E+00 -0.00000000000E+00 -0.20195621108E+04  0.20195621108E+04  0.00000000000E+00 0. -1.
         23    2    1    2    0    0  0.21193146279E+03  0.47542907402E+03 -0.17987920282E+04  0.18738741867E+04  0.69310586469E+02 0.  0.
         11    1    3    3    0    0  0.37374069413E+02  0.12693845217E+03 -0.54862293809E+03  0.56435566791E+03  0.00000000000E+00 0. -1.
        -11    1    3    3    0    0  0.17455739338E+03  0.34849062185E+03 -0.12501690901E+04  0.13095185187E+04  0.00000000000E+00 0.  1.
         22    1    1    2    0    0 -0.21193146279E+03 -0.47542907402E+03  0.18645557746E+03  0.55291358431E+03  0.00000000000E+00 0.  1.
<mgrwt>
<rscale>  0 0.18137448E+04</rscale>
<asrwt>0</asrwt>
<pdfrwt beam="1">  1        2 0.31070187E+00 0.18137448E+04</pdfrwt>
<pdfrwt beam="2">  1       -2 0.62650101E-01 0.18137448E+04</pdfrwt>
<totfact> 0.14516600E+01</totfact>
</mgrwt>
</event>
<event>
 6    1  0.1762360E-005  0.1403859E+04  0.7818608E-02  0.8951030E-01
         -2   -1    0    0    0  501 -0.00000000000E+00  0.00000000000E+00  0.18641475447E+03  0.18641475447E+03  0.00000000000E+00 0.  1.
          2   -1    0    0  501    0  0.00000000000E+00 -0.00000000000E+00 -0.26430589752E+04  0.26430589752E+04  0.00000000000E+00 0. -1.
         23    2    1    2    0    0 -0.23582592335E+03  0.58189662900E+03 -0.61510549317E+03  0.88384210008E+03  0.92760644613E+02 0.  0.
         13    1    3    3    0    0 -0.24448937172E+03  0.56287619171E+03 -0.59757067359E+03  0.85656019637E+03  0.00000000000E+00 0. -1.
        -13    1    3    3    0    0  0.86634483701E+01  0.19020437288E+02 -0.17534819578E+02  0.27281903708E+02  0.00000000000E+00 0.  1.
         22    1    1    2    0    0  0.23582592335E+03 -0.58189662900E+03 -0.18415387275E+04  0.19456316295E+04  0.00000000000E+00 0. -1.
<mgrwt>
<rscale>  0 0.14038592E+04</rscale>
<asrwt>0</asrwt>
<pdfrwt beam="1">  1        2 0.40662444E+00 0.14038592E+04</pdfrwt>
<pdfrwt beam="2">  1       -2 0.28679195E-01 0.14038592E+04</pdfrwt>
<totfact> 0.31300208E+01</totfact>
</mgrwt>
</event>
<event>
 6    1  0.1762360E-005  0.1267481E+04  0.7818608E-02  0.9055758E-01
          2   -1    0    0  501    0  0.00000000000E+00  0.00000000000E+00  0.12587889815E+04  0.12587889815E+04  0.00000000000E+00 0. -1.
         -2   -1    0    0    0  501 -0.00000000000E+00 -0.00000000000E+00 -0.31905812905E+03  0.31905812905E+03  0.00000000000E+00 0.  1.
         23    2    1    2    0    0  0.27593765488E+03 -0.38735445898E+03 -0.42652565193E+02  0.48639750314E+03  0.92618699380E+02 0.  0.
         13    1    3    3    0    0  0.12869101929E+03 -0.25345804986E+03 -0.42213122053E+02  0.28737485826E+03  0.00000000000E+00 0.  1.
        -13    1    3    3    0    0  0.14724663559E+03 -0.13389640912E+03 -0.43944314043E+00  0.19902264489E+03  0.00000000000E+00 0. -1.
         22    1    1    2    0    0 -0.27593765488E+03  0.38735445898E+03  0.98238341765E+03  0.10914496074E+04  0.00000000000E+00 0. -1.
<mgrwt>
<rscale>  0 0.12674807E+04</rscale>
<asrwt>0</asrwt>
<pdfrwt beam="1">  1        2 0.19365984E+00 0.12674807E+04</pdfrwt>
<pdfrwt beam="2">  1       -2 0.49085867E-01 0.12674807E+04</pdfrwt>
<totfact> 0.67443842E+01</totfact>
</mgrwt>
</event>
<event>
 6    1  0.1762360E-005  0.3276972E+04  0.7818608E-02  0.8168780E-01
          2   -1    0    0  501    0  0.00000000000E+00  0.00000000000E+00  0.29743843190E+04  0.29743843190E+04  0.00000000000E+00 0. -1.
         -2   -1    0    0    0  501 -0.00000000000E+00 -0.00000000000E+00 -0.90258579791E+03  0.90258579791E+03  0.00000000000E+00 0.  1.
         23    2    1    2    0    0  0.15519825033E+04 -0.13706020703E+01  0.41958902473E+03  0.16101556584E+04  0.88852267909E+02 0.  0.
         13    1    3    3    0    0  0.10006928322E+04  0.32291882765E+02  0.24277429697E+03  0.10302272902E+04  0.00000000000E+00 0. -1.
        -13    1    3    3    0    0  0.55128967113E+03 -0.33662484835E+02  0.17681472776E+03  0.57992836828E+03  0.00000000000E+00 0.  1.
         22    1    1    2    0    0 -0.15519825033E+04  0.13706020703E+01  0.16522094963E+04  0.22668144584E+04  0.00000000000E+00 0. -1.
<mgrwt>
<rscale>  0 0.32769724E+04</rscale>
<asrwt>0</asrwt>
<pdfrwt beam="1">  1        2 0.45759758E+00 0.32769724E+04</pdfrwt>
<pdfrwt beam="2">  1       -2 0.13885936E+00 0.32769724E+04</pdfrwt>
<totfact> 0.55423546E-01</totfact>
</mgrwt>
</event>
<event>
 6    1  0.1762360E-005  0.2509125E+04  0.7818608E-02  0.8399742E-01
         -1   -1    0    0    0  501 -0.00000000000E+00  0.00000000000E+00  0.13629156099E+04  0.13629156099E+04  0.00000000000E+00 0.  1.
          1   -1    0    0  501    0  0.00000000000E+00 -0.00000000000E+00 -0.11548239520E+04  0.11548239520E+04  0.00000000000E+00 0. -1.
         23    2    1    2    0    0  0.10907896002E+04  0.43954019032E+03 -0.32956129533E+03  0.12246470559E+04  0.90178895810E+02 0.  0.
         11    1    3    3    0    0  0.73834290162E+03  0.25594550854E+03 -0.19955897988E+03  0.80652472384E+03  0.00000000000E+00 0.  1.
        -11    1    3    3    0    0  0.35244669861E+03  0.18359468178E+03 -0.13000231544E+03  0.41812233205E+03  0.00000000000E+00 0. -1.
         22    1    1    2    0    0 -0.10907896002E+04 -0.43954019032E+03  0.53765295328E+03  0.12930925060E+04  0.00000000000E+00 0.  1.
<mgrwt>
<rscale>  0 0.25091254E+04</rscale>
<asrwt>0</asrwt>
<pdfrwt beam="1">  1        1 0.17766522E+00 0.25091254E+04</pdfrwt>
<pdfrwt beam="2">  1       -1 0.20967933E+00 0.25091254E+04</pdfrwt>
<totfact> 0.13232404E+00</totfact>
</mgrwt>
</event>
<event>
 6    1  0.1762360E-005  0.3316488E+04  0.7818608E-02  0.8158713E-01
          2   -1    0    0  501    0  0.00000000000E+00  0.00000000000E+00  0.31918708297E+04  0.31918708297E+04  0.00000000000E+00 0. -1.
         -2   -1    0    0    0  501 -0.00000000000E+00 -0.00000000000E+00 -0.86149285791E+03  0.86149285791E+03  0.00000000000E+00 0.  1.
         23    2    1    2    0    0  0.15373517884E+04  0.59977577947E+03  0.13486257213E+04  0.21332024995E+04  0.92628617940E+02 0.  0.
         11    1    3    3    0    0  0.91776520048E+03  0.35298901273E+03  0.86154333069E+03  0.13073450642E+04  0.00000000000E+00 0. -1.
        -11    1    3    3    0    0  0.61958658791E+03  0.24678676673E+03  0.48708239056E+03  0.82585743525E+03  0.00000000000E+00 0.  1.
         22    1    1    2    0    0 -0.15373517884E+04 -0.59977577947E+03  0.98175225052E+03  0.19201611881E+04  0.00000000000E+00 0.  1.
<mgrwt>
<rscale>  0 0.33164885E+04</rscale>
<asrwt>0</asrwt>
<pdfrwt beam="1">  1        2 0.49105704E+00 0.33164885E+04</pdfrwt>
<pdfrwt beam="2">  1       -2 0.13253736E+00 0.33164885E+04</pdfrwt>
<totfact> 0.45228444E-01</totfact>
</mgrwt>
</event>
<event>
 6    1  0.1762360E-005  0.1012346E+04  0.7818608E-02  0.9295107E-01
          1   -1    0    0  501    0  0.00000000000E+00  0.00000000000E+00  0.41243679414E+03  0.41243679414E+03  0.00000000000E+00 0. -1.
         -1   -1    0    0    0  501 -0.00000000000E+00 -0.00000000000E+00 -0.62121282246E+03  0.62121282246E+03  0.00000000000E+00 0.  1.
         23    2    1    2    0    0 -0.48124634734E+03 -0.84601216972E+02 -0.22255054918E+03  0.54482945522E+03  0.92493111066E+02 0.  0.
         11    1    3    3    0    0 -0.31708414214E+03 -0.82306382490E+02 -0.18570514767E+03  0.37656751807E+03  0.00000000000E+00 0.  1.
        -11    1    3    3    0    0 -0.16416220520E+03 -0.22948344828E+01 -0.36845401515E+02  0.16826193715E+03  0.00000000000E+00 0. -1.
         22    1    1    2    0    0  0.48124634734E+03  0.84601216972E+02  0.13774520861E+02  0.48882016138E+03  0.00000000000E+00 0.  1.
<mgrwt>
<rscale>  0 0.10123458E+04</rscale>
<asrwt>0</asrwt>
<pdfrwt beam="1">  1        1 0.63451815E-01 0.10123458E+04</pdfrwt>
<pdfrwt beam="2">  1       -1 0.95571203E-01 0.10123458E+04</pdfrwt>
<totfact> 0.60990446E+01</totfact>
</mgrwt>
</event>
<event>
 6    1  0.1762360E-005  0.1281873E+04  0.7818608E-02  0.9044065E-01
          3   -1    0    0  501    0  0.00000000000E+00  0.00000000000E+00  0.65248826640E+03  0.65248826640E+03  0.00000000000E+00 0. -1.
         -3   -1    0    0    0  501 -0.00000000000E+00 -0.00000000000E+00 -0.62958945435E+03  0.62958945435E+03  0.00000000000E+00 0.  1.
         23    2    1    2    0    0  0.61858622013E+02  0.20999900920E+03 -0.58750877144E+03  0.63359989463E+03  0.91412236486E+02 0.  0.
         13    1    3    3    0    0  0.62197334072E+01  0.15329238054E+03 -0.44121176744E+03  0.46712424765E+03  0.00000000000E+00 0. -1.
        -13    1    3    3    0    0  0.55638888606E+02  0.56706628665E+02 -0.14629700399E+03  0.16647564698E+03  0.00000000000E+00 0.  1.
         22    1    1    2    0    0 -0.61858622013E+02 -0.20999900920E+03  0.61040758349E+03  0.64847782612E+03  0.00000000000E+00 0. -1.
<mgrwt>
<rscale>  0 0.12818732E+04</rscale>
<asrwt>0</asrwt>
<pdfrwt beam="1">  1        3 0.10038281E+00 0.12818732E+04</pdfrwt>
<pdfrwt beam="2">  1       -3 0.96859915E-01 0.12818732E+04</pdfrwt>
<totfact> 0.20996341E+00</totfact>
</mgrwt>
</event>
<event>
 6    1  0.1762360E-005  0.1455836E+04  0.7818608E-02  0.8914365E-01
         -1   -1    0    0    0  501 -0.00000000000E+00  0.00000000000E+00  0.10330104447E+04  0.10330104447E+04  0.00000000000E+00 0.  1.
          1   -1    0    0  501    0  0.00000000000E+00 -0.00000000000E+00 -0.51293226394E+03  0.51293226394E+03  0.00000000000E+00 0. -1.
         23    2    1    2    0    0 -0.67952723647E+03 -0.32436181922E+02  0.52801810028E+03  0.86559543462E+03  0.87424088224E+02 0.  0.
         13    1    3    3    0    0 -0.50543213767E+03  0.11126921299E+02  0.37010535872E+03  0.62654882549E+03  0.00000000000E+00 0.  1.
        -13    1    3    3    0    0 -0.17409509880E+03 -0.43563103220E+02  0.15791274156E+03  0.23904660913E+03  0.00000000000E+00 0. -1.
         22    1    1    2    0    0  0.67952723647E+03  0.32436181922E+02 -0.79399194862E+01  0.68034727406E+03  0.00000000000E+00 0. -1.
<mgrwt>
<rscale>  0 0.14558357E+04</rscale>
<asrwt>0</asrwt>
<pdfrwt beam="1">  1        1 0.78912656E-01 0.14558357E+04</pdfrwt>
<pdfrwt beam="2">  1       -1 0.15892468E+00 0.14558357E+04</pdfrwt>
<totfact> 0.12366959E+01</totfact>
</mgrwt>
</event>
<event>
 6    1  0.1762360E-005  0.8800991E+03  0.7818608E-02  0.9450806E-01
          2   -1    0    0  501    0  0.00000000000E+00  0.00000000000E+00  0.94566865084E+03  0.94566865084E+03  0.00000000000E+00 0. -1.
         -2   -1    0    0    0  501 -0.00000000000E+00 -0.00000000000E+00 -0.20476898113E+03  0.20476898113E+03  0.00000000000E+00 0.  1.
         23    2    1    2    0    0 -0.17502052307E+03 -0.67164420294E+02 -0.13896665349E+03  0.25082216436E+03  0.91960776985E+02 0.  0.
         11    1    3    3    0    0 -0.51041059918E+02 -0.67623768063E+02 -0.60273083184E+02  0.10397599897E+03  0.00000000000E+00 0.  1.
        -11    1    3    3    0    0 -0.12397946315E+03  0.45934776874E+00 -0.78693570310E+02  0.14684616540E+03  0.00000000000E+00 0. -1.
         22    1    1    2    0    0  0.17502052307E+03  0.67164420294E+02  0.87986632320E+03  0.89961546761E+03  0.00000000000E+00 0. -1.
<mgrwt>
<rscale>  0 0.88009910E+03</rscale>
<asrwt>0</asrwt>
<pdfrwt beam="1">  1        2 0.14548748E+00 0.88009910E+03</pdfrwt>
<pdfrwt beam="2">  1       -2 0.31502921E-01 0.88009910E+03</pdfrwt>
<totfact> 0.25620465E+02</totfact>
</mgrwt>
</event>
<event>
 6    1  0.1762360E-005  0.1120092E+04  0.7818608E-02  0.9185827E-01
         -2   -1    0    0    0  501 -0.00000000000E+00  0.00000000000E+00  0.33534797563E+03  0.33534797563E+03  0.00000000000E+00 0.  1.
          2   -1    0    0  501    0  0.00000000000E+00 -0.00000000000E+00 -0.93530245615E+03  0.93530245615E+03  0.00000000000E+00 0. -1.
         23    2    1    2    0    0  0.64688981732E+02 -0.37747205772E+03  0.15573397096E+03  0.42345809564E+03  0.91618067726E+02 0.  0.
         13    1    3    3    0    0  0.73626649647E+02 -0.26597975129E+03  0.76504211912E+02  0.28638960539E+03  0.00000000000E+00 0. -1.
        -13    1    3    3    0    0 -0.89376679148E+01 -0.11149230643E+03  0.79229759044E+02  0.13706849025E+03  0.00000000000E+00 0.  1.
         22    1    1    2    0    0 -0.64688981732E+02  0.37747205772E+03 -0.75568845148E+03  0.84719233614E+03  0.00000000000E+00 0. -1.
<mgrwt>
<rscale>  0 0.11200925E+04</rscale>
<asrwt>0</asrwt>
<pdfrwt beam="1">  1        2 0.14389269E+00 0.11200925E+04</pdfrwt>
<pdfrwt beam="2">  1       -2 0.51591996E-01 0.11200925E+04</pdfrwt>
<totfact> 0.97705542E+01</totfact>
</mgrwt>
</event>
<event>
 6    1  0.1762360E-005  0.1762164E+04  0.7818608E-02  0.8726683E-01
         -2   -1    0    0    0  501 -0.00000000000E+00  0.00000000000E+00  0.90651221330E+03  0.90651221330E+03  0.00000000000E+00 0. -1.
          2   -1    0    0  501    0  0.00000000000E+00 -0.00000000000E+00 -0.85636555521E+03  0.85636555521E+03  0.00000000000E+00 0.  1.
         23    2    1    2    0    0 -0.64171037788E+03 -0.51315130256E+03  0.33663180898E+03  0.89271099710E+03  0.92170934265E+02 0.  0.
         13    1    3    3    0    0 -0.37184865207E+03 -0.25112021764E+03  0.21365880446E+03  0.49697371005E+03  0.00000000000E+00 0.  1.
        -13    1    3    3    0    0 -0.26986172581E+03 -0.26203108492E+03  0.12297300451E+03  0.39573728705E+03  0.00000000000E+00 0. -1.
         22    1    1    2    0    0  0.64171037788E+03  0.51315130256E+03 -0.28648515089E+03  0.87016677142E+03  0.00000000000E+00 0.  1.
<mgrwt>
<rscale>  0 0.17621644E+04</rscale>
<asrwt>0</asrwt>
<pdfrwt beam="1">  1        2 0.13174855E+00 0.17621644E+04</pdfrwt>
<pdfrwt beam="2">  1       -2 0.13946342E+00 0.17621644E+04</pdfrwt>
<totfact> 0.10789121E+01</totfact>
</mgrwt>
</event>
<event>
 6    1  0.1762360E-005  0.2004244E+04  0.7818608E-02  0.8604639E-01
         -1   -1    0    0    0  501 -0.00000000000E+00  0.00000000000E+00  0.47458864771E+03  0.47458864771E+03  0.00000000000E+00 0.  1.
          1   -1    0    0  501    0  0.00000000000E+00 -0.00000000000E+00 -0.21160402219E+04  0.21160402219E+04  0.00000000000E+00 0. -1.
         23    2    1    2    0    0 -0.42765075044E+03  0.75293718278E+03 -0.17374889475E+03  0.88653065623E+03  0.77125614700E+02 0.  0.
         13    1    3    3    0    0 -0.21312874579E+03  0.40481136316E+03 -0.55382049838E+02  0.46082889826E+03  0.00000000000E+00 0.  1.
        -13    1    3    3    0    0 -0.21452200466E+03  0.34812581961E+03 -0.11836684491E+03  0.42570175797E+03  0.00000000000E+00 0. -1.
         22    1    1    2    0    0  0.42765075044E+03 -0.75293718278E+03 -0.14677026794E+04  0.17040982134E+04  0.00000000000E+00 0. -1.
<mgrwt>
<rscale>  0 0.20042442E+04</rscale>
<asrwt>0</asrwt>
<pdfrwt beam="1">  1        1 0.32554464E+00 0.20042442E+04</pdfrwt>
<pdfrwt beam="2">  1       -1 0.73013640E-01 0.20042442E+04</pdfrwt>
<totfact> 0.43577941E+00</totfact>
</mgrwt>
</event>
<event>
 6    1  0.1762360E-005  0.9440367E+03  0.7818608E-02  0.9372148E-01
         -1   -1    0    0    0  501 -0.00000000000E+00  0.00000000000E+00  0.29485367803E+03  0.29485367803E+03  0.00000000000E+00 0.  1.
          1   -1    0    0  501    0  0.00000000000E+00 -0.00000000000E+00 -0.75563352517E+03  0.75563352517E+03  0.00000000000E+00 0. -1.
         23    2    1    2    0    0 -0.46233912678E+03 -0.20821138256E+02 -0.30766800768E+03  0.56300979518E+03  0.90163399298E+02 0.  0.
         13    1    3    3    0    0 -0.41139306579E+03  0.94775964278E+01 -0.27899380802E+03  0.49716357904E+03  0.00000000000E+00 0. -1.
        -13    1    3    3    0    0 -0.50946060990E+02 -0.30298734683E+02 -0.28674199662E+02  0.65846216140E+02  0.00000000000E+00 0.  1.
         22    1    1    2    0    0  0.46233912678E+03  0.20821138256E+02 -0.15311183947E+03  0.48747740802E+03  0.00000000000E+00 0.  1.
<mgrwt>
<rscale>  0 0.94403670E+03</rscale>
<asrwt>0</asrwt>
<pdfrwt beam="1">  1        1 0.11625131E+00 0.94403670E+03</pdfrwt>
<pdfrwt beam="2">  1       -1 0.45362105E-01 0.94403670E+03</pdfrwt>
<totfact> 0.11737457E+02</totfact>
</mgrwt>
</event>
<event>
 6    1  0.1762360E-005  0.1187277E+04  0.7818608E-02  0.9124066E-01
          2   -1    0    0  501    0  0.00000000000E+00  0.00000000000E+00  0.33570640467E+03  0.33570640467E+03  0.00000000000E+00 0. -1.
         -2   -1    0    0    0  501 -0.00000000000E+00 -0.00000000000E+00 -0.10497474337E+04  0.10497474337E+04  0.00000000000E+00 0.  1.
         23    2    1    2    0    0 -0.47660909651E+02 -0.20460108414E+03  0.28446507338E+03  0.36508743237E+03  0.90748495084E+02 0.  0.
         13    1    3    3    0    0  0.19799224959E+02 -0.47270722812E+02  0.33243056009E+02  0.61087079788E+02  0.00000000000E+00 0. -1.
        -13    1    3    3    0    0 -0.67460134610E+02 -0.15733036132E+03  0.25122201737E+03  0.30400035258E+03  0.00000000000E+00 0.  1.
         22    1    1    2    0    0  0.47660909651E+02  0.20460108414E+03 -0.99850610245E+03  0.10203664060E+04  0.00000000000E+00 0.  1.
<mgrwt>
<rscale>  0 0.11872775E+04</rscale>
<asrwt>0</asrwt>
<pdfrwt beam="1">  1        2 0.51647140E-01 0.11872775E+04</pdfrwt>
<pdfrwt beam="2">  1       -2 0.16149960E+00 0.11872775E+04</pdfrwt>
<totfact> 0.23452833E+01</totfact>
</mgrwt>
</event>
<event>
 6    1  0.1762360E-005  0.8023080E+03  0.7818608E-02  0.9556682E-01
         -1   -1    0    0    0  501 -0.00000000000E+00  0.00000000000E+00  0.13125416700E+03  0.13125416700E+03  0.00000000000E+00 0.  1.
          1   -1    0    0  501    0  0.00000000000E+00 -0.00000000000E+00 -0.12260527493E+04  0.12260527493E+04  0.00000000000E+00 0. -1.
         23    2    1    2    0    0  0.31736220507E+03  0.10961021096E+03 -0.20380696894E+03  0.40515187503E+03  0.99386084023E+02 0.  0.
         13    1    3    3    0    0  0.23774885066E+03  0.36943043837E+02 -0.15915921718E+03  0.28848043415E+03  0.00000000000E+00 0. -1.
        -13    1    3    3    0    0  0.79613354414E+02  0.72667167122E+02 -0.44647751760E+02  0.11667144088E+03  0.00000000000E+00 0.  1.
         22    1    1    2    0    0 -0.31736220507E+03 -0.10961021096E+03 -0.89099161340E+03  0.95215504132E+03  0.00000000000E+00 0.  1.
<mgrwt>
<rscale>  0 0.80230800E+03</rscale>
<asrwt>0</asrwt>
<pdfrwt beam="1">  1        1 0.18862350E+00 0.80230800E+03</pdfrwt>
<pdfrwt beam="2">  1       -1 0.20192949E-01 0.80230800E+03</pdfrwt>
<totfact> 0.20817707E+02</totfact>
</mgrwt>
</event>
<event>
 6    1  0.1762360E-005  0.1878993E+04  0.7818608E-02  0.8665384E-01
          2   -1    0    0  501    0  0.00000000000E+00  0.00000000000E+00  0.11026601020E+04  0.11026601020E+04  0.00000000000E+00 0. -1.
         -2   -1    0    0    0  501 -0.00000000000E+00 -0.00000000000E+00 -0.80047627826E+03  0.80047627826E+03  0.00000000000E+00 0.  1.
         23    2    1    2    0    0  0.34639193919E+03  0.85932470789E+03  0.79955921861E+01  0.93103913990E+03  0.91343425703E+02 0.  0.
         11    1    3    3    0    0  0.26214271755E+03  0.53671588277E+03 -0.54928424327E+01  0.59733819106E+03  0.00000000000E+00 0.  1.
        -11    1    3    3    0    0  0.84249221638E+02  0.32260882512E+03  0.13488434619E+02  0.33370094885E+03  0.00000000000E+00 0. -1.
         22    1    1    2    0    0 -0.34639193919E+03 -0.85932470789E+03  0.29418823155E+03  0.97209724035E+03  0.00000000000E+00 0. -1.
<mgrwt>
<rscale>  0 0.18789926E+04</rscale>
<asrwt>0</asrwt>
<pdfrwt beam="1">  1        2 0.16964002E+00 0.18789926E+04</pdfrwt>
<pdfrwt beam="2">  1       -2 0.12315020E+00 0.18789926E+04</pdfrwt>
<totfact> 0.10135891E+01</totfact>
</mgrwt>
</event>
<event>
 6    1  0.1762360E-005  0.2016194E+04  0.7818608E-02  0.8599086E-01
         -2   -1    0    0    0  501 -0.00000000000E+00  0.00000000000E+00  0.16614407397E+04  0.16614407397E+04  0.00000000000E+00 0.  1.
          2   -1    0    0  501    0  0.00000000000E+00 -0.00000000000E+00 -0.61167392253E+03  0.61167392253E+03  0.00000000000E+00 0. -1.
         23    2    1    2    0    0  0.75435466194E+03  0.59235109986E+03  0.18344352945E+03  0.98065699547E+03  0.90032398511E+02 0.  0.
         11    1    3    3    0    0  0.46823619713E+03  0.42100867211E+03  0.12867341737E+03  0.64268988372E+03  0.00000000000E+00 0. -1.
        -11    1    3    3    0    0  0.28611846481E+03  0.17134242775E+03  0.54770112078E+02  0.33796711176E+03  0.00000000000E+00 0.  1.
         22    1    1    2    0    0 -0.75435466194E+03 -0.59235109986E+03  0.86632328768E+03  0.12924576667E+04  0.00000000000E+00 0.  1.
<mgrwt>
<rscale>  0 0.20161944E+04</rscale>
<asrwt>0</asrwt>
<pdfrwt beam="1">  1        2 0.94103680E-01 0.20161944E+04</pdfrwt>
<pdfrwt beam="2">  1       -2 0.25560627E+00 0.20161944E+04</pdfrwt>
<totfact> 0.26681934E+00</totfact>
</mgrwt>
</event>
<event>
 6    1  0.1762360E-005  0.1642065E+04  0.7818608E-02  0.8795115E-01
          2   -1    0    0  501    0  0.00000000000E+00  0.00000000000E+00  0.11870212702E+04  0.11870212702E+04  0.00000000000E+00 0.  1.
         -2   -1    0    0    0  501 -0.00000000000E+00 -0.00000000000E+00 -0.56788705936E+03  0.56788705936E+03  0.00000000000E+00 0. -1.
         23    2    1    2    0    0 -0.21618834380E+03  0.54041926158E+03 -0.30468409710E+03  0.66301518262E+03  0.89254440064E+02 0.  0.
         11    1    3    3    0    0 -0.13249296002E+02  0.66834542195E+02 -0.67145766324E+02  0.95660617864E+02  0.00000000000E+00 0.  1.
        -11    1    3    3    0    0 -0.20293904780E+03  0.47358471939E+03 -0.23753833078E+03  0.56735456475E+03  0.00000000000E+00 0. -1.
         22    1    1    2    0    0  0.21618834380E+03 -0.54041926158E+03  0.92381830798E+03  0.10918931470E+04  0.00000000000E+00 0.  1.
<mgrwt>
<rscale>  0 0.16420646E+04</rscale>
<asrwt>0</asrwt>
<pdfrwt beam="1">  1        2 0.18261866E+00 0.16420646E+04</pdfrwt>
<pdfrwt beam="2">  1       -2 0.87367240E-01 0.16420646E+04</pdfrwt>
<totfact> 0.20859870E+01</totfact>
</mgrwt>
</event>
<event>
 6    1  0.1762360E-005  0.7736609E+03  0.7818608E-02  0.9598944E-01
          2   -1    0    0  501    0  0.00000000000E+00  0.00000000000E+00  0.73797473160E+03  0.73797473160E+03  0.00000000000E+00 0. -1.
         -2   -1    0    0    0  501 -0.00000000000E+00 -0.00000000000E+00 -0.20276820310E+03  0.20276820310E+03  0.00000000000E+00 0.  1.
         23    2    1    2    0    0  0.48723386030E+02  0.18567016550E+03  0.67285782171E+03  0.70453273757E+03  0.82348960985E+02 0.  0.
         13    1    3    3    0    0  0.34014852253E+02  0.40538411083E+02  0.29075285114E+03  0.29552934438E+03  0.00000000000E+00 0. -1.
        -13    1    3    3    0    0  0.14708533777E+02  0.14513175442E+03  0.38210497057E+03  0.40900339319E+03  0.00000000000E+00 0.  1.
         22    1    1    2    0    0 -0.48723386030E+02 -0.18567016550E+03 -0.13765129320E+03  0.23621019712E+03  0.00000000000E+00 0.  1.
<mgrwt>
<rscale>  0 0.77366093E+03</rscale>
<asrwt>0</asrwt>
<pdfrwt beam="1">  1        2 0.11353457E+00 0.77366093E+03</pdfrwt>
<pdfrwt beam="2">  1       -2 0.31195109E-01 0.77366093E+03</pdfrwt>
<totfact> 0.36683167E+02</totfact>
</mgrwt>
</event>
<event>
 6    1  0.1828080E-005  0.4005839E+04  0.7818608E-02  0.8003370E-01
         -2   -1    0    0    0  501 -0.00000000000E+00  0.00000000000E+00  0.15354663264E+04  0.15354663264E+04  0.00000000000E+00 0.  1.
          2   -1    0    0  501    0  0.00000000000E+00 -0.00000000000E+00 -0.26126823621E+04  0.26126823621E+04  0.00000000000E+00 0. -1.
         23    2    1    2    0    0  0.13903717742E+04 -0.11831659782E+04 -0.13893043900E+04  0.22960108579E+04  0.92107378524E+02 0.  0.
         13    1    3    3    0    0  0.79075168054E+03 -0.71678193284E+03 -0.77288861462E+03  0.13177334215E+04  0.00000000000E+00 0. -1.
        -13    1    3    3    0    0  0.59962009366E+03 -0.46638404536E+03 -0.61641577539E+03  0.97827743644E+03  0.00000000000E+00 0.  1.
         22    1    1    2    0    0 -0.13903717742E+04  0.11831659782E+04  0.31208835430E+03  0.18521378306E+04  0.00000000000E+00 0.  1.
<mgrwt>
<rscale>  0 0.40058386E+04</rscale>
<asrwt>0</asrwt>
<pdfrwt beam="1">  1        2 0.40195113E+00 0.40058386E+04</pdfrwt>
<pdfrwt beam="2">  1       -2 0.23622559E+00 0.40058386E+04</pdfrwt>
<totfact> 0.18439702E-01</totfact>
</mgrwt>
</event>
<event>
 6    1  0.1762360E-005  0.1630475E+04  0.7818608E-02  0.8802041E-01
          2   -1    0    0  501    0  0.00000000000E+00  0.00000000000E+00  0.14916611263E+04  0.14916611263E+04  0.00000000000E+00 0.  1.
         -2   -1    0    0    0  501 -0.00000000000E+00 -0.00000000000E+00 -0.44555198716E+03  0.44555198716E+03  0.00000000000E+00 0. -1.
         23    2    1    2    0    0 -0.80170924809E+03  0.39770600775E+02  0.37479987273E+03  0.89080231920E+03  0.93458055514E+02 0.  0.
         11    1    3    3    0    0 -0.40939868531E+03  0.61093837663E+02  0.21747605279E+03  0.46758483089E+03  0.00000000000E+00 0. -1.
        -11    1    3    3    0    0 -0.39231056278E+03 -0.21323236888E+02  0.15732381994E+03  0.42321748832E+03  0.00000000000E+00 0.  1.
         22    1    1    2    0    0  0.80170924809E+03 -0.39770600775E+02  0.67130926638E+03  0.10464107942E+04  0.00000000000E+00 0. -1.
<mgrwt>
<rscale>  0 0.16304755E+04</rscale>
<asrwt>0</asrwt>
<pdfrwt beam="1">  1        2 0.22948632E+00 0.16304755E+04</pdfrwt>
<pdfrwt beam="2">  1       -2 0.68546460E-01 0.16304755E+04</pdfrwt>
<totfact> 0.23888718E+01</totfact>
</mgrwt>
</event>
<event>
 6    1  0.1762360E-005  0.2174762E+04  0.7818608E-02  0.8529007E-01
         -1   -1    0    0    0  501 -0.00000000000E+00  0.00000000000E+00  0.80217824437E+03  0.80217824437E+03  0.00000000000E+00 0.  1.
          1   -1    0    0  501    0  0.00000000000E+00 -0.00000000000E+00 -0.14739834589E+04  0.14739834589E+04  0.00000000000E+00 0. -1.
         23    2    1    2    0    0 -0.49214277488E+01 -0.62580173430E+03 -0.12647520694E+04  0.14140491795E+04  0.91023370040E+02 0.  0.
         13    1    3    3    0    0 -0.46626635894E+02 -0.35260736846E+03 -0.68765937004E+03  0.77419726729E+03  0.00000000000E+00 0. -1.
        -13    1    3    3    0    0  0.41705208145E+02 -0.27319436584E+03 -0.57709269934E+03  0.63985191220E+03  0.00000000000E+00 0.  1.
         22    1    1    2    0    0  0.49214277488E+01  0.62580173430E+03  0.59294685481E+03  0.86211252383E+03  0.00000000000E+00 0.  1.
<mgrwt>
<rscale>  0 0.21747620E+04</rscale>
<asrwt>0</asrwt>
<pdfrwt beam="1">  1        1 0.22676668E+00 0.21747620E+04</pdfrwt>
<pdfrwt beam="2">  1       -1 0.12341204E+00 0.21747620E+04</pdfrwt>
<totfact> 0.35999537E+00</totfact>
</mgrwt>
</event>
<event>
 6    1  0.1762360E-005  0.7218861E+03  0.7818608E-02  0.9680519E-01
          1   -1    0    0  501    0  0.00000000000E+00  0.00000000000E+00  0.17688769051E+04  0.17688769051E+04  0.00000000000E+00 0. -1.
         -1   -1    0    0    0  501 -0.00000000000E+00 -0.00000000000E+00 -0.73651191052E+02  0.73651191052E+02  0.00000000000E+00 0.  1.
         23    2    1    2    0    0  0.68981496679E+02 -0.87354530312E+02  0.17217308469E+04  0.17281087668E+04  0.98048661776E+02 0.  0.
         11    1    3    3    0    0  0.22709494418E+02 -0.17198978360E+02  0.94289207301E+02  0.98498632512E+02  0.00000000000E+00 0. -1.
        -11    1    3    3    0    0  0.46272002261E+02 -0.70155551951E+02  0.16274416396E+04  0.16296101343E+04  0.00000000000E+00 0.  1.
         22    1    1    2    0    0 -0.68981496679E+02  0.87354530312E+02 -0.26505132846E+02  0.11441932930E+03  0.00000000000E+00 0.  1.
<mgrwt>
<rscale>  0 0.72188612E+03</rscale>
<asrwt>0</asrwt>
<pdfrwt beam="1">  1        1 0.27213488E+00 0.72188612E+03</pdfrwt>
<pdfrwt beam="2">  1       -1 0.11330954E-01 0.72188612E+03</pdfrwt>
<totfact> 0.22701687E+02</totfact>
</mgrwt>
</event>
<event>
 6    1  0.1762360E-005  0.1411729E+04  0.7818608E-02  0.8945372E-01
         -2   -1    0    0    0  501 -0.00000000000E+00  0.00000000000E+00  0.56690793802E+03  0.56690793802E+03  0.00000000000E+00 0.  1.
          2   -1    0    0  501    0  0.00000000000E+00 -0.00000000000E+00 -0.87888118388E+03  0.87888118388E+03  0.00000000000E+00 0. -1.
         23    2    1    2    0    0  0.10800929623E+03 -0.26358523856E+03  0.50212168158E+03  0.58329637587E+03  0.83458330544E+02 0.  0.
         13    1    3    3    0    0  0.45545013960E+02 -0.11111282671E+03  0.13372293771E+03  0.17972821878E+03  0.00000000000E+00 0.  1.
        -13    1    3    3    0    0  0.62464282273E+02 -0.15247241185E+03  0.36839874387E+03  0.40356815710E+03  0.00000000000E+00 0. -1.
         22    1    1    2    0    0 -0.10800929623E+03  0.26358523856E+03 -0.81409492744E+03  0.86249274602E+03  0.00000000000E+00 0. -1.
<mgrwt>
<rscale>  0 0.14117290E+04</rscale>
<asrwt>0</asrwt>
<pdfrwt beam="1">  1        2 0.13521249E+00 0.14117290E+04</pdfrwt>
<pdfrwt beam="2">  1       -2 0.87216606E-01 0.14117290E+04</pdfrwt>
<totfact> 0.33496686E+01</totfact>
</mgrwt>
</event>
<event>
 6    1  0.1762360E-005  0.5376169E+04  0.7818608E-02  0.7772962E-01
          2   -1    0    0  501    0  0.00000000000E+00  0.00000000000E+00  0.37258569652E+04  0.37258569652E+04  0.00000000000E+00 0. -1.
         -2   -1    0    0    0  501 -0.00000000000E+00 -0.00000000000E+00 -0.19393655678E+04  0.19393655678E+04  0.00000000000E+00 0.  1.
         23    2    1    2    0    0  0.24404515997E+04  0.50574631263E+03 -0.16559123614E+03  0.24994351188E+04  0.90399737112E+02 0.  0.
         13    1    3    3    0    0  0.18648601348E+04  0.41117603457E+03 -0.15652984466E+03  0.19160560133E+04  0.00000000000E+00 0. -1.
        -13    1    3    3    0    0  0.57559146485E+03  0.94570278059E+02 -0.90613914883E+01  0.58337910549E+03  0.00000000000E+00 0.  1.
         22    1    1    2    0    0 -0.24404515997E+04 -0.50574631263E+03  0.19520826336E+04  0.31657874142E+04  0.00000000000E+00 0. -1.
<mgrwt>
<rscale>  0 0.53761692E+04</rscale>
<asrwt>0</asrwt>
<pdfrwt beam="1">  1        2 0.57320876E+00 0.53761692E+04</pdfrwt>
<pdfrwt beam="2">  1       -2 0.29836393E+00 0.53761692E+04</pdfrwt>
<totfact> 0.12795668E-02</totfact>
</mgrwt>
</event>
<event>
 6    1  0.1762360E-005  0.4552984E+04  0.7818608E-02  0.7901426E-01
         -2   -1    0    0    0  501 -0.00000000000E+00  0.00000000000E+00  0.30803353016E+04  0.30803353016E+04  0.00000000000E+00 0. -1.
          2   -1    0    0  501    0  0.00000000000E+00 -0.00000000000E+00 -0.16824196868E+04  0.16824196868E+04  0.00000000000E+00 0.  1.
         23    2    1    2    0    0  0.73121293308E+03  0.15051991684E+04 -0.91383971642E+03  0.19088962670E+04  0.92114281230E+02 0.  0.
         11    1    3    3    0    0  0.34757055499E+03  0.75258768000E+03 -0.50172002404E+03  0.96897703240E+03  0.00000000000E+00 0.  1.
        -11    1    3    3    0    0  0.38364237808E+03  0.75261148837E+03 -0.41211969238E+03  0.93991923458E+03  0.00000000000E+00 0. -1.
         22    1    1    2    0    0 -0.73121293308E+03 -0.15051991684E+04  0.23117553313E+04  0.28538587214E+04  0.00000000000E+00 0. -1.
<mgrwt>
<rscale>  0 0.45529844E+04</rscale>
<asrwt>0</asrwt>
<pdfrwt beam="1">  1        2 0.25883380E+00 0.45529844E+04</pdfrwt>
<pdfrwt beam="2">  1       -2 0.47389774E+00 0.45529844E+04</pdfrwt>
<totfact> 0.18351255E-02</totfact>
</mgrwt>
</event>
<event>
 6    1  0.2930846E-005  0.2540099E+04  0.7818608E-02  0.8388838E-01
          1   -1    0    0  501    0  0.00000000000E+00  0.00000000000E+00  0.15510672294E+04  0.15510672294E+04  0.00000000000E+00 0. -1.
         -1   -1    0    0    0  501 -0.00000000000E+00 -0.00000000000E+00 -0.10399457865E+04  0.10399457865E+04  0.00000000000E+00 0.  1.
         23    2    1    2    0    0 -0.66064011113E+03 -0.29771834995E+03  0.13177735978E+04  0.15066840662E+04  0.92130602379E+02 0.  0.
         13    1    3    3    0    0 -0.25361865785E+03 -0.12786718291E+03  0.42909213521E+03  0.51457992632E+03  0.00000000000E+00 0.  1.
        -13    1    3    3    0    0 -0.40702145328E+03 -0.16985116704E+03  0.88868146258E+03  0.99210413985E+03  0.00000000000E+00 0. -1.
         22    1    1    2    0    0  0.66064011113E+03  0.29771834995E+03 -0.80665215484E+03  0.10843289497E+04  0.00000000000E+00 0.  1.
<mgrwt>
<rscale>  0 0.25400991E+04</rscale>
<asrwt>0</asrwt>
<pdfrwt beam="1">  1        1 0.23862573E+00 0.25400991E+04</pdfrwt>
<pdfrwt beam="2">  1       -1 0.15999166E+00 0.25400991E+04</pdfrwt>
<totfact> 0.15605208E+00</totfact>
</mgrwt>
</event>
<event>
 6    1  0.1762360E-005  0.1913501E+04  0.7818608E-02  0.8648165E-01
          2   -1    0    0  501    0  0.00000000000E+00  0.00000000000E+00  0.42192749097E+03  0.42192749097E+03  0.00000000000E+00 0. -1.
         -2   -1    0    0    0  501 -0.00000000000E+00 -0.00000000000E+00 -0.21694984577E+04  0.21694984577E+04  0.00000000000E+00 0.  1.
         23    2    1    2    0    0 -0.77567628704E+03  0.49290662753E+03 -0.12253123662E+04  0.15343617635E+04  0.90801876998E+02 0.  0.
         11    1    3    3    0    0 -0.51503841931E+03  0.37632010064E+03 -0.85757045900E+03  0.10687883250E+04  0.00000000000E+00 0. -1.
        -11    1    3    3    0    0 -0.26063786773E+03  0.11658652689E+03 -0.36774190718E+03  0.46557343851E+03  0.00000000000E+00 0.  1.
         22    1    1    2    0    0  0.77567628704E+03 -0.49290662753E+03 -0.52225860060E+03  0.10570641852E+04  0.00000000000E+00 0.  1.
<mgrwt>
<rscale>  0 0.19135005E+04</rscale>
<asrwt>0</asrwt>
<pdfrwt beam="1">  1        2 0.64911920E-01 0.19135005E+04</pdfrwt>
<pdfrwt beam="2">  1       -2 0.33376900E+00 0.19135005E+04</pdfrwt>
<totfact> 0.13805559E+00</totfact>
</mgrwt>
</event>
<event>
 6    1  0.1762360E-005  0.1086134E+04  0.7818608E-02  0.9218813E-01
          2   -1    0    0  501    0  0.00000000000E+00  0.00000000000E+00  0.14496026713E+04  0.14496026713E+04  0.00000000000E+00 0. -1.
         -2   -1    0    0    0  501 -0.00000000000E+00 -0.00000000000E+00 -0.20345008412E+03  0.20345008412E+03  0.00000000000E+00 0.  1.
         23    2    1    2    0    0  0.49599132979E+03  0.12160465177E+03  0.36428138174E+03  0.63398852116E+03  0.91899016968E+02 0.  0.
         11    1    3    3    0    0  0.25149053327E+03  0.10794454267E+03  0.18105786379E+03  0.32814853749E+03  0.00000000000E+00 0.  1.
        -11    1    3    3    0    0  0.24450079652E+03  0.13660109093E+02  0.18322351795E+03  0.30583998367E+03  0.00000000000E+00 0. -1.
         22    1    1    2    0    0 -0.49599132979E+03 -0.12160465177E+03  0.88187120539E+03  0.10190642342E+04  0.00000000000E+00 0. -1.
<mgrwt>
<rscale>  0 0.10861340E+04</rscale>
<asrwt>0</asrwt>
<pdfrwt beam="1">  1        2 0.22301579E+00 0.10861340E+04</pdfrwt>
<pdfrwt beam="2">  1       -2 0.31300014E-01 0.10861340E+04</pdfrwt>
<totfact> 0.12746738E+02</totfact>
</mgrwt>
</event>
<event>
 6    1  0.1762360E-005  0.3713458E+04  0.7818608E-02  0.8064986E-01
          2   -1    0    0  501    0  0.00000000000E+00  0.00000000000E+00  0.25131480681E+04  0.25131480681E+04  0.00000000000E+00 0. -1.
         -2   -1    0    0    0  501 -0.00000000000E+00 -0.00000000000E+00 -0.13717627924E+04  0.13717627924E+04  0.00000000000E+00 0.  1.
         23    2    1    2    0    0  0.17349158220E+04 -0.64873815365E+03  0.45555812336E+03  0.19097771981E+04  0.94454439158E+02 0.  0.
         13    1    3    3    0    0  0.64467971771E+03 -0.19440037683E+03  0.15271476802E+03  0.69045292765E+03  0.00000000000E+00 0. -1.
        -13    1    3    3    0    0  0.10902361043E+04 -0.45433777682E+03  0.30284335533E+03  0.12193242704E+04  0.00000000000E+00 0.  1.
         22    1    1    2    0    0 -0.17349158220E+04  0.64873815365E+03  0.68582715234E+03  0.19751336624E+04  0.00000000000E+00 0. -1.
<mgrwt>
<rscale>  0 0.37134582E+04</rscale>
<asrwt>0</asrwt>
<pdfrwt beam="1">  1        2 0.38663816E+00 0.37134582E+04</pdfrwt>
<pdfrwt beam="2">  1       -2 0.21104043E+00 0.37134582E+04</pdfrwt>
<totfact> 0.31141900E-01</totfact>
</mgrwt>
</event>
<event>
 6    1  0.1762360E-005  0.4795123E+04  0.7818608E-02  0.7860913E-01
         -2   -1    0    0    0  501 -0.00000000000E+00  0.00000000000E+00  0.15391781106E+04  0.15391781106E+04  0.00000000000E+00 0.  1.
          2   -1    0    0  501    0  0.00000000000E+00 -0.00000000000E+00 -0.37346561574E+04  0.37346561574E+04  0.00000000000E+00 0. -1.
         23    2    1    2    0    0  0.62597458939E+03 -0.22960511444E+04 -0.14101570197E+04  0.27677568230E+04  0.90774263448E+02 0.  0.
         11    1    3    3    0    0  0.43596980850E+03 -0.15699216834E+04 -0.10132604963E+04  0.19187028429E+04  0.00000000000E+00 0. -1.
        -11    1    3    3    0    0  0.19000478089E+03 -0.72612946103E+03 -0.39689652338E+03  0.84905398015E+03  0.00000000000E+00 0.  1.
         22    1    1    2    0    0 -0.62597458939E+03  0.22960511444E+04 -0.78532102709E+03  0.25060774449E+04  0.00000000000E+00 0. -1.
<mgrwt>
<rscale>  0 0.47951229E+04</rscale>
<asrwt>0</asrwt>
<pdfrwt beam="1">  1        2 0.57456248E+00 0.47951229E+04</pdfrwt>
<pdfrwt beam="2">  1       -2 0.23679664E+00 0.47951229E+04</pdfrwt>
<totfact> 0.31470382E-02</totfact>
</mgrwt>
</event>
<event>
 6    1  0.1762360E-005  0.2675914E+04  0.7818608E-02  0.8342863E-01
         -2   -1    0    0    0  501 -0.00000000000E+00  0.00000000000E+00  0.95489712098E+03  0.95489712098E+03  0.00000000000E+00 0. -1.
          2   -1    0    0  501    0  0.00000000000E+00 -0.00000000000E+00 -0.18746824103E+04  0.18746824103E+04  0.00000000000E+00 0.  1.
         23    2    1    2    0    0 -0.44207755633E+03  0.95494900792E+03  0.41079279155E+03  0.11331720912E+04  0.89264198166E+02 0.  0.
         13    1    3    3    0    0 -0.33254506175E+03  0.61979596238E+03  0.26552515880E+03  0.75182236135E+03  0.00000000000E+00 0. -1.
        -13    1    3    3    0    0 -0.10953249458E+03  0.33515304554E+03  0.14526763274E+03  0.38134972981E+03  0.00000000000E+00 0.  1.
         22    1    1    2    0    0  0.44207755633E+03 -0.95494900792E+03 -0.13305780808E+04  0.16964074401E+04  0.00000000000E+00 0.  1.
<mgrwt>
<rscale>  0 0.26759139E+04</rscale>
<asrwt>0</asrwt>
<pdfrwt beam="1">  1        2 0.28841268E+00 0.26759139E+04</pdfrwt>
<pdfrwt beam="2">  1       -2 0.14690725E+00 0.26759139E+04</pdfrwt>
<totfact> 0.21830023E+00</totfact>
</mgrwt>
</event>
<event>
 6    1  0.1762360E-005  0.1073380E+04  0.7818608E-02  0.9231533E-01
          1   -1    0    0  501    0  0.00000000000E+00  0.00000000000E+00  0.72717563251E+03  0.72717563251E+03  0.00000000000E+00 0. -1.
         -1   -1    0    0    0  501 -0.00000000000E+00 -0.00000000000E+00 -0.39610239321E+03  0.39610239321E+03  0.00000000000E+00 0.  1.
         23    2    1    2    0    0 -0.35416842458E+03 -0.39745920336E+03  0.18993564011E+03  0.57252498378E+03  0.91105534176E+02 0.  0.
         11    1    3    3    0    0 -0.22818995466E+03 -0.22171111525E+03  0.71951493414E+02  0.32619548041E+03  0.00000000000E+00 0.  1.
        -11    1    3    3    0    0 -0.12597846991E+03 -0.17574808811E+03  0.11798414670E+03  0.24632950337E+03  0.00000000000E+00 0. -1.
         22    1    1    2    0    0  0.35416842458E+03  0.39745920336E+03  0.14113759919E+03  0.55075304194E+03  0.00000000000E+00 0.  1.
<mgrwt>
<rscale>  0 0.10733797E+04</rscale>
<asrwt>0</asrwt>
<pdfrwt beam="1">  1        1 0.11187317E+00 0.10733797E+04</pdfrwt>
<pdfrwt beam="2">  1       -1 0.60938830E-01 0.10733797E+04</pdfrwt>
<totfact> 0.70063073E+01</totfact>
</mgrwt>
</event>
<event>
 6    1  0.1762360E-005  0.6009869E+03  0.7818608E-02  0.9903361E-01
          1   -1    0    0  501    0  0.00000000000E+00  0.00000000000E+00  0.56022480439E+03  0.56022480439E+03  0.00000000000E+00 0. -1.
         -1   -1    0    0    0  501 -0.00000000000E+00 -0.00000000000E+00 -0.16117871609E+03  0.16117871609E+03  0.00000000000E+00 0.  1.
         23    2    1    2    0    0 -0.53341152125E+01 -0.29395086336E+03  0.18944477521E+03  0.36033805094E+03  0.86710006594E+02 0.  0.
         11    1    3    3    0    0 -0.55445838257E+01 -0.49732343171E+02 -0.19163934743E+01  0.50077149790E+02  0.00000000000E+00 0.  1.
        -11    1    3    3    0    0  0.21046861319E+00 -0.24421852019E+03  0.19136116869E+03  0.31026090115E+03  0.00000000000E+00 0. -1.
         22    1    1    2    0    0  0.53341152125E+01  0.29395086336E+03  0.20960131308E+03  0.36106546955E+03  0.00000000000E+00 0. -1.
<mgrwt>
<rscale>  0 0.60098690E+03</rscale>
<asrwt>0</asrwt>
<pdfrwt beam="1">  1        1 0.86188431E-01 0.60098690E+03</pdfrwt>
<pdfrwt beam="2">  1       -1 0.24796726E-01 0.60098690E+03</pdfrwt>
<totfact> 0.54205404E+02</totfact>
</mgrwt>
</event>
<event>
 6    1  0.1762360E-005  0.5087938E+04  0.7818608E-02  0.7815083E-01
         -2   -1    0    0    0  501 -0.00000000000E+00  0.00000000000E+00  0.28649137718E+04  0.28649137718E+04  0.00000000000E+00 0. -1.
          2   -1    0    0  501    0  0.00000000000E+00 -0.00000000000E+00 -0.22589783186E+04  0.22589783186E+04  0.00000000000E+00 0.  1.
         23    2    1    2    0    0  0.11510997399E+04  0.53774135768E+03  0.25216923562E+04  0.28251270109E+04  0.90630619054E+02 0.  0.
         13    1    3    3    0    0  0.50538375110E+03  0.19104345591E+03  0.11111865143E+04  0.12355750918E+04  0.00000000000E+00 0. -1.
        -13    1    3    3    0    0  0.64571598884E+03  0.34669790177E+03  0.14105058419E+04  0.15895519190E+04  0.00000000000E+00 0.  1.
         22    1    1    2    0    0 -0.11510997399E+04 -0.53774135768E+03 -0.19157569030E+04  0.22987650795E+04  0.00000000000E+00 0.  1.
<mgrwt>
<rscale>  0 0.50879379E+04</rscale>
<asrwt>0</asrwt>
<pdfrwt beam="1">  1        2 0.34753513E+00 0.50879379E+04</pdfrwt>
<pdfrwt beam="2">  1       -2 0.44075596E+00 0.50879379E+04</pdfrwt>
<totfact> 0.13850962E-02</totfact>
</mgrwt>
</event>
<event>
 6    1  0.1762360E-005  0.2242292E+04  0.7818608E-02  0.8501029E-01
         -2   -1    0    0    0  501 -0.00000000000E+00  0.00000000000E+00  0.63179453573E+03  0.63179453573E+03  0.00000000000E+00 0.  1.
          2   -1    0    0  501    0  0.00000000000E+00 -0.00000000000E+00 -0.19895200971E+04  0.19895200971E+04  0.00000000000E+00 0. -1.
         23    2    1    2    0    0 -0.30652126852E+03  0.22363008086E+03  0.55111862473E+03  0.67512558036E+03  0.89983940826E+02 0.  0.
         11    1    3    3    0    0 -0.11285629505E+03  0.34098738118E+02  0.19078216230E+03  0.22427015121E+03  0.00000000000E+00 0. -1.
        -11    1    3    3    0    0 -0.19366497347E+03  0.18953134274E+03  0.36033646243E+03  0.45085542914E+03  0.00000000000E+00 0.  1.
         22    1    1    2    0    0  0.30652126852E+03 -0.22363008086E+03 -0.19088441861E+04  0.19461890524E+04  0.00000000000E+00 0. -1.
<mgrwt>
<rscale>  0 0.22422916E+04</rscale>
<asrwt>0</asrwt>
<pdfrwt beam="1">  1        2 0.30608001E+00 0.22422916E+04</pdfrwt>
<pdfrwt beam="2">  1       -2 0.97199159E-01 0.22422916E+04</pdfrwt>
<totfact> 0.54478804E+00</totfact>
</mgrwt>
</event>
<event>
 6    1  0.1762360E-005  0.1096050E+04  0.7818608E-02  0.9209051E-01
         -2   -1    0    0    0  501 -0.00000000000E+00  0.00000000000E+00  0.95232294058E+02  0.95232294058E+02  0.00000000000E+00 0.  1.
          2   -1    0    0  501    0  0.00000000000E+00 -0.00000000000E+00 -0.31536701731E+04  0.31536701731E+04  0.00000000000E+00 0. -1.
         23    2    1    2    0    0  0.38015372333E+03 -0.38649064996E+03 -0.16860595381E+04  0.17733299726E+04  0.89501676023E+02 0.  0.
         13    1    3    3    0    0  0.31154374864E+03 -0.28901146542E+03 -0.14096733611E+04  0.14723335626E+04  0.00000000000E+00 0. -1.
        -13    1    3    3    0    0  0.68609974684E+02 -0.97479184542E+02 -0.27638617694E+03  0.30099641003E+03  0.00000000000E+00 0.  1.
         22    1    1    2    0    0 -0.38015372333E+03  0.38649064996E+03 -0.13723783409E+04  0.14755724945E+04  0.00000000000E+00 0.  1.
<mgrwt>
<rscale>  0 0.10960497E+04</rscale>
<asrwt>0</asrwt>
<pdfrwt beam="1">  1        2 0.48517992E+00 0.10960497E+04</pdfrwt>
<pdfrwt beam="2">  1       -2 0.14651126E-01 0.10960497E+04</pdfrwt>
<totfact> 0.51593958E+01</totfact>
</mgrwt>
</event>
<event>
 6    1  0.1762360E-005  0.1150787E+04  0.7818608E-02  0.9157057E-01
         -1   -1    0    0    0  501 -0.00000000000E+00  0.00000000000E+00  0.19373494561E+03  0.19373494561E+03  0.00000000000E+00 0.  1.
          1   -1    0    0  501    0  0.00000000000E+00 -0.00000000000E+00 -0.17089220456E+04  0.17089220456E+04  0.00000000000E+00 0. -1.
         23    2    1    2    0    0  0.39570590607E+03 -0.30518589257E+03 -0.12185109369E+04  0.13215043960E+04  0.10901088179E+03 0.  0.
         13    1    3    3    0    0  0.15895115259E+03 -0.63648017152E+02 -0.46673028220E+03  0.49714554742E+03  0.00000000000E+00 0. -1.
        -13    1    3    3    0    0  0.23675475347E+03 -0.24153787541E+03 -0.75178065468E+03  0.82435884862E+03  0.00000000000E+00 0.  1.
         22    1    1    2    0    0 -0.39570590607E+03  0.30518589257E+03 -0.29667616311E+03  0.58115259517E+03  0.00000000000E+00 0.  1.
<mgrwt>
<rscale>  0 0.11507874E+04</rscale>
<asrwt>0</asrwt>
<pdfrwt beam="1">  1        1 0.26291108E+00 0.11507874E+04</pdfrwt>
<pdfrwt beam="2">  1       -1 0.29805377E-01 0.11507874E+04</pdfrwt>
<totfact> 0.48196581E+01</totfact>
</mgrwt>
</event>
<event>
 6    1  0.1762360E-005  0.2220316E+04  0.7818608E-02  0.8510020E-01
         -1   -1    0    0    0  501 -0.00000000000E+00  0.00000000000E+00  0.99047029586E+03  0.99047029586E+03  0.00000000000E+00 0.  1.
          1   -1    0    0  501    0  0.00000000000E+00 -0.00000000000E+00 -0.12443081285E+04  0.12443081285E+04  0.00000000000E+00 0. -1.
         23    2    1    2    0    0  0.97344234519E+02  0.13377585223E+03 -0.12301695986E+04  0.12445281551E+04  0.90339409786E+02 0.  0.
         13    1    3    3    0    0  0.51693204900E+02  0.34116929477E+02 -0.72297970710E+03  0.72562787239E+03  0.00000000000E+00 0. -1.
        -13    1    3    3    0    0  0.45651029619E+02  0.99658922753E+02 -0.50718989148E+03  0.51890028272E+03  0.00000000000E+00 0.  1.
         22    1    1    2    0    0 -0.97344234519E+02 -0.13377585223E+03  0.97633176592E+03  0.99025026927E+03  0.00000000000E+00 0.  1.
<mgrwt>
<rscale>  0 0.22203155E+04</rscale>
<asrwt>0</asrwt>
<pdfrwt beam="1">  1        1 0.19143202E+00 0.22203155E+04</pdfrwt>
<pdfrwt beam="2">  1       -1 0.15238005E+00 0.22203155E+04</pdfrwt>
<totfact> 0.30188300E+00</totfact>
</mgrwt>
</event>
<event>
 6    1  0.2222583E-005  0.3198209E+04  0.7818608E-02  0.8189290E-01
         -2   -1    0    0    0  501 -0.00000000000E+00  0.00000000000E+00  0.14320345623E+04  0.14320345623E+04  0.00000000000E+00 0.  1.
          2   -1    0    0  501    0  0.00000000000E+00 -0.00000000000E+00 -0.17856661203E+04  0.17856661203E+04  0.00000000000E+00 0. -1.
         23    2    1    2    0    0 -0.95673849018E+03  0.12627318288E+04  0.32826782758E+02  0.15869983004E+04  0.87440252535E+02 0.  0.
         13    1    3    3    0    0 -0.68662377278E+03  0.95271619338E+03  0.50390072263E+02  0.11754401345E+04  0.00000000000E+00 0. -1.
        -13    1    3    3    0    0 -0.27011471740E+03  0.31001563540E+03 -0.17563289506E+02  0.41155816587E+03  0.00000000000E+00 0.  1.
         22    1    1    2    0    0  0.95673849018E+03 -0.12627318288E+04 -0.38645834079E+03  0.16307023822E+04  0.00000000000E+00 0. -1.
<mgrwt>
<rscale>  0 0.31982092E+04</rscale>
<asrwt>0</asrwt>
<pdfrwt beam="1">  1        2 0.27471786E+00 0.31982092E+04</pdfrwt>
<pdfrwt beam="2">  1       -2 0.22031301E+00 0.31982092E+04</pdfrwt>
<totfact> 0.72825222E-01</totfact>
</mgrwt>
</event>
<event>
 6    1  0.1762360E-005  0.2158816E+04  0.7818608E-02  0.8535768E-01
          1   -1    0    0  501    0  0.00000000000E+00  0.00000000000E+00  0.24908318428E+04  0.24908318428E+04  0.00000000000E+00 0. -1.
         -1   -1    0    0    0  501 -0.00000000000E+00 -0.00000000000E+00 -0.46776423634E+03  0.46776423634E+03  0.00000000000E+00 0.  1.
         23    2    1    2    0    0  0.62268966302E+03  0.84474416348E+03  0.13475729092E+04  0.17105463189E+04  0.93171052776E+02 0.  0.
         11    1    3    3    0    0  0.13700841067E+03  0.24390885370E+03  0.32243277326E+03  0.42687905404E+03  0.00000000000E+00 0. -1.
        -11    1    3    3    0    0  0.48568125235E+03  0.60083530978E+03  0.10251401360E+04  0.12836672648E+04  0.00000000000E+00 0.  1.
         22    1    1    2    0    0 -0.62268966302E+03 -0.84474416348E+03  0.67549469723E+03  0.12480497603E+04  0.00000000000E+00 0. -1.
<mgrwt>
<rscale>  0 0.21588164E+04</rscale>
<asrwt>0</asrwt>
<pdfrwt beam="1">  1        1 0.38320489E+00 0.21588164E+04</pdfrwt>
<pdfrwt beam="2">  1       -1 0.71963730E-01 0.21588164E+04</pdfrwt>
<totfact> 0.24514488E+00</totfact>
</mgrwt>
</event>
<event>
 6    1  0.1762360E-005  0.6879714E+03  0.7818608E-02  0.9738027E-01
          2   -1    0    0  501    0  0.00000000000E+00  0.00000000000E+00  0.30798309496E+03  0.30798309496E+03  0.00000000000E+00 0. -1.
         -2   -1    0    0    0  501 -0.00000000000E+00 -0.00000000000E+00 -0.38419694209E+03  0.38419694209E+03  0.00000000000E+00 0.  1.
         23    2    1    2    0    0 -0.29921374806E+03 -0.88235430851E+02  0.92088345218E+02  0.33772272476E+03  0.90895639117E+02 0.  0.
         11    1    3    3    0    0 -0.91031752545E+02 -0.45904487672E+02  0.70997485967E+02  0.12423624662E+03  0.00000000000E+00 0.  1.
        -11    1    3    3    0    0 -0.20818199551E+03 -0.42330943179E+02  0.21090859251E+02  0.21348647814E+03  0.00000000000E+00 0. -1.
         22    1    1    2    0    0  0.29921374806E+03  0.88235430851E+02 -0.16830219235E+03  0.35445731229E+03  0.00000000000E+00 0.  1.
<mgrwt>
<rscale>  0 0.68797140E+03</rscale>
<asrwt>0</asrwt>
<pdfrwt beam="1">  1        2 0.47382015E-01 0.68797140E+03</pdfrwt>
<pdfrwt beam="2">  1       -2 0.59107222E-01 0.68797140E+03</pdfrwt>
<totfact> 0.28782078E+02</totfact>
</mgrwt>
</event>
<event>
 6    1  0.1762360E-005  0.4854168E+04  0.7818608E-02  0.7851405E-01
          2   -1    0    0  501    0  0.00000000000E+00  0.00000000000E+00  0.26928423553E+04  0.26928423553E+04  0.00000000000E+00 0.  1.
         -2   -1    0    0    0  501 -0.00000000000E+00 -0.00000000000E+00 -0.21875538454E+04  0.21875538454E+04  0.00000000000E+00 0. -1.
         23    2    1    2    0    0  0.18960640545E+04  0.29664708205E+03  0.17451341794E+04  0.25956039402E+04  0.92779958463E+02 0.  0.
         11    1    3    3    0    0  0.10195953519E+04  0.18272448601E+03  0.88727924931E+03  0.13639015308E+04  0.00000000000E+00 0. -1.
        -11    1    3    3    0    0  0.87646870259E+03  0.11392259604E+03  0.85785493004E+03  0.12317024095E+04  0.00000000000E+00 0.  1.
         22    1    1    2    0    0 -0.18960640545E+04 -0.29664708205E+03 -0.12398456695E+04  0.22847922606E+04  0.00000000000E+00 0. -1.
<mgrwt>
<rscale>  0 0.48541684E+04</rscale>
<asrwt>0</asrwt>
<pdfrwt beam="1">  1        2 0.41428344E+00 0.48541684E+04</pdfrwt>
<pdfrwt beam="2">  1       -2 0.33654675E+00 0.48541684E+04</pdfrwt>
<totfact> 0.37321454E-02</totfact>
</mgrwt>
</event>
<event>
 6    1  0.1762360E-005  0.1858044E+04  0.7818608E-02  0.8676027E-01
          1   -1    0    0  501    0  0.00000000000E+00  0.00000000000E+00  0.18353792454E+04  0.18353792454E+04  0.00000000000E+00 0. -1.
         -1   -1    0    0    0  501 -0.00000000000E+00 -0.00000000000E+00 -0.47024722357E+03  0.47024722357E+03  0.00000000000E+00 0.  1.
         23    2    1    2    0    0  0.38084863859E+03 -0.61888077877E+03  0.13967064175E+04  0.15782640790E+04  0.10986165114E+03 0.  0.
         11    1    3    3    0    0  0.21745117650E+03 -0.26527383095E+03  0.71777107099E+03  0.79551903176E+03  0.00000000000E+00 0.  1.
        -11    1    3    3    0    0  0.16339746209E+03 -0.35360694783E+03  0.67893534655E+03  0.78274504723E+03  0.00000000000E+00 0. -1.
         22    1    1    2    0    0 -0.38084863859E+03  0.61888077877E+03 -0.31574395739E+02  0.72736238995E+03  0.00000000000E+00 0.  1.
<mgrwt>
<rscale>  0 0.18580441E+04</rscale>
<asrwt>0</asrwt>
<pdfrwt beam="1">  1        1 0.28236603E+00 0.18580441E+04</pdfrwt>
<pdfrwt beam="2">  1       -1 0.72345728E-01 0.18580441E+04</pdfrwt>
<totfact> 0.69753124E+00</totfact>
</mgrwt>
</event>
<event>
 6    1  0.1762360E-005  0.2337011E+04  0.7818608E-02  0.8463470E-01
         -2   -1    0    0    0  501 -0.00000000000E+00  0.00000000000E+00  0.58084570376E+03  0.58084570376E+03  0.00000000000E+00 0. -1.
          2   -1    0    0  501    0  0.00000000000E+00 -0.00000000000E+00 -0.23507188208E+04  0.23507188208E+04  0.00000000000E+00 0.  1.
         23    2    1    2    0    0  0.54683610494E+03  0.87200273235E+03 -0.19720348666E+03  0.10520145100E+04  0.91797730053E+02 0.  0.
         11    1    3    3    0    0  0.28232675920E+03  0.43635204687E+03 -0.53437788817E+02  0.52246253937E+03  0.00000000000E+00 0.  1.
        -11    1    3    3    0    0  0.26450934574E+03  0.43565068547E+03 -0.14376569784E+03  0.52955197065E+03  0.00000000000E+00 0. -1.
         22    1    1    2    0    0 -0.54683610494E+03 -0.87200273235E+03 -0.15726696304E+04  0.18795500146E+04  0.00000000000E+00 0.  1.
<mgrwt>
<rscale>  0 0.23370108E+04</rscale>
<asrwt>0</asrwt>
<pdfrwt beam="1">  1        2 0.36164906E+00 0.23370108E+04</pdfrwt>
<pdfrwt beam="2">  1       -2 0.89360876E-01 0.23370108E+04</pdfrwt>
<totfact> 0.41188200E+00</totfact>
</mgrwt>
</event>
<event>
 6    1  0.1762360E-005  0.4797879E+04  0.7818608E-02  0.7860466E-01
          2   -1    0    0  501    0  0.00000000000E+00  0.00000000000E+00  0.46047300945E+04  0.46047300945E+04  0.00000000000E+00 0. -1.
         -2   -1    0    0    0  501 -0.00000000000E+00 -0.00000000000E+00 -0.12497821701E+04  0.12497821701E+04  0.00000000000E+00 0.  1.
         23    2    1    2    0    0 -0.13724896481E+03  0.23626804467E+04  0.12059004392E+04  0.26577167964E+04  0.90368850797E+02 0.  0.
         13    1    3    3    0    0 -0.11094295469E+03  0.11380046127E+04  0.57548083348E+03  0.12800550877E+04  0.00000000000E+00 0.  1.
        -13    1    3    3    0    0 -0.26306010119E+02  0.12246758340E+04  0.63041960568E+03  0.13776617087E+04  0.00000000000E+00 0. -1.
         22    1    1    2    0    0  0.13724896481E+03 -0.23626804467E+04  0.21490474852E+04  0.31967954681E+04  0.00000000000E+00 0. -1.
<mgrwt>
<rscale>  0 0.47978785E+04</rscale>
<asrwt>0</asrwt>
<pdfrwt beam="1">  1        2 0.70842000E+00 0.47978785E+04</pdfrwt>
<pdfrwt beam="2">  1       -2 0.19227418E+00 0.47978785E+04</pdfrwt>
<totfact> 0.10585800E-02</totfact>
</mgrwt>
</event>
<event>
 6    1  0.1762360E-005  0.4614866E+03  0.7818608E-02  0.1024351E+00
          2   -1    0    0  501    0  0.00000000000E+00  0.00000000000E+00  0.18798037453E+04  0.18798037453E+04  0.00000000000E+00 0.  1.
         -2   -1    0    0    0  501 -0.00000000000E+00 -0.00000000000E+00 -0.28323414549E+02  0.28323414549E+02  0.00000000000E+00 0. -1.
         23    2    1    2    0    0 -0.17689311824E+03 -0.13153444778E+03  0.87211143240E+03  0.90425668748E+03  0.92245976046E+02 0.  0.
         13    1    3    3    0    0 -0.13241430541E+03 -0.11632173904E+03  0.79197632595E+03  0.81135121625E+03  0.00000000000E+00 0.  1.
        -13    1    3    3    0    0 -0.44478812834E+02 -0.15212708746E+02  0.80135106453E+02  0.92905471232E+02  0.00000000000E+00 0. -1.
         22    1    1    2    0    0  0.17689311824E+03  0.13153444778E+03  0.97936889834E+03  0.10038704724E+04  0.00000000000E+00 0.  1.
<mgrwt>
<rscale>  0 0.46148656E+03</rscale>
<asrwt>0</asrwt>
<pdfrwt beam="1">  1        2 0.28920048E+00 0.46148656E+03</pdfrwt>
<pdfrwt beam="2">  1       -2 0.43574499E-02 0.46148656E+03</pdfrwt>
<totfact> 0.20554571E+03</totfact>
</mgrwt>
</event>
<event>
 6    1  0.1762360E-005  0.4456268E+04  0.7818608E-02  0.7918338E-01
         -1   -1    0    0    0  501 -0.00000000000E+00  0.00000000000E+00  0.14090725854E+04  0.14090725854E+04  0.00000000000E+00 0.  1.
          1   -1    0    0  501    0  0.00000000000E+00 -0.00000000000E+00 -0.35232969091E+04  0.35232969091E+04  0.00000000000E+00 0. -1.
         23    2    1    2    0    0  0.62450432104E+02 -0.19042186901E+04 -0.23342493852E+04  0.30144644124E+04  0.91250341713E+02 0.  0.
         11    1    3    3    0    0  0.75155780936E+02 -0.11596414165E+04 -0.13835541699E+04  0.18068311341E+04  0.00000000000E+00 0.  1.
        -11    1    3    3    0    0 -0.12705348832E+02 -0.74457727367E+03 -0.95069521533E+03  0.12076332783E+04  0.00000000000E+00 0. -1.
         22    1    1    2    0    0 -0.62450432104E+02  0.19042186901E+04  0.22002506145E+03  0.19179050821E+04  0.00000000000E+00 0.  1.
<mgrwt>
<rscale>  0 0.44562680E+04</rscale>
<asrwt>0</asrwt>
<pdfrwt beam="1">  1        1 0.54204567E+00 0.44562680E+04</pdfrwt>
<pdfrwt beam="2">  1       -1 0.21678040E+00 0.44562680E+04</pdfrwt>
<totfact> 0.20862402E-02</totfact>
</mgrwt>
</event>
<event>
 6    1  0.1762360E-005  0.3513601E+04  0.7818608E-02  0.8110574E-01
         -2   -1    0    0    0  501 -0.00000000000E+00  0.00000000000E+00  0.19155122679E+04  0.19155122679E+04  0.00000000000E+00 0.  1.
          2   -1    0    0  501    0  0.00000000000E+00 -0.00000000000E+00 -0.16112385214E+04  0.16112385214E+04  0.00000000000E+00 0. -1.
         23    2    1    2    0    0  0.78299750053E+03 -0.35171576748E+03  0.16894878923E+04  0.18971473723E+04  0.89497190827E+02 0.  0.
         13    1    3    3    0    0  0.29654814157E+03 -0.11983808850E+03  0.54011373250E+03  0.62771395695E+03  0.00000000000E+00 0.  1.
        -13    1    3    3    0    0  0.48644935896E+03 -0.23187767898E+03  0.11493741598E+04  0.12694334153E+04  0.00000000000E+00 0. -1.
         22    1    1    2    0    0 -0.78299750053E+03  0.35171576748E+03 -0.13852141457E+04  0.16296034169E+04  0.00000000000E+00 0. -1.
<mgrwt>
<rscale>  0 0.35136005E+04</rscale>
<asrwt>0</asrwt>
<pdfrwt beam="1">  1        2 0.24788285E+00 0.35136005E+04</pdfrwt>
<pdfrwt beam="2">  1       -2 0.29469419E+00 0.35136005E+04</pdfrwt>
<totfact> 0.30898239E-01</totfact>
</mgrwt>
</event>
<event>
 6    1  0.1762360E-005  0.2767487E+03  0.7818608E-02  0.1097478E+00
         -1   -1    0    0    0  501 -0.00000000000E+00  0.00000000000E+00  0.16804944495E+03  0.16804944495E+03  0.00000000000E+00 0.  1.
          1   -1    0    0  501    0  0.00000000000E+00 -0.00000000000E+00 -0.11393942931E+03  0.11393942931E+03  0.00000000000E+00 0. -1.
         23    2    1    2    0    0  0.23671066438E+02  0.77331440904E+02 -0.55716189655E+02  0.14559874811E+03  0.10749060668E+03 0.  0.
         13    1    3    3    0    0 -0.21302056209E+02 -0.18737790784E+02 -0.98406716235E+01  0.30028673300E+02  0.00000000000E+00 0. -1.
        -13    1    3    3    0    0  0.44973122647E+02  0.96069231688E+02 -0.45875518031E+02  0.11557007481E+03  0.00000000000E+00 0.  1.
         22    1    1    2    0    0 -0.23671066438E+02 -0.77331440904E+02  0.10982620530E+03  0.13639012614E+03  0.00000000000E+00 0.  1.
<mgrwt>
<rscale>  0 0.27674868E+03</rscale>
<asrwt>0</asrwt>
<pdfrwt beam="1">  1        1 0.17529143E-01 0.27674868E+03</pdfrwt>
<pdfrwt beam="2">  1       -1 0.25853761E-01 0.27674868E+03</pdfrwt>
<totfact> 0.39707260E+03</totfact>
</mgrwt>
</event>
<event>
 6    1  0.1762360E-005  0.2116254E+04  0.7818608E-02  0.8554117E-01
          1   -1    0    0  501    0  0.00000000000E+00  0.00000000000E+00  0.76481683690E+03  0.76481683690E+03  0.00000000000E+00 0. -1.
         -1   -1    0    0    0  501 -0.00000000000E+00 -0.00000000000E+00 -0.14639231812E+04  0.14639231812E+04  0.00000000000E+00 0.  1.
         23    2    1    2    0    0  0.80438305258E+03 -0.49114707242E+02  0.36888230086E+03  0.89081472276E+03  0.89623482715E+02 0.  0.
         13    1    3    3    0    0  0.61181157964E+03 -0.13760996910E+02  0.31210422430E+03  0.68695838363E+03  0.00000000000E+00 0.  1.
        -13    1    3    3    0    0  0.19257147294E+03 -0.35353710332E+02  0.56778076556E+02  0.20385633913E+03  0.00000000000E+00 0. -1.
         22    1    1    2    0    0 -0.80438305258E+03  0.49114707242E+02 -0.10679886451E+04  0.13379252953E+04  0.00000000000E+00 0.  1.
<mgrwt>
<rscale>  0 0.21162543E+04</rscale>
<asrwt>0</asrwt>
<pdfrwt beam="1">  1        1 0.11766413E+00 0.21162543E+04</pdfrwt>
<pdfrwt beam="2">  1       -1 0.22521895E+00 0.21162543E+04</pdfrwt>
<totfact> 0.22150669E+00</totfact>
</mgrwt>
</event>
<event>
 6    1  0.1762360E-005  0.1755571E+04  0.7818608E-02  0.8730290E-01
         -2   -1    0    0    0  501 -0.00000000000E+00  0.00000000000E+00  0.30183330562E+03  0.30183330562E+03  0.00000000000E+00 0.  1.
          2   -1    0    0  501    0  0.00000000000E+00 -0.00000000000E+00 -0.25527575206E+04  0.25527575206E+04  0.00000000000E+00 0. -1.
         23    2    1    2    0    0 -0.67803670337E+03 -0.51005556052E+03 -0.77716331718E+03  0.11540433762E+04  0.89122649355E+02 0.  0.
         11    1    3    3    0    0 -0.51697973278E+03 -0.38220047809E+03 -0.63793286894E+03  0.90570613051E+03  0.00000000000E+00 0.  1.
        -11    1    3    3    0    0 -0.16105697060E+03 -0.12785508242E+03 -0.13923044823E+03  0.24833724568E+03  0.00000000000E+00 0. -1.
         22    1    1    2    0    0  0.67803670337E+03  0.51005556052E+03 -0.14737608978E+04  0.17005474500E+04  0.00000000000E+00 0.  1.
<mgrwt>
<rscale>  0 0.17555708E+04</rscale>
<asrwt>0</asrwt>
<pdfrwt beam="1">  1        2 0.39273194E+00 0.17555708E+04</pdfrwt>
<pdfrwt beam="2">  1       -2 0.46435891E-01 0.17555708E+04</pdfrwt>
<totfact> 0.13532616E+01</totfact>
</mgrwt>
</event>
<event>
 6    1  0.1762360E-005  0.1998026E+04  0.7818608E-02  0.8607544E-01
         -2   -1    0    0    0  501 -0.00000000000E+00  0.00000000000E+00  0.66027891613E+03  0.66027891613E+03  0.00000000000E+00 0.  1.
          2   -1    0    0  501    0  0.00000000000E+00 -0.00000000000E+00 -0.15115230822E+04  0.15115230822E+04  0.00000000000E+00 0. -1.
         23    2    1    2    0    0 -0.69941970502E+03 -0.69643354225E+03 -0.57929282509E+03  0.11480026360E+04  0.90123650887E+02 0.  0.
         13    1    3    3    0    0 -0.36573711376E+03 -0.37962258458E+03 -0.25864742581E+03  0.58717581182E+03  0.00000000000E+00 0. -1.
        -13    1    3    3    0    0 -0.33368259126E+03 -0.31681095767E+03 -0.32064539928E+03  0.56082682415E+03  0.00000000000E+00 0.  1.
         22    1    1    2    0    0  0.69941970502E+03  0.69643354225E+03 -0.27195134099E+03  0.10237993624E+04  0.00000000000E+00 0.  1.
<mgrwt>
<rscale>  0 0.19980258E+04</rscale>
<asrwt>0</asrwt>
<pdfrwt beam="1">  1        2 0.23254201E+00 0.19980258E+04</pdfrwt>
<pdfrwt beam="2">  1       -2 0.10158137E+00 0.19980258E+04</pdfrwt>
<totfact> 0.92470563E+00</totfact>
</mgrwt>
</event>
<event>
 6    1  0.1762360E-005  0.2012838E+04  0.7818608E-02  0.8600642E-01
          2   -1    0    0  501    0  0.00000000000E+00  0.00000000000E+00  0.23824140924E+04  0.23824140924E+04  0.00000000000E+00 0. -1.
         -2   -1    0    0    0  501 -0.00000000000E+00 -0.00000000000E+00 -0.42514811510E+03  0.42514811510E+03  0.00000000000E+00 0.  1.
         23    2    1    2    0    0  0.40474674341E+03  0.81128384753E+03  0.15835197334E+04  0.18269054569E+04  0.89707273867E+02 0.  0.
         13    1    3    3    0    0  0.20659413551E+03  0.41856829292E+03  0.90483906571E+03  0.10181425674E+04  0.00000000000E+00 0.  1.
        -13    1    3    3    0    0  0.19815260789E+03  0.39271555461E+03  0.67868066767E+03  0.80876288955E+03  0.00000000000E+00 0. -1.
         22    1    1    2    0    0 -0.40474674341E+03 -0.81128384753E+03  0.37374624388E+03  0.98065675054E+03  0.00000000000E+00 0.  1.
<mgrwt>
<rscale>  0 0.20128377E+04</rscale>
<asrwt>0</asrwt>
<pdfrwt beam="1">  1        2 0.36652523E+00 0.20128377E+04</pdfrwt>
<pdfrwt beam="2">  1       -2 0.65407404E-01 0.20128377E+04</pdfrwt>
<totfact> 0.81360902E+00</totfact>
</mgrwt>
</event>
<event>
 6    1  0.1762360E-005  0.6645540E+03  0.7818608E-02  0.9779846E-01
         -2   -1    0    0    0  501 -0.00000000000E+00  0.00000000000E+00  0.39910592692E+02  0.39910592692E+02  0.00000000000E+00 0.  1.
          2   -1    0    0  501    0  0.00000000000E+00 -0.00000000000E+00 -0.27663838469E+04  0.27663838469E+04  0.00000000000E+00 0. -1.
         23    2    1    2    0    0  0.30433897783E+03 -0.51625572972E+02 -0.18319465221E+04  0.18600040573E+04  0.91102250329E+02 0.  0.
         11    1    3    3    0    0  0.11599449534E+03 -0.29544378387E+02 -0.97537773913E+03  0.98269493091E+03  0.00000000000E+00 0.  1.
        -11    1    3    3    0    0  0.18834448249E+03 -0.22081194585E+02 -0.85656878301E+03  0.87730912640E+03  0.00000000000E+00 0. -1.
         22    1    1    2    0    0 -0.30433897783E+03  0.51625572972E+02 -0.89452673207E+03  0.94629038228E+03  0.00000000000E+00 0.  1.
<mgrwt>
<rscale>  0 0.66455404E+03</rscale>
<asrwt>0</asrwt>
<pdfrwt beam="1">  1        2 0.42559746E+00 0.66455404E+03</pdfrwt>
<pdfrwt beam="2">  1       -2 0.61400920E-02 0.66455404E+03</pdfrwt>
<totfact> 0.38305487E+02</totfact>
</mgrwt>
</event>
<event>
 6    1  0.1762360E-005  0.4951939E+04  0.7818608E-02  0.7835964E-01
          2   -1    0    0  501    0  0.00000000000E+00  0.00000000000E+00  0.39945844893E+04  0.39945844893E+04  0.00000000000E+00 0. -1.
         -2   -1    0    0    0  501 -0.00000000000E+00 -0.00000000000E+00 -0.15346839547E+04  0.15346839547E+04  0.00000000000E+00 0.  1.
         23    2    1    2    0    0  0.27837600573E+03  0.21153554164E+04 -0.17056794710E+03  0.21422954338E+04  0.90080869686E+02 0.  0.
         13    1    3    3    0    0  0.10354402489E+03  0.49621828805E+03 -0.34959568216E+02  0.50811034815E+03  0.00000000000E+00 0.  1.
        -13    1    3    3    0    0  0.17483198084E+03  0.16191371283E+04 -0.13560837888E+03  0.16341850857E+04  0.00000000000E+00 0. -1.
         22    1    1    2    0    0 -0.27837600573E+03 -0.21153554164E+04  0.26304684817E+04  0.33869730101E+04  0.00000000000E+00 0. -1.
<mgrwt>
<rscale>  0 0.49519389E+04</rscale>
<asrwt>0</asrwt>
<pdfrwt beam="1">  1        2 0.61455145E+00 0.49519389E+04</pdfrwt>
<pdfrwt beam="2">  1       -2 0.23610523E+00 0.49519389E+04</pdfrwt>
<totfact> 0.19689270E-02</totfact>
</mgrwt>
</event>
<event>
 6    1  0.1762360E-005  0.3023155E+04  0.7818608E-02  0.8237150E-01
         -2   -1    0    0    0  501 -0.00000000000E+00  0.00000000000E+00  0.57296416401E+03  0.57296416401E+03  0.00000000000E+00 0. -1.
          2   -1    0    0  501    0  0.00000000000E+00 -0.00000000000E+00 -0.39878004858E+04  0.39878004858E+04  0.00000000000E+00 0.  1.
         23    2    1    2    0    0 -0.85872335984E+03  0.79452085760E+02  0.16081222653E+03  0.88258833760E+03  0.96866706371E+02 0.  0.
         11    1    3    3    0    0 -0.63567894566E+03  0.51630593662E+02  0.75735209158E+02  0.64225326940E+03  0.00000000000E+00 0.  1.
        -11    1    3    3    0    0 -0.22304441418E+03  0.27821492098E+02  0.85077017374E+02  0.24033506819E+03  0.00000000000E+00 0. -1.
         22    1    1    2    0    0  0.85872335984E+03 -0.79452085760E+02 -0.35756485484E+04  0.36781763123E+04  0.00000000000E+00 0.  1.
<mgrwt>
<rscale>  0 0.30231552E+04</rscale>
<asrwt>0</asrwt>
<pdfrwt beam="1">  1        2 0.61350778E+00 0.30231552E+04</pdfrwt>
<pdfrwt beam="2">  1       -2 0.88148331E-01 0.30231552E+04</pdfrwt>
<totfact> 0.33127077E-01</totfact>
</mgrwt>
</event>
<event>
 6    1  0.1762360E-005  0.2251733E+04  0.7818608E-02  0.8497199E-01
         -1   -1    0    0    0  501 -0.00000000000E+00  0.00000000000E+00  0.95604423031E+03  0.95604423031E+03  0.00000000000E+00 0.  1.
          1   -1    0    0  501    0  0.00000000000E+00 -0.00000000000E+00 -0.13258544502E+04  0.13258544502E+04  0.00000000000E+00 0. -1.
         23    2    1    2    0    0 -0.27829127914E+03  0.79816612447E+03 -0.93614606064E+03  0.12644255934E+04  0.88811238922E+02 0.  0.
         13    1    3    3    0    0 -0.18614205213E+03  0.41031836708E+03 -0.47045892766E+03  0.65141509696E+03  0.00000000000E+00 0. -1.
        -13    1    3    3    0    0 -0.92149227013E+02  0.38784775739E+03 -0.46568713298E+03  0.61301049647E+03  0.00000000000E+00 0.  1.
         22    1    1    2    0    0  0.27829127914E+03 -0.79816612447E+03  0.56633584079E+03  0.10174730870E+04  0.00000000000E+00 0.  1.
<mgrwt>
<rscale>  0 0.22517331E+04</rscale>
<asrwt>0</asrwt>
<pdfrwt beam="1">  1        1 0.20397761E+00 0.22517331E+04</pdfrwt>
<pdfrwt beam="2">  1       -1 0.14708373E+00 0.22517331E+04</pdfrwt>
<totfact> 0.28943620E+00</totfact>
</mgrwt>
</event>
<event>
 6    1  0.1762360E-005  0.1338802E+04  0.7818608E-02  0.8999348E-01
         -1   -1    0    0    0  501 -0.00000000000E+00  0.00000000000E+00  0.58020270911E+03  0.58020270911E+03  0.00000000000E+00 0.  1.
          1   -1    0    0  501    0  0.00000000000E+00 -0.00000000000E+00 -0.77231236530E+03  0.77231236530E+03  0.00000000000E+00 0. -1.
         23    2    1    2    0    0  0.63872717056E+03 -0.16088459065E+03 -0.19931299712E+03  0.69379803498E+03  0.88169113647E+02 0.  0.
         13    1    3    3    0    0  0.30901799043E+03 -0.96455873401E+02 -0.13981577676E+03  0.35262487909E+03  0.00000000000E+00 0. -1.
        -13    1    3    3    0    0  0.32970918013E+03 -0.64428717249E+02 -0.59497220357E+02  0.34117315589E+03  0.00000000000E+00 0.  1.
         22    1    1    2    0    0 -0.63872717056E+03  0.16088459065E+03  0.72033409358E+01  0.65871703943E+03  0.00000000000E+00 0. -1.
<mgrwt>
<rscale>  0 0.13388020E+04</rscale>
<asrwt>0</asrwt>
<pdfrwt beam="1">  1        1 0.11881729E+00 0.13388020E+04</pdfrwt>
<pdfrwt beam="2">  1       -1 0.89261955E-01 0.13388020E+04</pdfrwt>
<totfact> 0.28197669E+01</totfact>
</mgrwt>
</event>
<event>
 6    1  0.1762360E-005  0.1672774E+04  0.7818608E-02  0.8777046E-01
         -2   -1    0    0    0  501 -0.00000000000E+00  0.00000000000E+00  0.13648889760E+04  0.13648889760E+04  0.00000000000E+00 0.  1.
          2   -1    0    0  501    0  0.00000000000E+00 -0.00000000000E+00 -0.51252757209E+03  0.51252757209E+03  0.00000000000E+00 0. -1.
         23    2    1    2    0    0 -0.78295568525E+03  0.49745941867E+02  0.10962856959E+03  0.79707108161E+03  0.88372066107E+02 0.  0.
         11    1    3    3    0    0 -0.41491118439E+03  0.40837124394E+02  0.10024913634E+03  0.42879931320E+03  0.00000000000E+00 0.  1.
        -11    1    3    3    0    0 -0.36804450086E+03  0.89088174725E+01  0.93794332578E+01  0.36827176841E+03  0.00000000000E+00 0. -1.
         22    1    1    2    0    0  0.78295568525E+03 -0.49745941867E+02  0.74273283433E+03  0.10803454665E+04  0.00000000000E+00 0.  1.
<mgrwt>
<rscale>  0 0.16727740E+04</rscale>
<asrwt>0</asrwt>
<pdfrwt beam="1">  1        2 0.78850396E-01 0.16727740E+04</pdfrwt>
<pdfrwt beam="2">  1       -2 0.20998292E+00 0.16727740E+04</pdfrwt>
<totfact> 0.65286393E+00</totfact>
</mgrwt>
</event>
<event>
 6    1  0.1762360E-005  0.1233719E+04  0.7818608E-02  0.9083844E-01
         -2   -1    0    0    0  501 -0.00000000000E+00  0.00000000000E+00  0.10014745396E+03  0.10014745396E+03  0.00000000000E+00 0. -1.
          2   -1    0    0  501    0  0.00000000000E+00 -0.00000000000E+00 -0.37995536841E+04  0.37995536841E+04  0.00000000000E+00 0.  1.
         23    2    1    2    0    0 -0.14254565685E+03 -0.70172729578E+02 -0.37328548570E+04  0.37373364655E+04  0.90746881959E+02 0.  0.
         13    1    3    3    0    0 -0.14342459769E+03 -0.70416528245E+02 -0.28462652478E+04  0.28507463871E+04  0.00000000000E+00 0. -1.
        -13    1    3    3    0    0  0.87894084211E+00  0.24379866666E+00 -0.88658960920E+03  0.88659007840E+03  0.00000000000E+00 0.  1.
         22    1    1    2    0    0  0.14254565685E+03  0.70172729578E+02  0.33448626850E+02  0.16236467258E+03  0.00000000000E+00 0. -1.
<mgrwt>
<rscale>  0 0.12337190E+04</rscale>
<asrwt>0</asrwt>
<pdfrwt beam="1">  1        2 0.58454673E+00 0.12337190E+04</pdfrwt>
<pdfrwt beam="2">  1       -2 0.15407300E-01 0.12337190E+04</pdfrwt>
<totfact> 0.16762745E+01</totfact>
</mgrwt>
</event>
<event>
 6    1  0.1762360E-005  0.3502612E+04  0.7818608E-02  0.8113171E-01
         -2   -1    0    0    0  501 -0.00000000000E+00  0.00000000000E+00  0.34165327325E+04  0.34165327325E+04  0.00000000000E+00 0.  1.
          2   -1    0    0  501    0  0.00000000000E+00 -0.00000000000E+00 -0.89771476033E+03  0.89771476033E+03  0.00000000000E+00 0. -1.
         23    2    1    2    0    0 -0.12516298897E+04 -0.21402915721E+03 -0.22315301213E+03  0.12925276614E+04  0.91894656233E+02 0.  0.
         13    1    3    3    0    0 -0.44215906079E+03 -0.11840560356E+03 -0.67241523276E+02  0.46265099637E+03  0.00000000000E+00 0. -1.
        -13    1    3    3    0    0 -0.80947082888E+03 -0.95623553653E+02 -0.15591148886E+03  0.82987666504E+03  0.00000000000E+00 0.  1.
         22    1    1    2    0    0  0.12516298897E+04  0.21402915721E+03  0.27419709843E+04  0.30217198315E+04  0.00000000000E+00 0.  1.
<mgrwt>
<rscale>  0 0.35026115E+04</rscale>
<asrwt>0</asrwt>
<pdfrwt beam="1">  1        2 0.13810996E+00 0.35026115E+04</pdfrwt>
<pdfrwt beam="2">  1       -2 0.52562041E+00 0.35026115E+04</pdfrwt>
<totfact> 0.27960635E-02</totfact>
</mgrwt>
</event>
<event>
 6    1  0.1762360E-005  0.1007938E+04  0.7818608E-02  0.9299881E-01
          2   -1    0    0  501    0  0.00000000000E+00  0.00000000000E+00  0.31475056738E+03  0.31475056738E+03  0.00000000000E+00 0. -1.
         -2   -1    0    0    0  501 -0.00000000000E+00 -0.00000000000E+00 -0.80693992856E+03  0.80693992856E+03  0.00000000000E+00 0.  1.
         23    2    1    2    0    0  0.14310088271E+03  0.45919409281E+03 -0.39933440552E+03  0.63183427183E+03  0.91703337554E+02 0.  0.
         11    1    3    3    0    0  0.14906651913E+02  0.15460681294E+03 -0.91884161302E+02  0.18046654531E+03  0.00000000000E+00 0. -1.
        -11    1    3    3    0    0  0.12819423080E+03  0.30458727987E+03 -0.30745024422E+03  0.45136772651E+03  0.00000000000E+00 0.  1.
         22    1    1    2    0    0 -0.14310088271E+03 -0.45919409281E+03 -0.92854955657E+02  0.48985622410E+03  0.00000000000E+00 0. -1.
<mgrwt>
<rscale>  0 0.10079381E+04</rscale>
<asrwt>0</asrwt>
<pdfrwt beam="1">  1        2 0.48423165E-01 0.10079381E+04</pdfrwt>
<pdfrwt beam="2">  1       -2 0.12414460E+00 0.10079381E+04</pdfrwt>
<totfact> 0.50633625E+01</totfact>
</mgrwt>
</event>
<event>
 6    1  0.1762360E-005  0.2965558E+04  0.7818608E-02  0.8253635E-01
         -2   -1    0    0    0  501 -0.00000000000E+00  0.00000000000E+00  0.10296210994E+04  0.10296210994E+04  0.00000000000E+00 0.  1.
          2   -1    0    0  501    0  0.00000000000E+00 -0.00000000000E+00 -0.21353809559E+04  0.21353809559E+04  0.00000000000E+00 0. -1.
         23    2    1    2    0    0 -0.11400884150E+04 -0.49723041128E+03  0.30525164202E+03  0.12840466797E+04  0.92507485898E+02 0.  0.
         11    1    3    3    0    0 -0.65216354748E+03 -0.30946700429E+03  0.13629594595E+03  0.73461806695E+03  0.00000000000E+00 0. -1.
        -11    1    3    3    0    0 -0.48792486748E+03 -0.18776340699E+03  0.16895569607E+03  0.54942861278E+03  0.00000000000E+00 0.  1.
         22    1    1    2    0    0  0.11400884150E+04  0.49723041128E+03 -0.14110114986E+04  0.18809553756E+04  0.00000000000E+00 0. -1.
<mgrwt>
<rscale>  0 0.29655578E+04</rscale>
<asrwt>0</asrwt>
<pdfrwt beam="1">  1        2 0.32852014E+00 0.29655578E+04</pdfrwt>
<pdfrwt beam="2">  1       -2 0.15840325E+00 0.29655578E+04</pdfrwt>
<totfact> 0.12475208E+00</totfact>
</mgrwt>
</event>
<event>
 6    1  0.1762360E-005  0.1987508E+04  0.7818608E-02  0.8612483E-01
         -2   -1    0    0    0  501 -0.00000000000E+00  0.00000000000E+00  0.11668059464E+04  0.11668059464E+04  0.00000000000E+00 0.  1.
          2   -1    0    0  501    0  0.00000000000E+00 -0.00000000000E+00 -0.84636788874E+03  0.84636788874E+03  0.00000000000E+00 0. -1.
         23    2    1    2    0    0 -0.53384424458E+03 -0.10694485701E+03  0.10002507779E+04  0.11422133226E+04  0.87879323948E+02 0.  0.
         11    1    3    3    0    0 -0.37576888786E+03 -0.56246293847E+02  0.61780128104E+03  0.72528913236E+03  0.00000000000E+00 0.  1.
        -11    1    3    3    0    0 -0.15807535671E+03 -0.50698563159E+02  0.38244949691E+03  0.41692419022E+03  0.00000000000E+00 0. -1.
         22    1    1    2    0    0  0.53384424458E+03  0.10694485701E+03 -0.67981272025E+03  0.87096051260E+03  0.00000000000E+00 0. -1.
<mgrwt>
<rscale>  0 0.19875081E+04</rscale>
<asrwt>0</asrwt>
<pdfrwt beam="1">  1        2 0.13021044E+00 0.19875081E+04</pdfrwt>
<pdfrwt beam="2">  1       -2 0.17950861E+00 0.19875081E+04</pdfrwt>
<totfact> 0.54235985E+00</totfact>
</mgrwt>
</event>
<event>
 6    1  0.1762360E-005  0.2051467E+04  0.7818608E-02  0.8582929E-01
          2   -1    0    0  501    0  0.00000000000E+00  0.00000000000E+00  0.13423586312E+04  0.13423586312E+04  0.00000000000E+00 0.  1.
         -2   -1    0    0    0  501 -0.00000000000E+00 -0.00000000000E+00 -0.78379143957E+03  0.78379143957E+03  0.00000000000E+00 0. -1.
         23    2    1    2    0    0 -0.66839514622E+03 -0.73689374371E+03  0.29551858709E+02  0.99937516711E+03  0.90071922831E+02 0.  0.
         11    1    3    3    0    0 -0.20814337834E+03 -0.21167996880E+03  0.48341898533E+02  0.30078067473E+03  0.00000000000E+00 0. -1.
        -11    1    3    3    0    0 -0.46025176788E+03 -0.52521377490E+03 -0.18790039824E+02  0.69859449238E+03  0.00000000000E+00 0.  1.
         22    1    1    2    0    0  0.66839514622E+03  0.73689374371E+03  0.52901533287E+03  0.11267749036E+04  0.00000000000E+00 0.  1.
<mgrwt>
<rscale>  0 0.20514670E+04</rscale>
<asrwt>0</asrwt>
<pdfrwt beam="1">  1        2 0.20651671E+00 0.20514670E+04</pdfrwt>
<pdfrwt beam="2">  1       -2 0.12058330E+00 0.20514670E+04</pdfrwt>
<totfact> 0.75831353E+00</totfact>
</mgrwt>
</event>
<event>
 6    1  0.1762360E-005  0.2899906E+04  0.7818608E-02  0.8272906E-01
          2   -1    0    0  501    0  0.00000000000E+00  0.00000000000E+00  0.31649571300E+04  0.31649571300E+04  0.00000000000E+00 0.  1.
         -2   -1    0    0    0  501 -0.00000000000E+00 -0.00000000000E+00 -0.66426279072E+03  0.66426279072E+03  0.00000000000E+00 0. -1.
         23    2    1    2    0    0  0.56207445219E+03  0.13030139261E+04  0.86807822110E+03  0.16660721286E+04  0.91997600069E+02 0.  0.
         13    1    3    3    0    0  0.16418492639E+03  0.38097621695E+03  0.30357153244E+03  0.51405762638E+03  0.00000000000E+00 0.  1.
        -13    1    3    3    0    0  0.39788952580E+03  0.92203770910E+03  0.56450668866E+03  0.11520145022E+04  0.00000000000E+00 0. -1.
         22    1    1    2    0    0 -0.56207445219E+03 -0.13030139261E+04  0.16326161182E+04  0.21631477921E+04  0.00000000000E+00 0.  1.
<mgrwt>
<rscale>  0 0.28999057E+04</rscale>
<asrwt>0</asrwt>
<pdfrwt beam="1">  1        2 0.48691647E+00 0.28999057E+04</pdfrwt>
<pdfrwt beam="2">  1       -2 0.10219428E+00 0.28999057E+04</pdfrwt>
<totfact> 0.92467188E-01</totfact>
</mgrwt>
</event>
<event>
 6    1  0.1762360E-005  0.3828827E+04  0.7818608E-02  0.8039997E-01
         -2   -1    0    0    0  501 -0.00000000000E+00  0.00000000000E+00  0.17206249075E+04  0.17206249075E+04  0.00000000000E+00 0.  1.
          2   -1    0    0  501    0  0.00000000000E+00 -0.00000000000E+00 -0.21300274398E+04  0.21300274398E+04  0.00000000000E+00 0. -1.
         23    2    1    2    0    0  0.15002727275E+04 -0.37557912817E+02  0.98841142145E+03  0.17997713895E+04  0.99955304101E+02 0.  0.
         13    1    3    3    0    0  0.29322795638E+03 -0.47092088932E+02  0.19507136659E+03  0.35532117486E+03  0.00000000000E+00 0. -1.
        -13    1    3    3    0    0  0.12070447711E+04  0.95341761152E+01  0.79334005486E+03  0.14444502147E+04  0.00000000000E+00 0.  1.
         22    1    1    2    0    0 -0.15002727275E+04  0.37557912817E+02 -0.13978139538E+04  0.20508809578E+04  0.00000000000E+00 0. -1.
<mgrwt>
<rscale>  0 0.38288266E+04</rscale>
<asrwt>0</asrwt>
<pdfrwt beam="1">  1        2 0.32769653E+00 0.38288266E+04</pdfrwt>
<pdfrwt beam="2">  1       -2 0.26471152E+00 0.38288266E+04</pdfrwt>
<totfact> 0.23610929E-01</totfact>
</mgrwt>
</event>
<event>
 6    1  0.1762360E-005  0.1534952E+04  0.7818608E-02  0.8861538E-01
         -3   -1    0    0    0  501 -0.00000000000E+00  0.00000000000E+00  0.54745006905E+03  0.54745006905E+03  0.00000000000E+00 0.  1.
          3   -1    0    0  501    0  0.00000000000E+00 -0.00000000000E+00 -0.10759320116E+04  0.10759320116E+04  0.00000000000E+00 0. -1.
         23    2    1    2    0    0 -0.57985050116E+03  0.78303758924E+02 -0.78597105466E+03  0.98411787457E+03  0.91539116927E+02 0.  0.
         11    1    3    3    0    0 -0.11901366183E+03  0.24971024547E+02 -0.22870333305E+03  0.25902320035E+03  0.00000000000E+00 0. -1.
        -11    1    3    3    0    0 -0.46083683933E+03  0.53332734377E+02 -0.55726772161E+03  0.72509467423E+03  0.00000000000E+00 0.  1.
         22    1    1    2    0    0  0.57985050116E+03 -0.78303758924E+02  0.25748911209E+03  0.63926420610E+03  0.00000000000E+00 0.  1.
<mgrwt>
<rscale>  0 0.15349515E+04</rscale>
<asrwt>0</asrwt>
<pdfrwt beam="1">  1        3 0.16552800E+00 0.15349515E+04</pdfrwt>
<pdfrwt beam="2">  1       -3 0.84223088E-01 0.15349515E+04</pdfrwt>
<totfact> 0.81612751E-01</totfact>
</mgrwt>
</event>
<event>
 6    1  0.1762360E-005  0.1550430E+04  0.7818608E-02  0.8851593E-01
          2   -1    0    0  501    0  0.00000000000E+00  0.00000000000E+00  0.26476561815E+04  0.26476561815E+04  0.00000000000E+00 0. -1.
         -2   -1    0    0    0  501 -0.00000000000E+00 -0.00000000000E+00 -0.22697748552E+03  0.22697748552E+03  0.00000000000E+00 0.  1.
         23    2    1    2    0    0  0.54218055407E+03 -0.29600382699E+03  0.35441165548E+03  0.71800725027E+03  0.91371609944E+02 0.  0.
         13    1    3    3    0    0  0.13818401186E+03 -0.47026154913E+02  0.50395355300E+02  0.15442141113E+03  0.00000000000E+00 0.  1.
        -13    1    3    3    0    0  0.40399654221E+03 -0.24897767207E+03  0.30401630018E+03  0.56358583914E+03  0.00000000000E+00 0. -1.
         22    1    1    2    0    0 -0.54218055407E+03  0.29600382699E+03  0.20662670405E+04  0.21566264168E+04  0.00000000000E+00 0. -1.
<mgrwt>
<rscale>  0 0.15504301E+04</rscale>
<asrwt>0</asrwt>
<pdfrwt beam="1">  1        2 0.40733170E+00 0.15504301E+04</pdfrwt>
<pdfrwt beam="2">  1       -2 0.34919615E-01 0.15504301E+04</pdfrwt>
<totfact> 0.21200362E+01</totfact>
</mgrwt>
</event>
<event>
 6    1  0.1762360E-005  0.3153205E+04  0.7818608E-02  0.8201286E-01
          2   -1    0    0  501    0  0.00000000000E+00  0.00000000000E+00  0.19798735978E+04  0.19798735978E+04  0.00000000000E+00 0. -1.
         -2   -1    0    0    0  501 -0.00000000000E+00 -0.00000000000E+00 -0.12554719776E+04  0.12554719776E+04  0.00000000000E+00 0.  1.
         23    2    1    2    0    0  0.78198812272E+03 -0.30869758321E+03  0.17294732534E+04  0.19250140868E+04  0.88328240958E+02 0.  0.
         11    1    3    3    0    0  0.46076658374E+03 -0.21488381133E+03  0.11113035760E+04  0.12220787761E+04  0.00000000000E+00 0.  1.
        -11    1    3    3    0    0  0.32122153899E+03 -0.93813771886E+02  0.61816967745E+03  0.70293531069E+03  0.00000000000E+00 0. -1.
         22    1    1    2    0    0 -0.78198812272E+03  0.30869758321E+03 -0.10050716332E+04  0.13103314886E+04  0.00000000000E+00 0.  1.
<mgrwt>
<rscale>  0 0.31532052E+04</rscale>
<asrwt>0</asrwt>
<pdfrwt beam="1">  1        2 0.30459594E+00 0.31532052E+04</pdfrwt>
<pdfrwt beam="2">  1       -2 0.19314954E+00 0.31532052E+04</pdfrwt>
<totfact> 0.85575507E-01</totfact>
</mgrwt>
</event>
<event>
 6    1  0.1762360E-005  0.2373298E+04  0.7818608E-02  0.8449569E-01
         -1   -1    0    0    0  501 -0.00000000000E+00  0.00000000000E+00  0.36570517274E+03  0.36570517274E+03  0.00000000000E+00 0.  1.
          1   -1    0    0  501    0  0.00000000000E+00 -0.00000000000E+00 -0.38504666249E+04  0.38504666249E+04  0.00000000000E+00 0. -1.
         23    2    1    2    0    0 -0.65578032494E+03 -0.90913792277E+03 -0.10626663713E+04  0.15472536314E+04  0.90301639233E+02 0.  0.
         11    1    3    3    0    0 -0.28206999721E+03 -0.34425097454E+03 -0.46951520858E+03  0.64692870387E+03  0.00000000000E+00 0. -1.
        -11    1    3    3    0    0 -0.37371032773E+03 -0.56488694823E+03 -0.59315116267E+03  0.90032492752E+03  0.00000000000E+00 0.  1.
         22    1    1    2    0    0  0.65578032494E+03  0.90913792277E+03 -0.24220950809E+04  0.26689181663E+04  0.00000000000E+00 0. -1.
<mgrwt>
<rscale>  0 0.23732978E+04</rscale>
<asrwt>0</asrwt>
<pdfrwt beam="1">  1        1 0.59237950E+00 0.23732978E+04</pdfrwt>
<pdfrwt beam="2">  1       -1 0.56262333E-01 0.23732978E+04</pdfrwt>
<totfact> 0.37211402E-01</totfact>
</mgrwt>
</event>
<event>
 6    1  0.1762360E-005  0.8602113E+03  0.7818608E-02  0.9476733E-01
         -2   -1    0    0    0  501 -0.00000000000E+00  0.00000000000E+00  0.12070635481E+04  0.12070635481E+04  0.00000000000E+00 0. -1.
          2   -1    0    0  501    0  0.00000000000E+00 -0.00000000000E+00 -0.15325695083E+03  0.15325695083E+03  0.00000000000E+00 0.  1.
         23    2    1    2    0    0  0.38158664575E+03  0.12420082195E+03  0.75539210271E+03  0.86023508327E+03  0.91394514372E+02 0.  0.
         11    1    3    3    0    0  0.22808182084E+03  0.10496481281E+03  0.53476142127E+03  0.59076958842E+03  0.00000000000E+00 0.  1.
        -11    1    3    3    0    0  0.15350482492E+03  0.19236009139E+02  0.22063068145E+03  0.26946549485E+03  0.00000000000E+00 0. -1.
         22    1    1    2    0    0 -0.38158664575E+03 -0.12420082195E+03  0.29841449454E+03  0.50008541565E+03  0.00000000000E+00 0.  1.
<mgrwt>
<rscale>  0 0.86021132E+03</rscale>
<asrwt>0</asrwt>
<pdfrwt beam="1">  1        2 0.23577993E-01 0.86021132E+03</pdfrwt>
<pdfrwt beam="2">  1       -2 0.18570208E+00 0.86021132E+03</pdfrwt>
<totfact> 0.39170724E+01</totfact>
</mgrwt>
</event>
<event>
 6    1  0.1762360E-005  0.2185031E+04  0.7818608E-02  0.8524684E-01
         -2   -1    0    0    0  501 -0.00000000000E+00  0.00000000000E+00  0.21895372632E+04  0.21895372632E+04  0.00000000000E+00 0.  1.
          2   -1    0    0  501    0  0.00000000000E+00 -0.00000000000E+00 -0.54513356390E+03  0.54513356390E+03  0.00000000000E+00 0. -1.
         23    2    1    2    0    0  0.76850538532E+03  0.66348423683E+03  0.32480753633E+03  0.10696945831E+04  0.89076964515E+02 0.  0.
         11    1    3    3    0    0  0.17300790580E+03  0.16789935905E+03  0.11464359405E+03  0.26695520953E+03  0.00000000000E+00 0.  1.
        -11    1    3    3    0    0  0.59549747952E+03  0.49558487778E+03  0.21016394228E+03  0.80273937354E+03  0.00000000000E+00 0. -1.
         22    1    1    2    0    0 -0.76850538532E+03 -0.66348423683E+03  0.13195961629E+04  0.16649762440E+04  0.00000000000E+00 0.  1.
<mgrwt>
<rscale>  0 0.21850311E+04</rscale>
<asrwt>0</asrwt>
<pdfrwt beam="1">  1        2 0.83866703E-01 0.21850311E+04</pdfrwt>
<pdfrwt beam="2">  1       -2 0.33685188E+00 0.21850311E+04</pdfrwt>
<totfact> 0.95918235E-01</totfact>
</mgrwt>
</event>
<event>
 6    1  0.1762360E-005  0.5676996E+04  0.7818608E-02  0.7731793E-01
         -2   -1    0    0    0  501 -0.00000000000E+00  0.00000000000E+00  0.24579137324E+04  0.24579137324E+04  0.00000000000E+00 0.  1.
          2   -1    0    0  501    0  0.00000000000E+00 -0.00000000000E+00 -0.32780123029E+04  0.32780123029E+04  0.00000000000E+00 0. -1.
         23    2    1    2    0    0  0.26305342097E+04 -0.10338505517E+04 -0.66664108393E+03  0.29053595917E+04  0.90259797017E+02 0.  0.
         13    1    3    3    0    0  0.12076083674E+04 -0.52298699898E+03 -0.31019041026E+03  0.13520545332E+04  0.00000000000E+00 0. -1.
        -13    1    3    3    0    0  0.14229258423E+04 -0.51086355274E+03 -0.35645067367E+03  0.15533050586E+04  0.00000000000E+00 0.  1.
         22    1    1    2    0    0 -0.26305342097E+04  0.10338505517E+04 -0.15345748657E+03  0.28305664436E+04  0.00000000000E+00 0.  1.
<mgrwt>
<rscale>  0 0.56769962E+04</rscale>
<asrwt>0</asrwt>
<pdfrwt beam="1">  1        2 0.50430958E+00 0.56769962E+04</pdfrwt>
<pdfrwt beam="2">  1       -2 0.37814058E+00 0.56769962E+04</pdfrwt>
<totfact> 0.81775870E-03</totfact>
</mgrwt>
</event>
<event>
 6    1  0.1762360E-005  0.1247760E+04  0.7818608E-02  0.9072050E-01
          1   -1    0    0  501    0  0.00000000000E+00  0.00000000000E+00  0.25346129605E+04  0.25346129605E+04  0.00000000000E+00 0. -1.
         -1   -1    0    0    0  501 -0.00000000000E+00 -0.00000000000E+00 -0.15356434422E+03  0.15356434422E+03  0.00000000000E+00 0.  1.
         23    2    1    2    0    0 -0.84971296157E+02 -0.52779756348E+03  0.18757933511E+04  0.19526004752E+04  0.90870954690E+02 0.  0.
         11    1    3    3    0    0 -0.21751865611E+02 -0.12956349152E+03  0.61588683234E+03  0.62974314783E+03  0.00000000000E+00 0.  1.
        -11    1    3    3    0    0 -0.63219430547E+02 -0.39823407196E+03  0.12599065188E+04  0.13228573273E+04  0.00000000000E+00 0. -1.
         22    1    1    2    0    0  0.84971296157E+02  0.52779756348E+03  0.50525526519E+03  0.73557682956E+03  0.00000000000E+00 0.  1.
<mgrwt>
<rscale>  0 0.12477599E+04</rscale>
<asrwt>0</asrwt>
<pdfrwt beam="1">  1        1 0.38994042E+00 0.12477599E+04</pdfrwt>
<pdfrwt beam="2">  1       -1 0.23625286E-01 0.12477599E+04</pdfrwt>
<totfact> 0.19621793E+01</totfact>
</mgrwt>
</event>
<event>
 6    1  0.1762360E-005  0.1864345E+04  0.7818608E-02  0.8672811E-01
         -1   -1    0    0    0  501 -0.00000000000E+00  0.00000000000E+00  0.26917564564E+03  0.26917564564E+03  0.00000000000E+00 0.  1.
          1   -1    0    0  501    0  0.00000000000E+00 -0.00000000000E+00 -0.32281724647E+04  0.32281724647E+04  0.00000000000E+00 0. -1.
         23    2    1    2    0    0  0.18932637036E+03  0.91027254346E+03 -0.14522157560E+04  0.17268030672E+04  0.92074170685E+02 0.  0.
         13    1    3    3    0    0  0.77591105576E+02  0.51716421048E+03 -0.74993723071E+03  0.91426749383E+03  0.00000000000E+00 0. -1.
        -13    1    3    3    0    0  0.11173526478E+03  0.39310833298E+03 -0.70227852532E+03  0.81253557337E+03  0.00000000000E+00 0.  1.
         22    1    1    2    0    0 -0.18932637036E+03 -0.91027254346E+03 -0.15067810631E+04  0.17705450432E+04  0.00000000000E+00 0. -1.
<mgrwt>
<rscale>  0 0.18643448E+04</rscale>
<asrwt>0</asrwt>
<pdfrwt beam="1">  1        1 0.49664193E+00 0.18643448E+04</pdfrwt>
<pdfrwt beam="2">  1       -1 0.41411637E-01 0.18643448E+04</pdfrwt>
<totfact> 0.21795913E+00</totfact>
</mgrwt>
</event>
<event>
 6    1  0.1762360E-005  0.3213914E+04  0.7818608E-02  0.8185152E-01
          3   -1    0    0  501    0  0.00000000000E+00  0.00000000000E+00  0.83600740879E+03  0.83600740879E+03  0.00000000000E+00 0. -1.
         -3   -1    0    0    0  501 -0.00000000000E+00 -0.00000000000E+00 -0.30888615214E+04  0.30888615214E+04  0.00000000000E+00 0.  1.
         23    2    1    2    0    0  0.13072933499E+04 -0.44837449046E+03 -0.21253555906E+04  0.25369527009E+04  0.94535887875E+02 0.  0.
         13    1    3    3    0    0  0.93310640148E+03 -0.28051097500E+03 -0.14558016577E+04  0.17517797892E+04  0.00000000000E+00 0.  1.
        -13    1    3    3    0    0  0.37418694841E+03 -0.16786351545E+03 -0.66955393291E+03  0.78517291170E+03  0.00000000000E+00 0. -1.
         22    1    1    2    0    0 -0.13072933499E+04  0.44837449046E+03 -0.12749852208E+03  0.13879162293E+04  0.00000000000E+00 0. -1.
<mgrwt>
<rscale>  0 0.32139142E+04</rscale>
<asrwt>0</asrwt>
<pdfrwt beam="1">  1        3 0.12861653E+00 0.32139142E+04</pdfrwt>
<pdfrwt beam="2">  1       -3 0.47520946E+00 0.32139142E+04</pdfrwt>
<totfact> 0.42830588E-03</totfact>
</mgrwt>
</event>
<event>
 6    1  0.1762360E-005  0.1589419E+04  0.7818608E-02  0.8827075E-01
         -2   -1    0    0    0  501 -0.00000000000E+00  0.00000000000E+00  0.90171326878E+03  0.90171326878E+03  0.00000000000E+00 0. -1.
          2   -1    0    0  501    0  0.00000000000E+00 -0.00000000000E+00 -0.70040393789E+03  0.70040393789E+03  0.00000000000E+00 0.  1.
         23    2    1    2    0    0 -0.40877792730E+03  0.54849863629E+03  0.50419216638E+03  0.85399411526E+03  0.84534374119E+02 0.  0.
         13    1    3    3    0    0 -0.25606378817E+03  0.28249620409E+03  0.30508639692E+03  0.48831391391E+03  0.00000000000E+00 0. -1.
        -13    1    3    3    0    0 -0.15271413913E+03  0.26600243220E+03  0.19910576947E+03  0.36568020135E+03  0.00000000000E+00 0.  1.
         22    1    1    2    0    0  0.40877792730E+03 -0.54849863629E+03 -0.30288283549E+03  0.74812309140E+03  0.00000000000E+00 0. -1.
<mgrwt>
<rscale>  0 0.15894194E+04</rscale>
<asrwt>0</asrwt>
<pdfrwt beam="1">  1        2 0.10775445E+00 0.15894194E+04</pdfrwt>
<pdfrwt beam="2">  1       -2 0.13872512E+00 0.15894194E+04</pdfrwt>
<totfact> 0.14445811E+01</totfact>
</mgrwt>
</event>
<event>
 6    1  0.1762360E-005  0.1808510E+04  0.7818608E-02  0.8701787E-01
          2   -1    0    0  501    0  0.00000000000E+00  0.00000000000E+00  0.34337138104E+04  0.34337138104E+04  0.00000000000E+00 0. -1.
         -2   -1    0    0    0  501 -0.00000000000E+00 -0.00000000000E+00 -0.23813186393E+03  0.23813186393E+03  0.00000000000E+00 0.  1.
         23    2    1    2    0    0 -0.49392830204E+03  0.65993424022E+03  0.23446965180E+04  0.24871582129E+04  0.94211705291E+02 0.  0.
         11    1    3    3    0    0 -0.20110103900E+03  0.25881881594E+03  0.79813883019E+03  0.86281770938E+03  0.00000000000E+00 0. -1.
        -11    1    3    3    0    0 -0.29282726304E+03  0.40111542427E+03  0.15465576878E+04  0.16243405035E+04  0.00000000000E+00 0.  1.
         22    1    1    2    0    0  0.49392830204E+03 -0.65993424022E+03  0.85088542853E+03  0.11846874615E+04  0.00000000000E+00 0.  1.
<mgrwt>
<rscale>  0 0.18085095E+04</rscale>
<asrwt>0</asrwt>
<pdfrwt beam="1">  1        2 0.52826363E+00 0.18085095E+04</pdfrwt>
<pdfrwt beam="2">  1       -2 0.36635674E-01 0.18085095E+04</pdfrwt>
<totfact> 0.60284140E+00</totfact>
</mgrwt>
</event>
<event>
 6    1  0.1762360E-005  0.7275490E+03  0.7818608E-02  0.9671246E-01
         -1   -1    0    0    0  501 -0.00000000000E+00  0.00000000000E+00  0.69538970345E+02  0.69538970345E+02  0.00000000000E+00 0.  1.
          1   -1    0    0  501    0  0.00000000000E+00 -0.00000000000E+00 -0.19029890100E+04  0.19029890100E+04  0.00000000000E+00 0. -1.
         23    2    1    2    0    0 -0.14238684982E+03 -0.17750012369E+03 -0.16806824047E+04  0.16984508759E+04  0.90894022867E+02 0.  0.
         13    1    3    3    0    0 -0.14916101662E+03 -0.16490806982E+03 -0.14131994806E+04  0.14305860521E+04  0.00000000000E+00 0.  1.
        -13    1    3    3    0    0  0.67741667949E+01 -0.12592053867E+02 -0.26748292407E+03  0.26786482379E+03  0.00000000000E+00 0. -1.
         22    1    1    2    0    0  0.14238684982E+03  0.17750012369E+03 -0.15276763500E+03  0.27407710451E+03  0.00000000000E+00 0.  1.
<mgrwt>
<rscale>  0 0.72754903E+03</rscale>
<asrwt>0</asrwt>
<pdfrwt beam="1">  1        1 0.29276747E+00 0.72754903E+03</pdfrwt>
<pdfrwt beam="2">  1       -1 0.10698306E-01 0.72754903E+03</pdfrwt>
<totfact> 0.20224917E+02</totfact>
</mgrwt>
</event>
<event>
 6    1  0.1762360E-005  0.1633944E+04  0.7818608E-02  0.8799962E-01
         -2   -1    0    0    0  501 -0.00000000000E+00  0.00000000000E+00  0.75639019665E+03  0.75639019665E+03  0.00000000000E+00 0.  1.
          2   -1    0    0  501    0  0.00000000000E+00 -0.00000000000E+00 -0.88240651162E+03  0.88240651162E+03  0.00000000000E+00 0. -1.
         23    2    1    2    0    0  0.24291847157E+03 -0.77423822217E+03  0.53374792809E+01  0.81678209297E+03  0.93006936282E+02 0.  0.
         11    1    3    3    0    0  0.19406661426E+03 -0.70773498326E+03 -0.27861783803E+01  0.73386539644E+03  0.00000000000E+00 0.  1.
        -11    1    3    3    0    0  0.48851857313E+02 -0.66503238914E+02  0.81236576612E+01  0.82916696526E+02  0.00000000000E+00 0. -1.
         22    1    1    2    0    0 -0.24291847157E+03  0.77423822217E+03 -0.13135379425E+03  0.82201461530E+03  0.00000000000E+00 0.  1.
<mgrwt>
<rscale>  0 0.16339445E+04</rscale>
<asrwt>0</asrwt>
<pdfrwt beam="1">  1        2 0.13575485E+00 0.16339445E+04</pdfrwt>
<pdfrwt beam="2">  1       -2 0.11636772E+00 0.16339445E+04</pdfrwt>
<totfact> 0.16514845E+01</totfact>
</mgrwt>
</event>
<event>
 6    1  0.1762360E-005  0.4154056E+04  0.7818608E-02  0.7974170E-01
         -2   -1    0    0    0  501 -0.00000000000E+00  0.00000000000E+00  0.15741552864E+04  0.15741552864E+04  0.00000000000E+00 0.  1.
          2   -1    0    0  501    0  0.00000000000E+00 -0.00000000000E+00 -0.27405462865E+04  0.27405462865E+04  0.00000000000E+00 0. -1.
         23    2    1    2    0    0  0.37158407073E+03  0.72787221022E+03 -0.25657095011E+04  0.26942186377E+04  0.89867388584E+02 0.  0.
         13    1    3    3    0    0  0.16889314642E+03  0.26760672110E+03 -0.11009807064E+04  0.11455552226E+04  0.00000000000E+00 0.  1.
        -13    1    3    3    0    0  0.20269092431E+03  0.46026548912E+03 -0.14647287947E+04  0.15486634151E+04  0.00000000000E+00 0. -1.
         22    1    1    2    0    0 -0.37158407073E+03 -0.72787221022E+03  0.13993185010E+04  0.16204829352E+04  0.00000000000E+00 0.  1.
<mgrwt>
<rscale>  0 0.41540561E+04</rscale>
<asrwt>0</asrwt>
<pdfrwt beam="1">  1        2 0.42162251E+00 0.41540561E+04</pdfrwt>
<pdfrwt beam="2">  1       -2 0.24217774E+00 0.41540561E+04</pdfrwt>
<totfact> 0.14048640E-01</totfact>
</mgrwt>
</event>
<event>
 6    1  0.1762360E-005  0.3714279E+04  0.7818608E-02  0.8064805E-01
         -2   -1    0    0    0  501 -0.00000000000E+00  0.00000000000E+00  0.21349995588E+04  0.21349995588E+04  0.00000000000E+00 0.  1.
          2   -1    0    0  501    0  0.00000000000E+00 -0.00000000000E+00 -0.16154419685E+04  0.16154419685E+04  0.00000000000E+00 0. -1.
         23    2    1    2    0    0  0.10743370359E+04 -0.30709101119E+03 -0.12364544492E+04  0.16690758126E+04  0.92138522671E+02 0.  0.
         11    1    3    3    0    0  0.64643456828E+03 -0.15074890336E+03 -0.77941830136E+03  0.10237654865E+04  0.00000000000E+00 0. -1.
        -11    1    3    3    0    0  0.42790246758E+03 -0.15634210783E+03 -0.45703614784E+03  0.64531032603E+03  0.00000000000E+00 0.  1.
         22    1    1    2    0    0 -0.10743370359E+04  0.30709101119E+03  0.17560120394E+04  0.20813657147E+04  0.00000000000E+00 0.  1.
<mgrwt>
<rscale>  0 0.37142794E+04</rscale>
<asrwt>0</asrwt>
<pdfrwt beam="1">  1        2 0.24852953E+00 0.37142794E+04</pdfrwt>
<pdfrwt beam="2">  1       -2 0.32846147E+00 0.37142794E+04</pdfrwt>
<totfact> 0.18728081E-01</totfact>
</mgrwt>
</event>
<event>
 6    1  0.1762360E-005  0.9269763E+03  0.7818608E-02  0.9392474E-01
         -2   -1    0    0    0  501 -0.00000000000E+00  0.00000000000E+00  0.31162783667E+03  0.31162783667E+03  0.00000000000E+00 0. -1.
          2   -1    0    0  501    0  0.00000000000E+00 -0.00000000000E+00 -0.68935195237E+03  0.68935195237E+03  0.00000000000E+00 0.  1.
         23    2    1    2    0    0  0.13687121180E+03  0.55531630920E+02 -0.65995144169E+03  0.68243661428E+03  0.91467679930E+02 0.  0.
         13    1    3    3    0    0  0.77052062688E+02  0.36465312570E+02 -0.18920403291E+03  0.20752085547E+03  0.00000000000E+00 0. -1.
        -13    1    3    3    0    0  0.59819149114E+02  0.19066318351E+02 -0.47074740878E+03  0.47491575881E+03  0.00000000000E+00 0.  1.
         22    1    1    2    0    0 -0.13687121180E+03 -0.55531630920E+02  0.28222732599E+03  0.31854317476E+03  0.00000000000E+00 0. -1.
<mgrwt>
<rscale>  0 0.92697628E+03</rscale>
<asrwt>0</asrwt>
<pdfrwt beam="1">  1        2 0.10605415E+00 0.92697628E+03</pdfrwt>
<pdfrwt beam="2">  1       -2 0.47942744E-01 0.92697628E+03</pdfrwt>
<totfact> 0.17253083E+02</totfact>
</mgrwt>
</event>
<event>
 6    1  0.1762360E-005  0.1814240E+04  0.7818608E-02  0.8698763E-01
         -1   -1    0    0    0  501 -0.00000000000E+00  0.00000000000E+00  0.75185762553E+03  0.75185762553E+03  0.00000000000E+00 0.  1.
          1   -1    0    0  501    0  0.00000000000E+00 -0.00000000000E+00 -0.10944452732E+04  0.10944452732E+04  0.00000000000E+00 0. -1.
         23    2    1    2    0    0  0.82164730604E+03  0.18648598483E+03  0.16421635322E+03  0.86307779053E+03  0.89749338636E+02 0.  0.
         13    1    3    3    0    0  0.11757578458E+03  0.16436608878E+01  0.36255452751E+01  0.11764315246E+03  0.00000000000E+00 0. -1.
        -13    1    3    3    0    0  0.70407152146E+03  0.18484232395E+03  0.16059080795E+03  0.74543463808E+03  0.00000000000E+00 0.  1.
         22    1    1    2    0    0 -0.82164730604E+03 -0.18648598483E+03 -0.50680400087E+03  0.98322510818E+03  0.00000000000E+00 0. -1.
<mgrwt>
<rscale>  0 0.18142404E+04</rscale>
<asrwt>0</asrwt>
<pdfrwt beam="1">  1        1 0.16837620E+00 0.18142404E+04</pdfrwt>
<pdfrwt beam="2">  1       -1 0.11567040E+00 0.18142404E+04</pdfrwt>
<totfact> 0.81678131E+00</totfact>
</mgrwt>
</event>
<event>
 6    1  0.1762360E-005  0.2097874E+04  0.7818608E-02  0.8562181E-01
         -1   -1    0    0    0  501 -0.00000000000E+00  0.00000000000E+00  0.75460259896E+03  0.75460259896E+03  0.00000000000E+00 0.  1.
          1   -1    0    0  501    0  0.00000000000E+00 -0.00000000000E+00 -0.14580769556E+04  0.14580769556E+04  0.00000000000E+00 0. -1.
         23    2    1    2    0    0  0.56555739670E+03  0.85709864017E+03 -0.56795620276E+03  0.11769004188E+04  0.89705627808E+02 0.  0.
         13    1    3    3    0    0  0.16407554673E+03  0.22189154735E+03 -0.11121429009E+03  0.29753195146E+03  0.00000000000E+00 0. -1.
        -13    1    3    3    0    0  0.40148184998E+03  0.63520709282E+03 -0.45674191267E+03  0.87936846738E+03  0.00000000000E+00 0.  1.
         22    1    1    2    0    0 -0.56555739670E+03 -0.85709864017E+03 -0.13551815388E+03  0.10357791357E+04  0.00000000000E+00 0. -1.
<mgrwt>
<rscale>  0 0.20978738E+04</rscale>
<asrwt>0</asrwt>
<pdfrwt beam="1">  1        1 0.22431953E+00 0.20978738E+04</pdfrwt>
<pdfrwt beam="2">  1       -1 0.11609271E+00 0.20978738E+04</pdfrwt>
<totfact> 0.43178306E+00</totfact>
</mgrwt>
</event>
<event>
 6    1  0.1762360E-005  0.3636971E+04  0.7818608E-02  0.8082075E-01
          2   -1    0    0  501    0  0.00000000000E+00  0.00000000000E+00  0.17681102754E+04  0.17681102754E+04  0.00000000000E+00 0. -1.
         -2   -1    0    0    0  501 -0.00000000000E+00 -0.00000000000E+00 -0.18702962133E+04  0.18702962133E+04  0.00000000000E+00 0.  1.
         23    2    1    2    0    0  0.14938376213E+04  0.40137034755E+03 -0.10055014873E+04  0.18471421374E+04  0.90839640867E+02 0.  0.
         13    1    3    3    0    0  0.51381350973E+03  0.11464240636E+03 -0.38611148741E+03  0.65286237817E+03  0.00000000000E+00 0. -1.
        -13    1    3    3    0    0  0.98002411153E+03  0.28672794118E+03 -0.61938999989E+03  0.11942797593E+04  0.00000000000E+00 0.  1.
         22    1    1    2    0    0 -0.14938376213E+04 -0.40137034755E+03  0.90331554937E+03  0.17912643513E+04  0.00000000000E+00 0. -1.
<mgrwt>
<rscale>  0 0.36369712E+04</rscale>
<asrwt>0</asrwt>
<pdfrwt beam="1">  1        2 0.27201697E+00 0.36369712E+04</pdfrwt>
<pdfrwt beam="2">  1       -2 0.28773788E+00 0.36369712E+04</pdfrwt>
<totfact> 0.27586587E-01</totfact>
</mgrwt>
</event>
<event>
 6    1  0.1762360E-005  0.1859997E+04  0.7818608E-02  0.8675028E-01
          2   -1    0    0  501    0  0.00000000000E+00  0.00000000000E+00  0.63336381676E+03  0.63336381676E+03  0.00000000000E+00 0.  1.
         -2   -1    0    0    0  501 -0.00000000000E+00 -0.00000000000E+00 -0.13655621381E+04  0.13655621381E+04  0.00000000000E+00 0. -1.
         23    2    1    2    0    0  0.30828495358E+03 -0.29161031348E+03 -0.12533959168E+04  0.13268224503E+04  0.96851963390E+02 0.  0.
         13    1    3    3    0    0  0.11933529410E+03 -0.70379508867E+02 -0.30921938440E+03  0.33883744683E+03  0.00000000000E+00 0. -1.
        -13    1    3    3    0    0  0.18894965948E+03 -0.22123080462E+03 -0.94417653236E+03  0.98798500342E+03  0.00000000000E+00 0.  1.
         22    1    1    2    0    0 -0.30828495358E+03  0.29161031348E+03  0.52119759538E+03  0.67210350465E+03  0.00000000000E+00 0.  1.
<mgrwt>
<rscale>  0 0.18599975E+04</rscale>
<asrwt>0</asrwt>
<pdfrwt beam="1">  1        2 0.97440588E-01 0.18599975E+04</pdfrwt>
<pdfrwt beam="2">  1       -2 0.21008648E+00 0.18599975E+04</pdfrwt>
<totfact> 0.49848182E+00</totfact>
</mgrwt>
</event>
<event>
 6    1  0.1762360E-005  0.2305956E+04  0.7818608E-02  0.8475576E-01
          1   -1    0    0  501    0  0.00000000000E+00  0.00000000000E+00  0.71263042266E+03  0.71263042266E+03  0.00000000000E+00 0. -1.
         -1   -1    0    0    0  501 -0.00000000000E+00 -0.00000000000E+00 -0.18654245217E+04  0.18654245217E+04  0.00000000000E+00 0.  1.
         23    2    1    2    0    0  0.93348911520E+02  0.10607852569E+04 -0.10660764834E+04  0.15096452264E+04  0.92359410398E+02 0.  0.
         13    1    3    3    0    0  0.15371131882E+02  0.57136245919E+03 -0.52820046632E+03  0.77825899550E+03  0.00000000000E+00 0. -1.
        -13    1    3    3    0    0  0.77977779638E+02  0.48942279770E+03 -0.53787601706E+03  0.73138623091E+03  0.00000000000E+00 0.  1.
         22    1    1    2    0    0 -0.93348911520E+02 -0.10607852569E+04 -0.86717615641E+02  0.10684097179E+04  0.00000000000E+00 0. -1.
<mgrwt>
<rscale>  0 0.23059560E+04</rscale>
<asrwt>0</asrwt>
<pdfrwt beam="1">  1        1 0.10963545E+00 0.23059560E+04</pdfrwt>
<pdfrwt beam="2">  1       -1 0.28698839E+00 0.23059560E+04</pdfrwt>
<totfact> 0.96056656E-01</totfact>
</mgrwt>
</event>
<event>
 6    1  0.1762360E-005  0.4103557E+04  0.7818608E-02  0.7983976E-01
          2   -1    0    0  501    0  0.00000000000E+00  0.00000000000E+00  0.34020808775E+04  0.34020808775E+04  0.00000000000E+00 0. -1.
         -2   -1    0    0    0  501 -0.00000000000E+00 -0.00000000000E+00 -0.12374174438E+04  0.12374174438E+04  0.00000000000E+00 0.  1.
         23    2    1    2    0    0  0.20085372673E+04 -0.40885078584E+03  0.10086866065E+04  0.22862742893E+04  0.90667175475E+02 0.  0.
         13    1    3    3    0    0  0.12298782647E+04 -0.27160707982E+03  0.66286196930E+03  0.14232908846E+04  0.00000000000E+00 0.  1.
        -13    1    3    3    0    0  0.77865900266E+03 -0.13724370603E+03  0.34582463716E+03  0.86298340478E+03  0.00000000000E+00 0. -1.
         22    1    1    2    0    0 -0.20085372673E+04  0.40885078584E+03  0.11559768273E+04  0.23532240320E+04  0.00000000000E+00 0.  1.
<mgrwt>
<rscale>  0 0.41035566E+04</rscale>
<asrwt>0</asrwt>
<pdfrwt beam="1">  1        2 0.52339705E+00 0.41035566E+04</pdfrwt>
<pdfrwt beam="2">  1       -2 0.19037192E+00 0.41035566E+04</pdfrwt>
<totfact> 0.11439573E-01</totfact>
</mgrwt>
</event>
<event>
 6    1  0.1762360E-005  0.1957068E+04  0.7818608E-02  0.8626960E-01
          2   -1    0    0  501    0  0.00000000000E+00  0.00000000000E+00  0.16865780722E+04  0.16865780722E+04  0.00000000000E+00 0. -1.
         -2   -1    0    0    0  501 -0.00000000000E+00 -0.00000000000E+00 -0.56773440863E+03  0.56773440863E+03  0.00000000000E+00 0.  1.
         23    2    1    2    0    0 -0.25400491708E+03 -0.33134657188E+03  0.15773449009E+04  0.16342056891E+04  0.91116680965E+02 0.  0.
         11    1    3    3    0    0 -0.10878817809E+03 -0.91863228803E+02  0.65394226386E+03  0.66926392773E+03  0.00000000000E+00 0.  1.
        -11    1    3    3    0    0 -0.14521673898E+03 -0.23948334307E+03  0.92340263700E+03  0.96494176141E+03  0.00000000000E+00 0. -1.
         22    1    1    2    0    0  0.25400491708E+03  0.33134657188E+03 -0.45850123725E+03  0.62010679173E+03  0.00000000000E+00 0.  1.
<mgrwt>
<rscale>  0 0.19570676E+04</rscale>
<asrwt>0</asrwt>
<pdfrwt beam="1">  1        2 0.25947355E+00 0.19570676E+04</pdfrwt>
<pdfrwt beam="2">  1       -2 0.87343756E-01 0.19570676E+04</pdfrwt>
<totfact> 0.10531474E+01</totfact>
</mgrwt>
</event>
<event>
 6    1  0.1762360E-005  0.3530361E+04  0.7818608E-02  0.8106632E-01
          2   -1    0    0  501    0  0.00000000000E+00  0.00000000000E+00  0.24399629465E+04  0.24399629465E+04  0.00000000000E+00 0. -1.
         -2   -1    0    0    0  501 -0.00000000000E+00 -0.00000000000E+00 -0.12770117714E+04  0.12770117714E+04  0.00000000000E+00 0.  1.
         23    2    1    2    0    0  0.10119630058E+04 -0.23499434285E+02  0.21028382519E+04  0.23356677044E+04  0.93774001489E+02 0.  0.
         11    1    3    3    0    0  0.44173419879E+03 -0.47580062654E+02  0.85699727774E+03  0.96531720113E+03  0.00000000000E+00 0.  1.
        -11    1    3    3    0    0  0.57022880702E+03  0.24080628369E+02  0.12458409742E+04  0.13703505033E+04  0.00000000000E+00 0. -1.
         22    1    1    2    0    0 -0.10119630058E+04  0.23499434285E+02 -0.93988707676E+03  0.13813070135E+04  0.00000000000E+00 0.  1.
<mgrwt>
<rscale>  0 0.35303606E+04</rscale>
<asrwt>0</asrwt>
<pdfrwt beam="1">  1        2 0.37537891E+00 0.35303606E+04</pdfrwt>
<pdfrwt beam="2">  1       -2 0.19646335E+00 0.35303606E+04</pdfrwt>
<totfact> 0.43373932E-01</totfact>
</mgrwt>
</event>
<event>
 6    1  0.1762360E-005  0.4195540E+04  0.7818608E-02  0.7966221E-01
         -2   -1    0    0    0  501 -0.00000000000E+00  0.00000000000E+00  0.13442043772E+04  0.13442043772E+04  0.00000000000E+00 0.  1.
          2   -1    0    0  501    0  0.00000000000E+00 -0.00000000000E+00 -0.32737877628E+04  0.32737877628E+04  0.00000000000E+00 0. -1.
         23    2    1    2    0    0 -0.10240402324E+04  0.16608220715E+04 -0.18103306248E+04  0.26632007006E+04  0.91392831494E+02 0.  0.
         13    1    3    3    0    0 -0.46948097812E+03  0.73359230718E+03 -0.86685617693E+03  0.12288245169E+04  0.00000000000E+00 0.  1.
        -13    1    3    3    0    0 -0.55455925427E+03  0.92722976430E+03 -0.94347444788E+03  0.14343761836E+04  0.00000000000E+00 0. -1.
         22    1    1    2    0    0  0.10240402324E+04 -0.16608220715E+04 -0.11925276076E+03  0.19547914394E+04  0.00000000000E+00 0.  1.
<mgrwt>
<rscale>  0 0.41955404E+04</rscale>
<asrwt>0</asrwt>
<pdfrwt beam="1">  1        2 0.50365965E+00 0.41955404E+04</pdfrwt>
<pdfrwt beam="2">  1       -2 0.20680068E+00 0.41955404E+04</pdfrwt>
<totfact> 0.10800026E-01</totfact>
</mgrwt>
</event>
<event>
 6    1  0.1762360E-005  0.2980847E+04  0.7818608E-02  0.8249221E-01
          1   -1    0    0  501    0  0.00000000000E+00  0.00000000000E+00  0.10317089032E+04  0.10317089032E+04  0.00000000000E+00 0. -1.
         -1   -1    0    0    0  501 -0.00000000000E+00 -0.00000000000E+00 -0.21530896741E+04  0.21530896741E+04  0.00000000000E+00 0.  1.
         23    2    1    2    0    0  0.10463953779E+04 -0.87602586248E+03 -0.11977230323E+04  0.18179801038E+04  0.90258499944E+02 0.  0.
         13    1    3    3    0    0  0.54411524554E+03 -0.50361614363E+03 -0.61547080527E+03  0.96358441908E+03  0.00000000000E+00 0. -1.
        -13    1    3    3    0    0  0.50228013238E+03 -0.37240971886E+03 -0.58225222706E+03  0.85439568468E+03  0.00000000000E+00 0.  1.
         22    1    1    2    0    0 -0.10463953779E+04  0.87602586248E+03  0.76342261486E+02  0.13668184735E+04  0.00000000000E+00 0. -1.
<mgrwt>
<rscale>  0 0.29808467E+04</rscale>
<asrwt>0</asrwt>
<pdfrwt beam="1">  1        1 0.15872445E+00 0.29808467E+04</pdfrwt>
<pdfrwt beam="2">  1       -1 0.33124456E+00 0.29808467E+04</pdfrwt>
<totfact> 0.25171037E-01</totfact>
</mgrwt>
</event>
<event>
 6    1  0.1762360E-005  0.1587930E+04  0.7818608E-02  0.8827998E-01
         -1   -1    0    0    0  501 -0.00000000000E+00  0.00000000000E+00  0.10078476146E+04  0.10078476146E+04  0.00000000000E+00 0.  1.
          1   -1    0    0  501    0  0.00000000000E+00 -0.00000000000E+00 -0.62547161075E+03  0.62547161075E+03  0.00000000000E+00 0. -1.
         23    2    1    2    0    0  0.10053516496E+03  0.11835496874E+03  0.98965730153E+03  0.10064972470E+04  0.97467511048E+02 0.  0.
         13    1    3    3    0    0  0.35547174273E+02 -0.10064394989E+02  0.14309008955E+03  0.14778250023E+03  0.00000000000E+00 0.  1.
        -13    1    3    3    0    0  0.64987990685E+02  0.12841936373E+03  0.84656721198E+03  0.85871474677E+03  0.00000000000E+00 0. -1.
         22    1    1    2    0    0 -0.10053516496E+03 -0.11835496874E+03 -0.60728129769E+03  0.62682197835E+03  0.00000000000E+00 0. -1.
<mgrwt>
<rscale>  0 0.15879296E+04</rscale>
<asrwt>0</asrwt>
<pdfrwt beam="1">  1        1 0.96226402E-01 0.15879296E+04</pdfrwt>
<pdfrwt beam="2">  1       -1 0.15505348E+00 0.15879296E+04</pdfrwt>
<totfact> 0.98714187E+00</totfact>
</mgrwt>
</event>
<event>
 6    1  0.1762360E-005  0.2408277E+04  0.7818608E-02  0.8436411E-01
         -2   -1    0    0    0  501 -0.00000000000E+00  0.00000000000E+00  0.65938401168E+03  0.65938401168E+03  0.00000000000E+00 0.  1.
          2   -1    0    0  501    0  0.00000000000E+00 -0.00000000000E+00 -0.21989452644E+04  0.21989452644E+04  0.00000000000E+00 0. -1.
         23    2    1    2    0    0 -0.45104333656E+03  0.94965233359E+03 -0.14635113277E+04  0.18042594315E+04  0.90592736377E+02 0.  0.
         13    1    3    3    0    0 -0.16688539263E+03  0.44577331822E+03 -0.69458148799E+03  0.84202614506E+03  0.00000000000E+00 0.  1.
        -13    1    3    3    0    0 -0.28415794393E+03  0.50387901537E+03 -0.76892983968E+03  0.96223328646E+03  0.00000000000E+00 0. -1.
         22    1    1    2    0    0  0.45104333656E+03 -0.94965233359E+03 -0.76049925073E+02  0.10540698446E+04  0.00000000000E+00 0. -1.
<mgrwt>
<rscale>  0 0.24082769E+04</rscale>
<asrwt>0</asrwt>
<pdfrwt beam="1">  1        2 0.33829927E+00 0.24082769E+04</pdfrwt>
<pdfrwt beam="2">  1       -2 0.10144369E+00 0.24082769E+04</pdfrwt>
<totfact> 0.37089470E+00</totfact>
</mgrwt>
</event>
<event>
 6    1  0.1783680E-005  0.3059086E+04  0.7818608E-02  0.8227057E-01
          1   -1    0    0  501    0  0.00000000000E+00  0.00000000000E+00  0.11834065915E+04  0.11834065915E+04  0.00000000000E+00 0. -1.
         -1   -1    0    0    0  501 -0.00000000000E+00 -0.00000000000E+00 -0.19769209886E+04  0.19769209886E+04  0.00000000000E+00 0.  1.
         23    2    1    2    0    0 -0.10039299858E+04 -0.49578053722E+03  0.67729861932E+03  0.13118242161E+04  0.92063005041E+02 0.  0.
         13    1    3    3    0    0 -0.32629428035E+03 -0.16209133170E+03  0.17080393894E+03  0.40238730442E+03  0.00000000000E+00 0. -1.
        -13    1    3    3    0    0 -0.67763570543E+03 -0.33368920552E+03  0.50649468038E+03  0.90943691173E+03  0.00000000000E+00 0.  1.
         22    1    1    2    0    0  0.10039299858E+04  0.49578053722E+03 -0.14708130164E+04  0.18485033640E+04  0.00000000000E+00 0.  1.
<mgrwt>
<rscale>  0 0.30590857E+04</rscale>
<asrwt>0</asrwt>
<pdfrwt beam="1">  1        1 0.18206255E+00 0.30590857E+04</pdfrwt>
<pdfrwt beam="2">  1       -1 0.30414169E+00 0.30590857E+04</pdfrwt>
<totfact> 0.28883420E-01</totfact>
</mgrwt>
</event>
<event>
 6    1  0.1762360E-005  0.1225771E+04  0.7818608E-02  0.9090594E-01
         -2   -1    0    0    0  501 -0.00000000000E+00  0.00000000000E+00  0.22525630368E+03  0.22525630368E+03  0.00000000000E+00 0.  1.
          2   -1    0    0  501    0  0.00000000000E+00 -0.00000000000E+00 -0.16675607167E+04  0.16675607167E+04  0.00000000000E+00 0. -1.
         23    2    1    2    0    0 -0.53555015543E+03  0.22373175053E+02 -0.11718827505E+04  0.12924484640E+04  0.98991531010E+02 0.  0.
         13    1    3    3    0    0 -0.99402845693E+02 -0.22432739322E+02 -0.29418361780E+03  0.31133286769E+03  0.00000000000E+00 0.  1.
        -13    1    3    3    0    0 -0.43614730974E+03  0.44805914375E+02 -0.87769913269E+03  0.98111559629E+03  0.00000000000E+00 0. -1.
         22    1    1    2    0    0  0.53555015543E+03 -0.22373175053E+02 -0.27042166254E+03  0.60036855640E+03  0.00000000000E+00 0.  1.
<mgrwt>
<rscale>  0 0.12257709E+04</rscale>
<asrwt>0</asrwt>
<pdfrwt beam="1">  1        2 0.25654781E+00 0.12257709E+04</pdfrwt>
<pdfrwt beam="2">  1       -2 0.34654815E-01 0.12257709E+04</pdfrwt>
<totfact> 0.78611129E+01</totfact>
</mgrwt>
</event>
<event>
 6    1  0.1762360E-005  0.1157396E+04  0.7818608E-02  0.9150987E-01
         -2   -1    0    0    0  501 -0.00000000000E+00  0.00000000000E+00  0.42259717110E+03  0.42259717110E+03  0.00000000000E+00 0.  1.
          2   -1    0    0  501    0  0.00000000000E+00 -0.00000000000E+00 -0.79246029054E+03  0.79246029054E+03  0.00000000000E+00 0. -1.
         23    2    1    2    0    0  0.17784734851E+03  0.47778053541E+03  0.89953332246E+02  0.52851897865E+03  0.10647436039E+03 0.  0.
         11    1    3    3    0    0  0.10808953645E+03  0.16762295749E+03  0.64389972570E+02  0.20958738591E+03  0.00000000000E+00 0. -1.
        -11    1    3    3    0    0  0.69757812059E+02  0.31015757793E+03  0.25563359675E+02  0.31893159274E+03  0.00000000000E+00 0.  1.
         22    1    1    2    0    0 -0.17784734851E+03 -0.47778053541E+03 -0.45981645169E+03  0.68653848299E+03  0.00000000000E+00 0. -1.
<mgrwt>
<rscale>  0 0.11573962E+04</rscale>
<asrwt>0</asrwt>
<pdfrwt beam="1">  1        2 0.12191697E+00 0.11573962E+04</pdfrwt>
<pdfrwt beam="2">  1       -2 0.65014950E-01 0.11573962E+04</pdfrwt>
<totfact> 0.75342902E+01</totfact>
</mgrwt>
</event>
<event>
 6    1  0.1762360E-005  0.3634076E+04  0.7818608E-02  0.8082731E-01
          1   -1    0    0  501    0  0.00000000000E+00  0.00000000000E+00  0.25287842266E+04  0.25287842266E+04  0.00000000000E+00 0. -1.
         -1   -1    0    0    0  501 -0.00000000000E+00 -0.00000000000E+00 -0.13056182124E+04  0.13056182124E+04  0.00000000000E+00 0.  1.
         23    2    1    2    0    0 -0.52312678171E+03  0.13169716886E+04  0.18100211924E+04  0.23006244047E+04  0.92843287377E+02 0.  0.
         13    1    3    3    0    0 -0.46235273144E+03  0.10802282004E+04  0.15244419009E+04  0.19247301428E+04  0.00000000000E+00 0. -1.
        -13    1    3    3    0    0 -0.60774050277E+02  0.23674348820E+03  0.28557929149E+03  0.37589426189E+03  0.00000000000E+00 0.  1.
         22    1    1    2    0    0  0.52312678171E+03 -0.13169716886E+04 -0.58685517826E+03  0.15337780343E+04  0.00000000000E+00 0.  1.
<mgrwt>
<rscale>  0 0.36340758E+04</rscale>
<asrwt>0</asrwt>
<pdfrwt beam="1">  1        1 0.38904373E+00 0.36340758E+04</pdfrwt>
<pdfrwt beam="2">  1       -1 0.20086434E+00 0.36340758E+04</pdfrwt>
<totfact> 0.15492423E-01</totfact>
</mgrwt>
</event>
<event>
 6    1  0.1762360E-005  0.1562610E+04  0.7818608E-02  0.8843853E-01
         -1   -1    0    0    0  501 -0.00000000000E+00  0.00000000000E+00  0.87441418343E+03  0.87441418343E+03  0.00000000000E+00 0.  1.
          1   -1    0    0  501    0  0.00000000000E+00 -0.00000000000E+00 -0.69811026222E+03  0.69811026222E+03  0.00000000000E+00 0. -1.
         23    2    1    2    0    0 -0.15305916765E+03  0.16696989110E+03 -0.66108220817E+03  0.70504442685E+03  0.93551614318E+02 0.  0.
         13    1    3    3    0    0 -0.94470938025E+02  0.12376351254E+03 -0.31487947044E+03  0.35127090126E+03  0.00000000000E+00 0.  1.
        -13    1    3    3    0    0 -0.58588229626E+02  0.43206378560E+02 -0.34620273773E+03  0.35377352559E+03  0.00000000000E+00 0. -1.
         22    1    1    2    0    0  0.15305916765E+03 -0.16696989110E+03  0.83738612938E+03  0.86748001880E+03  0.00000000000E+00 0.  1.
<mgrwt>
<rscale>  0 0.15626100E+04</rscale>
<asrwt>0</asrwt>
<pdfrwt beam="1">  1        1 0.10740158E+00 0.15626100E+04</pdfrwt>
<pdfrwt beam="2">  1       -1 0.13452526E+00 0.15626100E+04</pdfrwt>
<totfact> 0.12241046E+01</totfact>
</mgrwt>
</event>
<event>
 6    1  0.1762360E-005  0.1424819E+04  0.7818608E-02  0.8936047E-01
         -1   -1    0    0    0  501 -0.00000000000E+00  0.00000000000E+00  0.14592324328E+03  0.14592324328E+03  0.00000000000E+00 0.  1.
          1   -1    0    0  501    0  0.00000000000E+00 -0.00000000000E+00 -0.34780437182E+04  0.34780437182E+04  0.00000000000E+00 0. -1.
         23    2    1    2    0    0 -0.68495512826E+03 -0.17337237221E+02 -0.21412386761E+04  0.22500442685E+04  0.91279979521E+02 0.  0.
         13    1    3    3    0    0 -0.37914907905E+03 -0.52516316640E+02 -0.11386172050E+04  0.12012331694E+04  0.00000000000E+00 0. -1.
        -13    1    3    3    0    0 -0.30580604921E+03  0.35179079419E+02 -0.10026214710E+04  0.10488110991E+04  0.00000000000E+00 0.  1.
         22    1    1    2    0    0  0.68495512826E+03  0.17337237221E+02 -0.11908817989E+04  0.13739226930E+04  0.00000000000E+00 0. -1.
<mgrwt>
<rscale>  0 0.14248192E+04</rscale>
<asrwt>0</asrwt>
<pdfrwt beam="1">  1        1 0.53508359E+00 0.14248192E+04</pdfrwt>
<pdfrwt beam="2">  1       -1 0.22449732E-01 0.14248192E+04</pdfrwt>
<totfact> 0.43172478E+00</totfact>
</mgrwt>
</event>
<event>
 6    1  0.1762360E-005  0.2771898E+04  0.7818608E-02  0.8312046E-01
          1   -1    0    0  501    0  0.00000000000E+00  0.00000000000E+00  0.29645060601E+04  0.29645060601E+04  0.00000000000E+00 0. -1.
         -1   -1    0    0    0  501 -0.00000000000E+00 -0.00000000000E+00 -0.64795080579E+03  0.64795080579E+03  0.00000000000E+00 0.  1.
         23    2    1    2    0    0  0.45490485612E+03 -0.12154721873E+04  0.17876048525E+04  0.22109934900E+04  0.93005580420E+02 0.  0.
         13    1    3    3    0    0  0.38454115054E+03 -0.91933548603E+03  0.13512563063E+04  0.16789708865E+04  0.00000000000E+00 0.  1.
        -13    1    3    3    0    0  0.70363705577E+02 -0.29613670132E+03  0.43634854614E+03  0.53202260351E+03  0.00000000000E+00 0. -1.
         22    1    1    2    0    0 -0.45490485612E+03  0.12154721873E+04  0.52895040187E+03  0.14014633759E+04  0.00000000000E+00 0.  1.
<mgrwt>
<rscale>  0 0.27718976E+04</rscale>
<asrwt>0</asrwt>
<pdfrwt beam="1">  1        1 0.45607785E+00 0.27718976E+04</pdfrwt>
<pdfrwt beam="2">  1       -1 0.99684741E-01 0.27718976E+04</pdfrwt>
<totfact> 0.52826353E-01</totfact>
</mgrwt>
</event>
<event>
 6    1  0.1762360E-005  0.3484479E+04  0.7818608E-02  0.8117478E-01
         -2   -1    0    0    0  501 -0.00000000000E+00  0.00000000000E+00  0.10458659389E+04  0.10458659389E+04  0.00000000000E+00 0.  1.
          2   -1    0    0  501    0  0.00000000000E+00 -0.00000000000E+00 -0.29022819033E+04  0.29022819033E+04  0.00000000000E+00 0. -1.
         23    2    1    2    0    0  0.77662142613E+03  0.13409339672E+04 -0.29545387592E+02  0.15525892751E+04  0.91737578311E+02 0.  0.
         11    1    3    3    0    0  0.61956816437E+03  0.11143967813E+04  0.27536935465E+01  0.12750499909E+04  0.00000000000E+00 0. -1.
        -11    1    3    3    0    0  0.15705326176E+03  0.22653718595E+03 -0.32299081139E+02  0.27753928423E+03  0.00000000000E+00 0.  1.
         22    1    1    2    0    0 -0.77662142613E+03 -0.13409339672E+04 -0.18268705769E+04  0.23955585671E+04  0.00000000000E+00 0. -1.
<mgrwt>
<rscale>  0 0.34844786E+04</rscale>
<asrwt>0</asrwt>
<pdfrwt beam="1">  1        2 0.44650491E+00 0.34844786E+04</pdfrwt>
<pdfrwt beam="2">  1       -2 0.16090245E+00 0.34844786E+04</pdfrwt>
<totfact> 0.40846901E-01</totfact>
</mgrwt>
</event>
<event>
 6    1  0.1762360E-005  0.1394882E+04  0.7818608E-02  0.8957531E-01
         -2   -1    0    0    0  501 -0.00000000000E+00  0.00000000000E+00  0.10820206586E+04  0.10820206586E+04  0.00000000000E+00 0. -1.
          2   -1    0    0  501    0  0.00000000000E+00 -0.00000000000E+00 -0.44955172270E+03  0.44955172270E+03  0.00000000000E+00 0.  1.
         23    2    1    2    0    0  0.60273445671E+01 -0.32639490486E+03 -0.35526323402E+03  0.49129126434E+03  0.92656236506E+02 0.  0.
         11    1    3    3    0    0 -0.97513109899E+01 -0.14604503900E+03 -0.95882719472E+02  0.17497924842E+03  0.00000000000E+00 0.  1.
        -11    1    3    3    0    0  0.15778655557E+02 -0.18034986586E+03 -0.25938051455E+03  0.31631201592E+03  0.00000000000E+00 0. -1.
         22    1    1    2    0    0 -0.60273445671E+01  0.32639490486E+03  0.98773216997E+03  0.10402811170E+04  0.00000000000E+00 0. -1.
<mgrwt>
<rscale>  0 0.13948824E+04</rscale>
<asrwt>0</asrwt>
<pdfrwt beam="1">  1        2 0.69161804E-01 0.13948824E+04</pdfrwt>
<pdfrwt beam="2">  1       -2 0.16646472E+00 0.13948824E+04</pdfrwt>
<totfact> 0.15299995E+01</totfact>
</mgrwt>
</event>
<event>
 6    1  0.1762360E-005  0.8891130E+03  0.7818608E-02  0.9439294E-01
         -1   -1    0    0    0  501 -0.00000000000E+00  0.00000000000E+00  0.49813403534E+03  0.49813403534E+03  0.00000000000E+00 0.  1.
          1   -1    0    0  501    0  0.00000000000E+00 -0.00000000000E+00 -0.39674160457E+03  0.39674160457E+03  0.00000000000E+00 0. -1.
         23    2    1    2    0    0  0.32928288307E+03 -0.18519773933E+03  0.27787289773E+03  0.47789749306E+03  0.91908905163E+02 0.  0.
         13    1    3    3    0    0  0.27428421083E+03 -0.12405658190E+03  0.24922268241E+03  0.39081173121E+03  0.00000000000E+00 0.  1.
        -13    1    3    3    0    0  0.54998672236E+02 -0.61141157425E+02  0.28650215317E+02  0.87085761848E+02  0.00000000000E+00 0. -1.
         22    1    1    2    0    0 -0.32928288307E+03  0.18519773933E+03 -0.17648046696E+03  0.41697814685E+03  0.00000000000E+00 0. -1.
<mgrwt>
<rscale>  0 0.88911303E+03</rscale>
<asrwt>0</asrwt>
<pdfrwt beam="1">  1        1 0.61037170E-01 0.88911303E+03</pdfrwt>
<pdfrwt beam="2">  1       -1 0.76636006E-01 0.88911303E+03</pdfrwt>
<totfact> 0.10456995E+02</totfact>
</mgrwt>
</event>
<event>
 6    1  0.1762360E-005  0.2039787E+04  0.7818608E-02  0.8588241E-01
         -1   -1    0    0    0  501 -0.00000000000E+00  0.00000000000E+00  0.86197476110E+03  0.86197476110E+03  0.00000000000E+00 0.  1.
          1   -1    0    0  501    0  0.00000000000E+00 -0.00000000000E+00 -0.12067443490E+04  0.12067443490E+04  0.00000000000E+00 0. -1.
         23    2    1    2    0    0  0.71340515095E+03  0.20222382902E+03 -0.88098329559E+03  0.11536417763E+04  0.70117005762E+02 0.  0.
         11    1    3    3    0    0  0.12682998603E+03  0.21395015724E+02 -0.18944513280E+03  0.22898264213E+03  0.00000000000E+00 0.  1.
        -11    1    3    3    0    0  0.58657516492E+03  0.18082881330E+03 -0.69153816279E+03  0.92465913418E+03  0.00000000000E+00 0. -1.
         22    1    1    2    0    0 -0.71340515095E+03 -0.20222382902E+03  0.53621370772E+03  0.91507733377E+03  0.00000000000E+00 0.  1.
<mgrwt>
<rscale>  0 0.20397874E+04</rscale>
<asrwt>0</asrwt>
<pdfrwt beam="1">  1        1 0.18565297E+00 0.20397874E+04</pdfrwt>
<pdfrwt beam="2">  1       -1 0.13261150E+00 0.20397874E+04</pdfrwt>
<totfact> 0.47097572E+00</totfact>
</mgrwt>
</event>
<event>
 6    1  0.1762360E-005  0.9353839E+03  0.7818608E-02  0.9382400E-01
         -1   -1    0    0    0  501 -0.00000000000E+00  0.00000000000E+00  0.35794692290E+03  0.35794692290E+03  0.00000000000E+00 0.  1.
          1   -1    0    0  501    0  0.00000000000E+00 -0.00000000000E+00 -0.61108433906E+03  0.61108433906E+03  0.00000000000E+00 0. -1.
         23    2    1    2    0    0  0.44567646917E+03 -0.10203723242E+03 -0.48456038359E+02  0.46809855350E+03  0.87915619576E+02 0.  0.
         13    1    3    3    0    0  0.67511499842E+02 -0.21230109994E+02 -0.40023766249E+02  0.81304502004E+02  0.00000000000E+00 0. -1.
        -13    1    3    3    0    0  0.37816496933E+03 -0.80807122429E+02 -0.84322721092E+01  0.38679405150E+03  0.00000000000E+00 0.  1.
         22    1    1    2    0    0 -0.44567646917E+03  0.10203723242E+03 -0.20468137780E+03  0.50093270845E+03  0.00000000000E+00 0. -1.
<mgrwt>
<rscale>  0 0.93538390E+03</rscale>
<asrwt>0</asrwt>
<pdfrwt beam="1">  1        1 0.94012974E-01 0.93538390E+03</pdfrwt>
<pdfrwt beam="2">  1       -1 0.55068758E-01 0.93538390E+03</pdfrwt>
<totfact> 0.11183168E+02</totfact>
</mgrwt>
</event>
<event>
 6    1  0.1762360E-005  0.3701481E+04  0.7818608E-02  0.8067634E-01
         -2   -1    0    0    0  501 -0.00000000000E+00  0.00000000000E+00  0.13948962895E+04  0.13948962895E+04  0.00000000000E+00 0.  1.
          2   -1    0    0  501    0  0.00000000000E+00 -0.00000000000E+00 -0.24555523868E+04  0.24555523868E+04  0.00000000000E+00 0. -1.
         23    2    1    2    0    0 -0.88922496994E+03  0.54305030177E+02 -0.22167794108E+04  0.23908969645E+04  0.92775293977E+02 0.  0.
         11    1    3    3    0    0 -0.32925693990E+03  0.16763507667E+02 -0.94268094845E+03  0.99866837251E+03  0.00000000000E+00 0. -1.
        -11    1    3    3    0    0 -0.55996803004E+03  0.37541522510E+02 -0.12740984623E+04  0.13922285920E+04  0.00000000000E+00 0.  1.
         22    1    1    2    0    0  0.88922496994E+03 -0.54305030177E+02  0.11561233135E+04  0.14595517118E+04  0.00000000000E+00 0.  1.
<mgrwt>
<rscale>  0 0.37014813E+04</rscale>
<asrwt>0</asrwt>
<pdfrwt beam="1">  1        2 0.37777729E+00 0.37014813E+04</pdfrwt>
<pdfrwt beam="2">  1       -2 0.21459943E+00 0.37014813E+04</pdfrwt>
<totfact> 0.31937149E-01</totfact>
</mgrwt>
</event>
<event>
 6    1  0.1762360E-005  0.4965723E+04  0.7818608E-02  0.7833817E-01
          1   -1    0    0  501    0  0.00000000000E+00  0.00000000000E+00  0.24349841669E+04  0.24349841669E+04  0.00000000000E+00 0. -1.
         -1   -1    0    0    0  501 -0.00000000000E+00 -0.00000000000E+00 -0.25316803274E+04  0.25316803274E+04  0.00000000000E+00 0.  1.
         23    2    1    2    0    0  0.11708053105E+04  0.14327746144E+04 -0.17030092903E+04  0.25163849100E+04  0.91237061525E+02 0.  0.
         11    1    3    3    0    0  0.57958213103E+03  0.70127430434E+03 -0.77580324862E+03  0.11956470119E+04  0.00000000000E+00 0.  1.
        -11    1    3    3    0    0  0.59122317944E+03  0.73150031007E+03 -0.92720604171E+03  0.13207378980E+04  0.00000000000E+00 0. -1.
         22    1    1    2    0    0 -0.11708053105E+04 -0.14327746144E+04  0.16063131298E+04  0.24502795844E+04  0.00000000000E+00 0. -1.
<mgrwt>
<rscale>  0 0.49657231E+04</rscale>
<asrwt>0</asrwt>
<pdfrwt beam="1">  1        1 0.37461295E+00 0.49657231E+04</pdfrwt>
<pdfrwt beam="2">  1       -1 0.38948928E+00 0.49657231E+04</pdfrwt>
<totfact> 0.91813245E-03</totfact>
</mgrwt>
</event>
<event>
 6    1  0.1762360E-005  0.2601066E+04  0.7818608E-02  0.8367839E-01
          2   -1    0    0  501    0  0.00000000000E+00  0.00000000000E+00  0.16926030898E+04  0.16926030898E+04  0.00000000000E+00 0. -1.
         -2   -1    0    0    0  501 -0.00000000000E+00 -0.00000000000E+00 -0.99928104693E+03  0.99928104693E+03  0.00000000000E+00 0.  1.
         23    2    1    2    0    0  0.75810289398E+03 -0.10531627899E+04  0.41026248303E+03  0.13637295620E+04  0.87012373921E+02 0.  0.
         13    1    3    3    0    0  0.22871405164E+03 -0.34314880336E+03  0.17016427712E+03  0.44611332627E+03  0.00000000000E+00 0. -1.
        -13    1    3    3    0    0  0.52938884234E+03 -0.71001398657E+03  0.24009820592E+03  0.91761623569E+03  0.00000000000E+00 0.  1.
         22    1    1    2    0    0 -0.75810289398E+03  0.10531627899E+04  0.28305955979E+03  0.13281545747E+04  0.00000000000E+00 0. -1.
<mgrwt>
<rscale>  0 0.26010661E+04</rscale>
<asrwt>0</asrwt>
<pdfrwt beam="1">  1        2 0.26040048E+00 0.26010661E+04</pdfrwt>
<pdfrwt beam="2">  1       -2 0.15373555E+00 0.26010661E+04</pdfrwt>
<totfact> 0.24576445E+00</totfact>
</mgrwt>
</event>
<event>
 6    1  0.1762360E-005  0.1233260E+04  0.7818608E-02  0.9084232E-01
          2   -1    0    0  501    0  0.00000000000E+00  0.00000000000E+00  0.18636284252E+04  0.18636284252E+04  0.00000000000E+00 0. -1.
         -2   -1    0    0    0  501 -0.00000000000E+00 -0.00000000000E+00 -0.20402814185E+03  0.20402814185E+03  0.00000000000E+00 0.  1.
         23    2    1    2    0    0 -0.57813357778E+03 -0.82775586534E+02  0.52143219518E+03  0.78839239246E+03  0.92632601358E+02 0.  0.
         11    1    3    3    0    0 -0.40507999548E+03 -0.20598573676E+02  0.38698838367E+03  0.56060156357E+03  0.00000000000E+00 0.  1.
        -11    1    3    3    0    0 -0.17305358230E+03 -0.62177012858E+02  0.13444381150E+03  0.22779082889E+03  0.00000000000E+00 0. -1.
         22    1    1    2    0    0  0.57813357778E+03  0.82775586534E+02  0.11381680882E+04  0.12792641746E+04  0.00000000000E+00 0. -1.
<mgrwt>
<rscale>  0 0.12332601E+04</rscale>
<asrwt>0</asrwt>
<pdfrwt beam="1">  1        2 0.28671205E+00 0.12332601E+04</pdfrwt>
<pdfrwt beam="2">  1       -2 0.31388946E-01 0.12332601E+04</pdfrwt>
<totfact> 0.73813998E+01</totfact>
</mgrwt>
</event>
<event>
 6    1  0.1762360E-005  0.1069222E+04  0.7818608E-02  0.9235720E-01
          1   -1    0    0  501    0  0.00000000000E+00  0.00000000000E+00  0.75245737453E+03  0.75245737453E+03  0.00000000000E+00 0. -1.
         -1   -1    0    0    0  501 -0.00000000000E+00 -0.00000000000E+00 -0.37983404877E+03  0.37983404877E+03  0.00000000000E+00 0.  1.
         23    2    1    2    0    0 -0.26118029545E+03  0.39574147338E+03  0.44032444792E+03  0.65332388533E+03  0.90111149282E+02 0.  0.
         13    1    3    3    0    0 -0.26444994087E+03  0.38264399630E+03  0.40964504228E+03  0.61980582426E+03  0.00000000000E+00 0. -1.
        -13    1    3    3    0    0  0.32696454224E+01  0.13097477084E+02  0.30679405645E+02  0.33518061070E+02  0.00000000000E+00 0.  1.
         22    1    1    2    0    0  0.26118029545E+03 -0.39574147338E+03 -0.67701122163E+02  0.47896753797E+03  0.00000000000E+00 0.  1.
<mgrwt>
<rscale>  0 0.10692220E+04</rscale>
<asrwt>0</asrwt>
<pdfrwt beam="1">  1        1 0.11576267E+00 0.10692220E+04</pdfrwt>
<pdfrwt beam="2">  1       -1 0.58436007E-01 0.10692220E+04</pdfrwt>
<totfact> 0.72200807E+01</totfact>
</mgrwt>
</event>
<event>
 6    1  0.1762360E-005  0.2434255E+04  0.7818608E-02  0.8426789E-01
          2   -1    0    0  501    0  0.00000000000E+00  0.00000000000E+00  0.14960168382E+04  0.14960168382E+04  0.00000000000E+00 0. -1.
         -2   -1    0    0    0  501 -0.00000000000E+00 -0.00000000000E+00 -0.99022876885E+03  0.99022876885E+03  0.00000000000E+00 0.  1.
         23    2    1    2    0    0 -0.96405849589E+03  0.72349830461E+03  0.93266094727E+02  0.12122624989E+04  0.89572437599E+02 0.  0.
         11    1    3    3    0    0 -0.13851738167E+03  0.13659477307E+03  0.35187391118E+02  0.19769509237E+03  0.00000000000E+00 0.  1.
        -11    1    3    3    0    0 -0.82554111422E+03  0.58690353154E+03  0.58078703608E+02  0.10145674065E+04  0.00000000000E+00 0. -1.
         22    1    1    2    0    0  0.96405849589E+03 -0.72349830461E+03  0.41252197462E+03  0.12739831081E+04  0.00000000000E+00 0. -1.
<mgrwt>
<rscale>  0 0.24342546E+04</rscale>
<asrwt>0</asrwt>
<pdfrwt beam="1">  1        2 0.23015644E+00 0.24342546E+04</pdfrwt>
<pdfrwt beam="2">  1       -2 0.15234289E+00 0.24342546E+04</pdfrwt>
<totfact> 0.32902638E+00</totfact>
</mgrwt>
</event>
<event>
 6    1  0.1762360E-005  0.2847452E+04  0.7818608E-02  0.8288686E-01
         -2   -1    0    0    0  501 -0.00000000000E+00  0.00000000000E+00  0.13135561050E+04  0.13135561050E+04  0.00000000000E+00 0. -1.
          2   -1    0    0  501    0  0.00000000000E+00 -0.00000000000E+00 -0.15431356145E+04  0.15431356145E+04  0.00000000000E+00 0.  1.
         23    2    1    2    0    0 -0.79182157979E+03  0.74373084459E+03  0.80599536871E+03  0.13558478530E+04  0.92616859407E+02 0.  0.
         13    1    3    3    0    0 -0.72192680547E+03  0.64299125895E+03  0.69727940991E+03  0.11919792981E+04  0.00000000000E+00 0.  1.
        -13    1    3    3    0    0 -0.69894774318E+02  0.10073958564E+03  0.10871595880E+03  0.16386855491E+03  0.00000000000E+00 0. -1.
         22    1    1    2    0    0  0.79182157979E+03 -0.74373084459E+03 -0.10355748782E+04  0.15008438666E+04  0.00000000000E+00 0.  1.
<mgrwt>
<rscale>  0 0.28474516E+04</rscale>
<asrwt>0</asrwt>
<pdfrwt beam="1">  1        2 0.23740548E+00 0.28474516E+04</pdfrwt>
<pdfrwt beam="2">  1       -2 0.20208555E+00 0.28474516E+04</pdfrwt>
<totfact> 0.13409142E+00</totfact>
</mgrwt>
</event>
<event>
 6    1  0.1762360E-005  0.2488765E+04  0.7818608E-02  0.8406999E-01
          1   -1    0    0  501    0  0.00000000000E+00  0.00000000000E+00  0.83138937419E+03  0.83138937419E+03  0.00000000000E+00 0. -1.
         -1   -1    0    0    0  501 -0.00000000000E+00 -0.00000000000E+00 -0.18625309318E+04  0.18625309318E+04  0.00000000000E+00 0.  1.
         23    2    1    2    0    0 -0.71901299481E+03  0.14454575131E+03  0.56982532733E+03  0.93296371153E+03  0.88584549608E+02 0.  0.
         13    1    3    3    0    0 -0.55806770681E+03  0.10586561208E+03  0.39281336757E+03  0.69061525826E+03  0.00000000000E+00 0.  1.
        -13    1    3    3    0    0 -0.16094528801E+03  0.38680139227E+02  0.17701195976E+03  0.24234845327E+03  0.00000000000E+00 0. -1.
         22    1    1    2    0    0  0.71901299481E+03 -0.14454575131E+03 -0.16009668850E+04  0.17609565945E+04  0.00000000000E+00 0.  1.
<mgrwt>
<rscale>  0 0.24887655E+04</rscale>
<asrwt>0</asrwt>
<pdfrwt beam="1">  1        1 0.12790606E+00 0.24887655E+04</pdfrwt>
<pdfrwt beam="2">  1       -1 0.28654322E+00 0.24887655E+04</pdfrwt>
<totfact> 0.74569348E-01</totfact>
</mgrwt>
</event>
<event>
 6    1  0.1762360E-005  0.2525390E+04  0.7818608E-02  0.8393995E-01
          2   -1    0    0  501    0  0.00000000000E+00  0.00000000000E+00  0.10126299317E+04  0.10126299317E+04  0.00000000000E+00 0. -1.
         -2   -1    0    0    0  501 -0.00000000000E+00 -0.00000000000E+00 -0.15745132861E+04  0.15745132861E+04  0.00000000000E+00 0.  1.
         23    2    1    2    0    0 -0.78002398464E+03  0.69908335597E+03 -0.10007814962E+04  0.14514555256E+04  0.89468343224E+02 0.  0.
         11    1    3    3    0    0 -0.64409620852E+03  0.59572819734E+03 -0.87729088775E+03  0.12407220932E+04  0.00000000000E+00 0.  1.
        -11    1    3    3    0    0 -0.13592777611E+03  0.10335515863E+03 -0.12349060847E+03  0.21073343236E+03  0.00000000000E+00 0. -1.
         22    1    1    2    0    0  0.78002398464E+03 -0.69908335597E+03  0.43889814179E+03  0.11356876921E+04  0.00000000000E+00 0. -1.
<mgrwt>
<rscale>  0 0.25253905E+04</rscale>
<asrwt>0</asrwt>
<pdfrwt beam="1">  1        2 0.15578922E+00 0.25253905E+04</pdfrwt>
<pdfrwt beam="2">  1       -2 0.24223281E+00 0.25253905E+04</pdfrwt>
<totfact> 0.15786835E+00</totfact>
</mgrwt>
</event>
<event>
 6    1  0.1762360E-005  0.1797302E+04  0.7818608E-02  0.8707735E-01
         -2   -1    0    0    0  501 -0.00000000000E+00  0.00000000000E+00  0.21620355878E+03  0.21620355878E+03  0.00000000000E+00 0.  1.
          2   -1    0    0  501    0  0.00000000000E+00 -0.00000000000E+00 -0.37352480980E+04  0.37352480980E+04  0.00000000000E+00 0. -1.
         23    2    1    2    0    0  0.32246752207E+03 -0.51849699276E+03 -0.32172043812E+03  0.69634707446E+03  0.92578472236E+02 0.  0.
         11    1    3    3    0    0  0.13734701727E+03 -0.30810153767E+03 -0.17521403051E+03  0.38011934593E+03  0.00000000000E+00 0. -1.
        -11    1    3    3    0    0  0.18512050480E+03 -0.21039545509E+03 -0.14650640761E+03  0.31622772853E+03  0.00000000000E+00 0.  1.
         22    1    1    2    0    0 -0.32246752207E+03  0.51849699276E+03 -0.31973241011E+04  0.32551045823E+04  0.00000000000E+00 0. -1.
<mgrwt>
<rscale>  0 0.17973023E+04</rscale>
<asrwt>0</asrwt>
<pdfrwt beam="1">  1        2 0.57465355E+00 0.17973023E+04</pdfrwt>
<pdfrwt beam="2">  1       -2 0.33262086E-01 0.17973023E+04</pdfrwt>
<totfact> 0.44296182E+00</totfact>
</mgrwt>
</event>
<event>
 6    1  0.1762360E-005  0.3161747E+04  0.7818608E-02  0.8198993E-01
         -2   -1    0    0    0  501 -0.00000000000E+00  0.00000000000E+00  0.14079181242E+04  0.14079181242E+04  0.00000000000E+00 0.  1.
          2   -1    0    0  501    0  0.00000000000E+00 -0.00000000000E+00 -0.17750759486E+04  0.17750759486E+04  0.00000000000E+00 0. -1.
         23    2    1    2    0    0  0.10208452123E+04 -0.35947381940E+03 -0.13420208268E+04  0.17263869715E+04  0.89697834156E+02 0.  0.
         11    1    3    3    0    0  0.12417263849E+03 -0.69859125350E+02 -0.20528413160E+03  0.24988140434E+03  0.00000000000E+00 0. -1.
        -11    1    3    3    0    0  0.89667257377E+03 -0.28961469405E+03 -0.11367366952E+04  0.14765055671E+04  0.00000000000E+00 0.  1.
         22    1    1    2    0    0 -0.10208452123E+04  0.35947381940E+03  0.97486300236E+03  0.14566071013E+04  0.00000000000E+00 0.  1.
<mgrwt>
<rscale>  0 0.31617474E+04</rscale>
<asrwt>0</asrwt>
<pdfrwt beam="1">  1        2 0.27308861E+00 0.31617474E+04</pdfrwt>
<pdfrwt beam="2">  1       -2 0.21660279E+00 0.31617474E+04</pdfrwt>
<totfact> 0.78171748E-01</totfact>
</mgrwt>
</event>
<event>
 6    1  0.1762360E-005  0.1839387E+04  0.7818608E-02  0.8685630E-01
         -2   -1    0    0    0  501 -0.00000000000E+00  0.00000000000E+00  0.21079912175E+04  0.21079912175E+04  0.00000000000E+00 0.  1.
          2   -1    0    0  501    0  0.00000000000E+00 -0.00000000000E+00 -0.40125209255E+03  0.40125209255E+03  0.00000000000E+00 0. -1.
         23    2    1    2    0    0  0.33293960394E+03  0.61961955463E+03  0.52230210414E+02  0.71141770097E+03  0.92789967245E+02 0.  0.
         13    1    3    3    0    0  0.16068229265E+03  0.20465872344E+03  0.18013005900E+02  0.26082266127E+03  0.00000000000E+00 0.  1.
        -13    1    3    3    0    0  0.17225731129E+03  0.41496083120E+03  0.34217204514E+02  0.45059503970E+03  0.00000000000E+00 0. -1.
         22    1    1    2    0    0 -0.33293960394E+03 -0.61961955463E+03  0.16545089145E+04  0.17978256091E+04  0.00000000000E+00 0.  1.
<mgrwt>
<rscale>  0 0.18393867E+04</rscale>
<asrwt>0</asrwt>
<pdfrwt beam="1">  1        2 0.61731092E-01 0.18393867E+04</pdfrwt>
<pdfrwt beam="2">  1       -2 0.32430633E+00 0.18393867E+04</pdfrwt>
<totfact> 0.16834295E+00</totfact>
</mgrwt>
</event>
<event>
 6    1  0.1762360E-005  0.2136344E+04  0.7818608E-02  0.8545400E-01
          2   -1    0    0  501    0  0.00000000000E+00  0.00000000000E+00  0.21914564532E+04  0.21914564532E+04  0.00000000000E+00 0. -1.
         -2   -1    0    0    0  501 -0.00000000000E+00 -0.00000000000E+00 -0.52065442528E+03  0.52065442528E+03  0.00000000000E+00 0.  1.
         23    2    1    2    0    0  0.50711276073E+03  0.42099720508E+03 -0.22588962830E+03  0.70416634799E+03  0.10208879806E+03 0.  0.
         11    1    3    3    0    0  0.15757613422E+03  0.14399072545E+03 -0.12336962212E+03  0.24654336486E+03  0.00000000000E+00 0.  1.
        -11    1    3    3    0    0  0.34953662651E+03  0.27700647963E+03 -0.10252000618E+03  0.45762298313E+03  0.00000000000E+00 0. -1.
         22    1    1    2    0    0 -0.50711276073E+03 -0.42099720508E+03  0.18966916562E+04  0.20079445305E+04  0.00000000000E+00 0. -1.
<mgrwt>
<rscale>  0 0.21363441E+04</rscale>
<asrwt>0</asrwt>
<pdfrwt beam="1">  1        2 0.33714714E+00 0.21363441E+04</pdfrwt>
<pdfrwt beam="2">  1       -2 0.80100682E-01 0.21363441E+04</pdfrwt>
<totfact> 0.66121778E+00</totfact>
</mgrwt>
</event>
<event>
 6    1  0.1762360E-005  0.9794075E+03  0.7818608E-02  0.9331423E-01
         -3   -1    0    0    0  501 -0.00000000000E+00  0.00000000000E+00  0.58475799869E+03  0.58475799869E+03  0.00000000000E+00 0.  1.
          3   -1    0    0  501    0  0.00000000000E+00 -0.00000000000E+00 -0.41010087110E+03  0.41010087110E+03  0.00000000000E+00 0. -1.
         23    2    1    2    0    0 -0.14446987099E+03 -0.23788894447E+03  0.49191434290E+03  0.57282233797E+03  0.93182705460E+02 0.  0.
         11    1    3    3    0    0 -0.15201090173E+03 -0.21889372056E+03  0.41469263211E+03  0.49294193803E+03  0.00000000000E+00 0.  1.
        -11    1    3    3    0    0  0.75410307377E+01 -0.18995223906E+02  0.77221710797E+02  0.79880399938E+02  0.00000000000E+00 0. -1.
         22    1    1    2    0    0  0.14446987099E+03  0.23788894447E+03 -0.31725721532E+03  0.42203653182E+03  0.00000000000E+00 0. -1.
<mgrwt>
<rscale>  0 0.97940750E+03</rscale>
<asrwt>0</asrwt>
<pdfrwt beam="1">  1        3 0.63092442E-01 0.97940750E+03</pdfrwt>
<pdfrwt beam="2">  1       -3 0.89962769E-01 0.97940750E+03</pdfrwt>
<totfact> 0.71327065E+00</totfact>
</mgrwt>
</event>
<event>
 6    1  0.1762360E-005  0.5147998E+04  0.7818608E-02  0.7806074E-01
          2   -1    0    0  501    0  0.00000000000E+00  0.00000000000E+00  0.14508782546E+04  0.14508782546E+04  0.00000000000E+00 0.  1.
         -2   -1    0    0    0  501 -0.00000000000E+00 -0.00000000000E+00 -0.45665234658E+04  0.45665234658E+04  0.00000000000E+00 0. -1.
         23    2    1    2    0    0 -0.85055565841E+03 -0.24119983066E+04 -0.12277619571E+04  0.28385207946E+04  0.92844595556E+02 0.  0.
         13    1    3    3    0    0 -0.30995946411E+03 -0.86369961395E+03 -0.39165931723E+03  0.99772186169E+03  0.00000000000E+00 0.  1.
        -13    1    3    3    0    0 -0.54059619430E+03 -0.15482986927E+04 -0.83610263990E+03  0.18407989329E+04  0.00000000000E+00 0. -1.
         22    1    1    2    0    0  0.85055565841E+03  0.24119983066E+04 -0.18878832541E+04  0.31788809258E+04  0.00000000000E+00 0. -1.
<mgrwt>
<rscale>  0 0.51479975E+04</rscale>
<asrwt>0</asrwt>
<pdfrwt beam="1">  1        2 0.22321204E+00 0.51479975E+04</pdfrwt>
<pdfrwt beam="2">  1       -2 0.70254206E+00 0.51479975E+04</pdfrwt>
<totfact> 0.21916866E-03</totfact>
</mgrwt>
</event>
<event>
 6    1  0.1762360E-005  0.4286582E+04  0.7818608E-02  0.7949104E-01
         -1   -1    0    0    0  501 -0.00000000000E+00  0.00000000000E+00  0.31288853323E+04  0.31288853323E+04  0.00000000000E+00 0.  1.
          1   -1    0    0  501    0  0.00000000000E+00 -0.00000000000E+00 -0.14681571566E+04  0.14681571566E+04  0.00000000000E+00 0. -1.
         23    2    1    2    0    0  0.14872568936E+04  0.14941194248E+04  0.12396195488E+04  0.24472382190E+04  0.89399953101E+02 0.  0.
         11    1    3    3    0    0  0.12370320123E+04  0.12692681349E+04  0.10101936772E+04  0.20400443777E+04  0.00000000000E+00 0. -1.
        -11    1    3    3    0    0  0.25022488126E+03  0.22485128995E+03  0.22942587161E+03  0.40719384125E+03  0.00000000000E+00 0.  1.
         22    1    1    2    0    0 -0.14872568936E+04 -0.14941194248E+04  0.42110862697E+03  0.21498042699E+04  0.00000000000E+00 0.  1.
<mgrwt>
<rscale>  0 0.42865816E+04</rscale>
<asrwt>0</asrwt>
<pdfrwt beam="1">  1        1 0.22587033E+00 0.42865816E+04</pdfrwt>
<pdfrwt beam="2">  1       -1 0.48136697E+00 0.42865816E+04</pdfrwt>
<totfact> 0.10423920E-02</totfact>
</mgrwt>
</event>
<event>
 6    1  0.1762360E-005  0.2459759E+04  0.7818608E-02  0.8417464E-01
          2   -1    0    0  501    0  0.00000000000E+00  0.00000000000E+00  0.17460677265E+04  0.17460677265E+04  0.00000000000E+00 0. -1.
         -2   -1    0    0    0  501 -0.00000000000E+00 -0.00000000000E+00 -0.86629131570E+03  0.86629131570E+03  0.00000000000E+00 0.  1.
         23    2    1    2    0    0 -0.10249377877E+04 -0.61476381681E+03  0.13911568909E+03  0.12062970507E+04  0.85833445900E+02 0.  0.
         13    1    3    3    0    0 -0.48874079225E+03 -0.25124709962E+03  0.40504041855E+02  0.55102925918E+03  0.00000000000E+00 0.  1.
        -13    1    3    3    0    0 -0.53619699548E+03 -0.36351671720E+03  0.98611647233E+02  0.65526779153E+03  0.00000000000E+00 0. -1.
         22    1    1    2    0    0  0.10249377877E+04  0.61476381681E+03  0.74066072167E+03  0.14060619914E+04  0.00000000000E+00 0. -1.
<mgrwt>
<rscale>  0 0.24597588E+04</rscale>
<asrwt>0</asrwt>
<pdfrwt beam="1">  1        2 0.26862580E+00 0.24597588E+04</pdfrwt>
<pdfrwt beam="2">  1       -2 0.13327559E+00 0.24597588E+04</pdfrwt>
<totfact> 0.33730758E+00</totfact>
</mgrwt>
</event>
<event>
 6    1  0.1762360E-005  0.3459392E+04  0.7818608E-02  0.8123482E-01
          2   -1    0    0  501    0  0.00000000000E+00  0.00000000000E+00  0.17939948391E+04  0.17939948391E+04  0.00000000000E+00 0. -1.
         -2   -1    0    0    0  501 -0.00000000000E+00 -0.00000000000E+00 -0.16677015851E+04  0.16677015851E+04  0.00000000000E+00 0.  1.
         23    2    1    2    0    0 -0.14403260212E+04  0.66659568174E+03  0.74823276666E+03  0.17570857333E+04  0.92785509223E+02 0.  0.
         11    1    3    3    0    0 -0.43830773833E+03  0.17606310912E+03  0.26132782782E+03  0.53981860422E+03  0.00000000000E+00 0. -1.
        -11    1    3    3    0    0 -0.10020182829E+04  0.49053257262E+03  0.48690493884E+03  0.12172671291E+04  0.00000000000E+00 0.  1.
         22    1    1    2    0    0  0.14403260212E+04 -0.66659568174E+03 -0.62193951261E+03  0.17046106909E+04  0.00000000000E+00 0.  1.
<mgrwt>
<rscale>  0 0.34593919E+04</rscale>
<asrwt>0</asrwt>
<pdfrwt beam="1">  1        2 0.27599921E+00 0.34593919E+04</pdfrwt>
<pdfrwt beam="2">  1       -2 0.25656947E+00 0.34593919E+04</pdfrwt>
<totfact> 0.41981221E-01</totfact>
</mgrwt>
</event>
<event>
 6    1  0.1762360E-005  0.1981892E+04  0.7818608E-02  0.8615134E-01
          1   -1    0    0  501    0  0.00000000000E+00  0.00000000000E+00  0.97178002920E+03  0.97178002920E+03  0.00000000000E+00 0. -1.
         -1   -1    0    0    0  501 -0.00000000000E+00 -0.00000000000E+00 -0.10104898577E+04  0.10104898577E+04  0.00000000000E+00 0.  1.
         23    2    1    2    0    0  0.45900045966E+02  0.22830830345E+03 -0.98062247259E+03  0.10119962530E+04  0.91019155460E+02 0.  0.
         11    1    3    3    0    0 -0.20802952665E+02  0.12681609192E+03 -0.51625255057E+03  0.53200731196E+03  0.00000000000E+00 0. -1.
        -11    1    3    3    0    0  0.66702998631E+02  0.10149221153E+03 -0.46436992202E+03  0.47998894102E+03  0.00000000000E+00 0.  1.
         22    1    1    2    0    0 -0.45900045966E+02 -0.22830830345E+03  0.94191264407E+03  0.97027363393E+03  0.00000000000E+00 0. -1.
<mgrwt>
<rscale>  0 0.19818919E+04</rscale>
<asrwt>0</asrwt>
<pdfrwt beam="1">  1        1 0.14950462E+00 0.19818919E+04</pdfrwt>
<pdfrwt beam="2">  1       -1 0.15545998E+00 0.19818919E+04</pdfrwt>
<totfact> 0.46838774E+00</totfact>
</mgrwt>
</event>
<event>
 6    1  0.1762360E-005  0.1819689E+04  0.7818608E-02  0.8695898E-01
         -2   -1    0    0    0  501 -0.00000000000E+00  0.00000000000E+00  0.35008434832E+03  0.35008434832E+03  0.00000000000E+00 0.  1.
          2   -1    0    0  501    0  0.00000000000E+00 -0.00000000000E+00 -0.23646227777E+04  0.23646227777E+04  0.00000000000E+00 0. -1.
         23    2    1    2    0    0 -0.30154683785E+03 -0.64008947544E+03 -0.16200402686E+03  0.73164667699E+03  0.91741611267E+02 0.  0.
         13    1    3    3    0    0 -0.18435773742E+03 -0.36357888997E+03 -0.13798567392E+03  0.43036894728E+03  0.00000000000E+00 0.  1.
        -13    1    3    3    0    0 -0.11718910043E+03 -0.27651058547E+03 -0.24018352940E+02  0.30127772971E+03  0.00000000000E+00 0. -1.
         22    1    1    2    0    0  0.30154683785E+03  0.64008947544E+03 -0.18525344025E+04  0.19830604490E+04  0.00000000000E+00 0. -1.
<mgrwt>
<rscale>  0 0.18196895E+04</rscale>
<asrwt>0</asrwt>
<pdfrwt beam="1">  1        2 0.36378813E+00 0.18196895E+04</pdfrwt>
<pdfrwt beam="2">  1       -2 0.53859129E-01 0.18196895E+04</pdfrwt>
<totfact> 0.12757733E+01</totfact>
</mgrwt>
</event>
<event>
 6    1  0.1762360E-005  0.3506988E+04  0.7818608E-02  0.8112136E-01
         -2   -1    0    0    0  501 -0.00000000000E+00  0.00000000000E+00  0.10041751846E+04  0.10041751846E+04  0.00000000000E+00 0. -1.
          2   -1    0    0  501    0  0.00000000000E+00 -0.00000000000E+00 -0.30619561901E+04  0.30619561901E+04  0.00000000000E+00 0.  1.
         23    2    1    2    0    0  0.10802978172E+04  0.11240135644E+04 -0.10204801108E+03  0.15650633203E+04  0.92517746198E+02 0.  0.
         13    1    3    3    0    0  0.55213109720E+03  0.50811098792E+03 -0.44341395696E+02  0.75165928712E+03  0.00000000000E+00 0. -1.
        -13    1    3    3    0    0  0.52816671998E+03  0.61590257645E+03 -0.57706615380E+02  0.81340403321E+03  0.00000000000E+00 0.  1.
         22    1    1    2    0    0 -0.10802978172E+04 -0.11240135644E+04 -0.19557329945E+04  0.25010680543E+04  0.00000000000E+00 0.  1.
<mgrwt>
<rscale>  0 0.35069876E+04</rscale>
<asrwt>0</asrwt>
<pdfrwt beam="1">  1        2 0.47107018E+00 0.35069876E+04</pdfrwt>
<pdfrwt beam="2">  1       -2 0.15448849E+00 0.35069876E+04</pdfrwt>
<totfact> 0.36164957E-01</totfact>
</mgrwt>
</event>
<event>
 6    1  0.1762360E-005  0.1945943E+04  0.7818608E-02  0.8632320E-01
          2   -1    0    0  501    0  0.00000000000E+00  0.00000000000E+00  0.24013109563E+04  0.24013109563E+04  0.00000000000E+00 0. -1.
         -2   -1    0    0    0  501 -0.00000000000E+00 -0.00000000000E+00 -0.39423204786E+03  0.39423204786E+03  0.00000000000E+00 0.  1.
         23    2    1    2    0    0  0.72636650066E+03  0.54689928599E+03  0.14945252165E+04  0.17517909218E+04  0.91971130072E+02 0.  0.
         11    1    3    3    0    0  0.45394565696E+03  0.34767142369E+03  0.10226018784E+04  0.11716043188E+04  0.00000000000E+00 0.  1.
        -11    1    3    3    0    0  0.27242084370E+03  0.19922786230E+03  0.47192333811E+03  0.58018660296E+03  0.00000000000E+00 0. -1.
         22    1    1    2    0    0 -0.72636650066E+03 -0.54689928599E+03  0.51255369202E+03  0.10437520824E+04  0.00000000000E+00 0.  1.
<mgrwt>
<rscale>  0 0.19459432E+04</rscale>
<asrwt>0</asrwt>
<pdfrwt beam="1">  1        2 0.36943245E+00 0.19459432E+04</pdfrwt>
<pdfrwt beam="2">  1       -2 0.60651086E-01 0.19459432E+04</pdfrwt>
<totfact> 0.93783189E+00</totfact>
</mgrwt>
</event>
<event>
 6    1  0.1762360E-005  0.4971790E+04  0.7818608E-02  0.7832874E-01
         -1   -1    0    0    0  501 -0.00000000000E+00  0.00000000000E+00  0.27011045363E+04  0.27011045363E+04  0.00000000000E+00 0.  1.
          1   -1    0    0  501    0  0.00000000000E+00 -0.00000000000E+00 -0.22878317846E+04  0.22878317846E+04  0.00000000000E+00 0. -1.
         23    2    1    2    0    0  0.16640562487E+04  0.18098738246E+04  0.56946805971E+03  0.25253772219E+04  0.92248480201E+02 0.  0.
         11    1    3    3    0    0  0.14411544328E+04  0.15196389276E+04  0.49032015108E+03  0.21509631378E+04  0.00000000000E+00 0. -1.
        -11    1    3    3    0    0  0.22290181590E+03  0.29023489700E+03  0.79147908628E+02  0.37441408415E+03  0.00000000000E+00 0.  1.
         22    1    1    2    0    0 -0.16640562487E+04 -0.18098738246E+04 -0.15619530804E+03  0.24635590990E+04  0.00000000000E+00 0. -1.
<mgrwt>
<rscale>  0 0.49717895E+04</rscale>
<asrwt>0</asrwt>
<pdfrwt beam="1">  1        1 0.35197412E+00 0.49717895E+04</pdfrwt>
<pdfrwt beam="2">  1       -1 0.41555454E+00 0.49717895E+04</pdfrwt>
<totfact> 0.76863136E-03</totfact>
</mgrwt>
</event>
<event>
 6    1  0.1762360E-005  0.1514609E+04  0.7818608E-02  0.8874796E-01
         -2   -1    0    0    0  501 -0.00000000000E+00  0.00000000000E+00  0.13279586421E+03  0.13279586421E+03  0.00000000000E+00 0.  1.
          2   -1    0    0  501    0  0.00000000000E+00 -0.00000000000E+00 -0.43187356069E+04  0.43187356069E+04  0.00000000000E+00 0. -1.
         23    2    1    2    0    0 -0.66971828273E+03  0.25199974671E+03 -0.28049635357E+04  0.28961788632E+04  0.89471339789E+02 0.  0.
         13    1    3    3    0    0 -0.32629702835E+03  0.16779031033E+03 -0.14887023785E+04  0.15332508310E+04  0.00000000000E+00 0. -1.
        -13    1    3    3    0    0 -0.34342125438E+03  0.84209436375E+02 -0.13162611572E+04  0.13629280323E+04  0.00000000000E+00 0.  1.
         22    1    1    2    0    0  0.66971828273E+03 -0.25199974671E+03 -0.13809762070E+04  0.15553526079E+04  0.00000000000E+00 0. -1.
<mgrwt>
<rscale>  0 0.15146092E+04</rscale>
<asrwt>0</asrwt>
<pdfrwt beam="1">  1        2 0.66442084E+00 0.15146092E+04</pdfrwt>
<pdfrwt beam="2">  1       -2 0.20430134E-01 0.15146092E+04</pdfrwt>
<totfact> 0.37362529E+00</totfact>
</mgrwt>
</event>
<event>
 6    1  0.1762360E-005  0.2916939E+04  0.7818608E-02  0.8267855E-01
         -2   -1    0    0    0  501 -0.00000000000E+00  0.00000000000E+00  0.15750126543E+04  0.15750126543E+04  0.00000000000E+00 0.  1.
          2   -1    0    0  501    0  0.00000000000E+00 -0.00000000000E+00 -0.13505501684E+04  0.13505501684E+04  0.00000000000E+00 0. -1.
         23    2    1    2    0    0  0.14116862655E+04 -0.11050613725E+03 -0.22799586017E+03  0.14390271610E+04  0.11724904721E+03 0.  0.
         13    1    3    3    0    0  0.23263727722E+03 -0.61808368217E+02 -0.44662573786E+02  0.24481650808E+03  0.00000000000E+00 0.  1.
        -13    1    3    3    0    0  0.11790489883E+04 -0.48697769034E+02 -0.18333328638E+03  0.11942106529E+04  0.00000000000E+00 0. -1.
         22    1    1    2    0    0 -0.14116862655E+04  0.11050613725E+03  0.45245834614E+03  0.14865356618E+04  0.00000000000E+00 0.  1.
<mgrwt>
<rscale>  0 0.29169392E+04</rscale>
<asrwt>0</asrwt>
<pdfrwt beam="1">  1        2 0.20777695E+00 0.29169392E+04</pdfrwt>
<pdfrwt beam="2">  1       -2 0.24230964E+00 0.29169392E+04</pdfrwt>
<totfact> 0.95449283E-01</totfact>
</mgrwt>
</event>
<event>
 6    1  0.1762360E-005  0.4832394E+04  0.7818608E-02  0.7854895E-01
          2   -1    0    0  501    0  0.00000000000E+00  0.00000000000E+00  0.18629974657E+04  0.18629974657E+04  0.00000000000E+00 0. -1.
         -2   -1    0    0    0  501 -0.00000000000E+00 -0.00000000000E+00 -0.31336639050E+04  0.31336639050E+04  0.00000000000E+00 0.  1.
         23    2    1    2    0    0  0.53364532961E+03 -0.13295702535E+04 -0.26462850550E+04  0.30104939627E+04  0.87834563415E+02 0.  0.
         13    1    3    3    0    0  0.23971670849E+03 -0.59187978102E+03 -0.12715307914E+04  0.14228760764E+04  0.00000000000E+00 0. -1.
        -13    1    3    3    0    0  0.29392862113E+03 -0.73769047248E+03 -0.13747542636E+04  0.15876178863E+04  0.00000000000E+00 0.  1.
         22    1    1    2    0    0 -0.53364532961E+03  0.13295702535E+04  0.13756186156E+04  0.19861674080E+04  0.00000000000E+00 0. -1.
<mgrwt>
<rscale>  0 0.48323940E+04</rscale>
<asrwt>0</asrwt>
<pdfrwt beam="1">  1        2 0.28661500E+00 0.48323940E+04</pdfrwt>
<pdfrwt beam="2">  1       -2 0.48210213E+00 0.48323940E+04</pdfrwt>
<totfact> 0.12628167E-02</totfact>
</mgrwt>
</event>
<event>
 6    1  0.1762360E-005  0.1936252E+04  0.7818608E-02  0.8637019E-01
         -1   -1    0    0    0  501 -0.00000000000E+00  0.00000000000E+00  0.25921168672E+03  0.25921168672E+03  0.00000000000E+00 0.  1.
          1   -1    0    0  501    0  0.00000000000E+00 -0.00000000000E+00 -0.36158381025E+04  0.36158381025E+04  0.00000000000E+00 0. -1.
         23    2    1    2    0    0 -0.18126345693E+03  0.65295020474E+03 -0.30597537578E+04  0.31352296856E+04  0.91497060636E+02 0.  0.
         13    1    3    3    0    0 -0.17312125049E+03  0.57001152502E+03 -0.27902524962E+04  0.28531374132E+04  0.00000000000E+00 0. -1.
        -13    1    3    3    0    0 -0.81422064362E+01  0.82938679719E+02 -0.26950126164E+03  0.28209227239E+03  0.00000000000E+00 0.  1.
         22    1    1    2    0    0  0.18126345693E+03 -0.65295020474E+03 -0.29687265792E+03  0.73982010361E+03  0.00000000000E+00 0.  1.
<mgrwt>
<rscale>  0 0.19362515E+04</rscale>
<asrwt>0</asrwt>
<pdfrwt beam="1">  1        1 0.55628277E+00 0.19362515E+04</pdfrwt>
<pdfrwt beam="2">  1       -1 0.39878722E-01 0.19362515E+04</pdfrwt>
<totfact> 0.11608002E+00</totfact>
</mgrwt>
</event>
<event>
 6    1  0.1762360E-005  0.3041273E+04  0.7818608E-02  0.8232042E-01
         -2   -1    0    0    0  501 -0.00000000000E+00  0.00000000000E+00  0.79569092614E+03  0.79569092614E+03  0.00000000000E+00 0.  1.
          2   -1    0    0  501    0  0.00000000000E+00 -0.00000000000E+00 -0.29060727526E+04  0.29060727526E+04  0.00000000000E+00 0. -1.
         23    2    1    2    0    0 -0.10367289069E+04 -0.33408456169E+03 -0.23451930921E+04  0.25875125172E+04  0.94186341478E+02 0.  0.
         11    1    3    3    0    0 -0.27244522076E+03 -0.44913023877E+02 -0.59745927390E+03  0.65818018962E+03  0.00000000000E+00 0.  1.
        -11    1    3    3    0    0 -0.76428368609E+03 -0.28917153781E+03 -0.17477338182E+04  0.19293323276E+04  0.00000000000E+00 0. -1.
         22    1    1    2    0    0  0.10367289069E+04  0.33408456169E+03  0.23481126555E+03  0.11142511616E+04  0.00000000000E+00 0.  1.
<mgrwt>
<rscale>  0 0.30412732E+04</rscale>
<asrwt>0</asrwt>
<pdfrwt beam="1">  1        2 0.44708812E+00 0.30412732E+04</pdfrwt>
<pdfrwt beam="2">  1       -2 0.12241399E+00 0.30412732E+04</pdfrwt>
<totfact> 0.85811919E-01</totfact>
</mgrwt>
</event>
<event>
 6    1  0.1762360E-005  0.5695207E+03  0.7818608E-02  0.9970740E-01
          1   -1    0    0  501    0  0.00000000000E+00  0.00000000000E+00  0.94554199163E+03  0.94554199163E+03  0.00000000000E+00 0. -1.
         -1   -1    0    0    0  501 -0.00000000000E+00 -0.00000000000E+00 -0.85758712782E+02  0.85758712782E+02  0.00000000000E+00 0.  1.
         23    2    1    2    0    0 -0.27372814166E+03  0.45780474294E+02  0.44539089910E+03  0.53255829419E+03  0.90677099333E+02 0.  0.
         13    1    3    3    0    0 -0.16860768609E+03  0.65458328645E+01  0.33531058373E+03  0.37537259796E+03  0.00000000000E+00 0. -1.
        -13    1    3    3    0    0 -0.10512045557E+03  0.39234641430E+02  0.11008031537E+03  0.15718569623E+03  0.00000000000E+00 0.  1.
         22    1    1    2    0    0  0.27372814166E+03 -0.45780474294E+02  0.41439237974E+03  0.49874241022E+03  0.00000000000E+00 0. -1.
<mgrwt>
<rscale>  0 0.56952073E+03</rscale>
<asrwt>0</asrwt>
<pdfrwt beam="1">  1        1 0.14546799E+00 0.56952073E+03</pdfrwt>
<pdfrwt beam="2">  1       -1 0.13193649E-01 0.56952073E+03</pdfrwt>
<totfact> 0.68619591E+02</totfact>
</mgrwt>
</event>
<event>
 6    1  0.1762360E-005  0.1252964E+04  0.7818608E-02  0.9067720E-01
          2   -1    0    0  501    0  0.00000000000E+00  0.00000000000E+00  0.18579100279E+04  0.18579100279E+04  0.00000000000E+00 0. -1.
         -2   -1    0    0    0  501 -0.00000000000E+00 -0.00000000000E+00 -0.21124795180E+03  0.21124795180E+03  0.00000000000E+00 0.  1.
         23    2    1    2    0    0 -0.22879207491E+03 -0.57841158374E+03  0.89137817584E+03  0.10907104626E+04  0.90490259840E+02 0.  0.
         11    1    3    3    0    0 -0.14965601599E+03 -0.29384236271E+03  0.41305189215E+03  0.52853772132E+03  0.00000000000E+00 0. -1.
        -11    1    3    3    0    0 -0.79136058911E+02 -0.28456922103E+03  0.47832628369E+03  0.56217274128E+03  0.00000000000E+00 0.  1.
         22    1    1    2    0    0  0.22879207491E+03  0.57841158374E+03  0.75528390027E+03  0.97844751712E+03  0.00000000000E+00 0. -1.
<mgrwt>
<rscale>  0 0.12529640E+04</rscale>
<asrwt>0</asrwt>
<pdfrwt beam="1">  1        2 0.28583230E+00 0.12529640E+04</pdfrwt>
<pdfrwt beam="2">  1       -2 0.32499686E-01 0.12529640E+04</pdfrwt>
<totfact> 0.69535977E+01</totfact>
</mgrwt>
</event>
<event>
 6    1  0.1762360E-005  0.6189996E+03  0.7818608E-02  0.9866754E-01
         -2   -1    0    0    0  501 -0.00000000000E+00  0.00000000000E+00  0.30106228884E+02  0.30106228884E+02  0.00000000000E+00 0.  1.
          2   -1    0    0  501    0  0.00000000000E+00 -0.00000000000E+00 -0.31817378713E+04  0.31817378713E+04  0.00000000000E+00 0. -1.
         23    2    1    2    0    0 -0.23472924524E+03  0.64542636708E+02 -0.25438914243E+04  0.25571596393E+04  0.91751141852E+02 0.  0.
         13    1    3    3    0    0 -0.17421907777E+03  0.55994111601E+01 -0.18320366029E+04  0.18403102333E+04  0.00000000000E+00 0. -1.
        -13    1    3    3    0    0 -0.60510167475E+02  0.58943225548E+02 -0.71185482140E+03  0.71684940605E+03  0.00000000000E+00 0.  1.
         22    1    1    2    0    0  0.23472924524E+03 -0.64542636708E+02 -0.60774021813E+03  0.65468446083E+03  0.00000000000E+00 0.  1.
<mgrwt>
<rscale>  0 0.61899961E+03</rscale>
<asrwt>0</asrwt>
<pdfrwt beam="1">  1        2 0.48949770E+00 0.61899961E+03</pdfrwt>
<pdfrwt beam="2">  1       -2 0.46317316E-02 0.61899961E+03</pdfrwt>
<totfact> 0.33438383E+02</totfact>
</mgrwt>
</event>
<event>
 6    1  0.1762360E-005  0.3168138E+04  0.7818608E-02  0.8197283E-01
          1   -1    0    0  501    0  0.00000000000E+00  0.00000000000E+00  0.65520744450E+03  0.65520744450E+03  0.00000000000E+00 0. -1.
         -1   -1    0    0    0  501 -0.00000000000E+00 -0.00000000000E+00 -0.38297417709E+04  0.38297417709E+04  0.00000000000E+00 0.  1.
         23    2    1    2    0    0  0.10138667732E+04  0.47354469663E+03 -0.39843535228E+01  0.11227241271E+04  0.91231447620E+02 0.  0.
         13    1    3    3    0    0  0.68907191149E+03  0.33742611828E+03  0.37233973588E+02  0.76815548771E+03  0.00000000000E+00 0.  1.
        -13    1    3    3    0    0  0.32479486174E+03  0.13611857835E+03 -0.41218327111E+02  0.35456863944E+03  0.00000000000E+00 0. -1.
         22    1    1    2    0    0 -0.10138667732E+04 -0.47354469663E+03 -0.31705499729E+04  0.33622250883E+04  0.00000000000E+00 0.  1.
<mgrwt>
<rscale>  0 0.31681385E+04</rscale>
<asrwt>0</asrwt>
<pdfrwt beam="1">  1        1 0.10080115E+00 0.31681385E+04</pdfrwt>
<pdfrwt beam="2">  1       -1 0.58919103E+00 0.31681385E+04</pdfrwt>
<totfact> 0.12218464E-02</totfact>
</mgrwt>
</event>
<event>
 6    1  0.1762360E-005  0.1326728E+04  0.7818608E-02  0.9008634E-01
         -2   -1    0    0    0  501 -0.00000000000E+00  0.00000000000E+00  0.25222730251E+03  0.25222730251E+03  0.00000000000E+00 0.  1.
          2   -1    0    0  501    0  0.00000000000E+00 -0.00000000000E+00 -0.17446623305E+04  0.17446623305E+04  0.00000000000E+00 0. -1.
         23    2    1    2    0    0  0.48634498117E+03  0.14541795757E+03 -0.11417493807E+03  0.52812188468E+03  0.90548249578E+02 0.  0.
         11    1    3    3    0    0  0.32786645040E+03  0.91776810331E+02 -0.11920905722E+03  0.36073562554E+03  0.00000000000E+00 0.  1.
        -11    1    3    3    0    0  0.15847853077E+03  0.53641147237E+02  0.50341191522E+01  0.16738625913E+03  0.00000000000E+00 0. -1.
         22    1    1    2    0    0 -0.48634498117E+03 -0.14541795757E+03 -0.13782600899E+04  0.14687677483E+04  0.00000000000E+00 0. -1.
<mgrwt>
<rscale>  0 0.13267275E+04</rscale>
<asrwt>0</asrwt>
<pdfrwt beam="1">  1        2 0.26840959E+00 0.13267275E+04</pdfrwt>
<pdfrwt beam="2">  1       -2 0.38804201E-01 0.13267275E+04</pdfrwt>
<totfact> 0.56864084E+01</totfact>
</mgrwt>
</event>
<event>
 6    1  0.1762360E-005  0.2773917E+04  0.7818608E-02  0.8311412E-01
         -2   -1    0    0    0  501 -0.00000000000E+00  0.00000000000E+00  0.86071970999E+03  0.86071970999E+03  0.00000000000E+00 0.  1.
          2   -1    0    0  501    0  0.00000000000E+00 -0.00000000000E+00 -0.22349370503E+04  0.22349370503E+04  0.00000000000E+00 0. -1.
         23    2    1    2    0    0 -0.11140409668E+04  0.23294414358E+03 -0.15694483529E+04  0.19408990376E+04  0.92578032478E+02 0.  0.
         11    1    3    3    0    0 -0.30166466256E+03  0.87882232997E+02 -0.49126263394E+03  0.58314992157E+03  0.00000000000E+00 0.  1.
        -11    1    3    3    0    0 -0.81237630428E+03  0.14506191058E+03 -0.10781857189E+04  0.13577491160E+04  0.00000000000E+00 0. -1.
         22    1    1    2    0    0  0.11140409668E+04 -0.23294414358E+03  0.19523101254E+03  0.11547577227E+04  0.00000000000E+00 0.  1.
<mgrwt>
<rscale>  0 0.27739174E+04</rscale>
<asrwt>0</asrwt>
<pdfrwt beam="1">  1        2 0.34383647E+00 0.27739174E+04</pdfrwt>
<pdfrwt beam="2">  1       -2 0.13241842E+00 0.27739174E+04</pdfrwt>
<totfact> 0.17832986E+00</totfact>
</mgrwt>
</event>
<event>
 6    1  0.1762360E-005  0.1400962E+04  0.7818608E-02  0.8953123E-01
          1   -1    0    0  501    0  0.00000000000E+00  0.00000000000E+00  0.52131092297E+03  0.52131092297E+03  0.00000000000E+00 0. -1.
         -1   -1    0    0    0  501 -0.00000000000E+00 -0.00000000000E+00 -0.94123014961E+03  0.94123014961E+03  0.00000000000E+00 0.  1.
         23    2    1    2    0    0 -0.48243932518E+03  0.70304866158E+02 -0.73160222435E+03  0.88389025580E+03  0.91267151475E+02 0.  0.
         11    1    3    3    0    0 -0.35125568894E+03  0.19214550707E+02 -0.56737053611E+03  0.66757702418E+03  0.00000000000E+00 0.  1.
        -11    1    3    3    0    0 -0.13118363625E+03  0.51090315451E+02 -0.16423168824E+03  0.21631323162E+03  0.00000000000E+00 0. -1.
         22    1    1    2    0    0  0.48243932518E+03 -0.70304866158E+02  0.31168299771E+03  0.57865081677E+03  0.00000000000E+00 0. -1.
<mgrwt>
<rscale>  0 0.14009619E+04</rscale>
<asrwt>0</asrwt>
<pdfrwt beam="1">  1        1 0.80201681E-01 0.14009619E+04</pdfrwt>
<pdfrwt beam="2">  1       -1 0.14480464E+00 0.14009619E+04</pdfrwt>
<totfact> 0.15638430E+01</totfact>
</mgrwt>
</event>
<event>
 6    1  0.1762360E-005  0.1172958E+04  0.7818608E-02  0.9136861E-01
         -1   -1    0    0    0  501 -0.00000000000E+00  0.00000000000E+00  0.12275884907E+04  0.12275884907E+04  0.00000000000E+00 0.  1.
          1   -1    0    0  501    0  0.00000000000E+00 -0.00000000000E+00 -0.28018974724E+03  0.28018974724E+03  0.00000000000E+00 0. -1.
         23    2    1    2    0    0  0.47188274343E+02 -0.44473979588E+03  0.95858268754E+03  0.10604022218E+04  0.74510964353E+02 0.  0.
         11    1    3    3    0    0  0.85034452209E+01 -0.20241082709E+03  0.35325399562E+03  0.40722332561E+03  0.00000000000E+00 0. -1.
        -11    1    3    3    0    0  0.38684829122E+02 -0.24232896878E+03  0.60532869192E+03  0.65317889615E+03  0.00000000000E+00 0.  1.
         22    1    1    2    0    0 -0.47188274343E+02  0.44473979588E+03 -0.11183944048E+02  0.44737601621E+03  0.00000000000E+00 0. -1.
<mgrwt>
<rscale>  0 0.11729582E+04</rscale>
<asrwt>0</asrwt>
<pdfrwt beam="1">  1        1 0.43106116E-01 0.11729582E+04</pdfrwt>
<pdfrwt beam="2">  1       -1 0.18885977E+00 0.11729582E+04</pdfrwt>
<totfact> 0.17111595E+01</totfact>
</mgrwt>
</event>
<event>
 6    1  0.1762360E-005  0.8247843E+04  0.7818608E-02  0.7460861E-01
          2   -1    0    0  501    0  0.00000000000E+00  0.00000000000E+00  0.35011479019E+04  0.35011479019E+04  0.00000000000E+00 0. -1.
         -2   -1    0    0    0  501 -0.00000000000E+00 -0.00000000000E+00 -0.48574725272E+04  0.48574725272E+04  0.00000000000E+00 0.  1.
         23    2    1    2    0    0 -0.30007779526E+04  0.24998432785E+03 -0.35330319705E+04  0.46430834085E+04  0.93531541462E+02 0.  0.
         11    1    3    3    0    0 -0.56760376253E+03  0.63643374034E+02 -0.62029954058E+03  0.84320580545E+03  0.00000000000E+00 0. -1.
        -11    1    3    3    0    0 -0.24331741900E+04  0.18634095381E+03 -0.29127324299E+04  0.37998776031E+04  0.00000000000E+00 0.  1.
         22    1    1    2    0    0  0.30007779526E+04 -0.24998432785E+03  0.21767073451E+04  0.37155370205E+04  0.00000000000E+00 0. -1.
<mgrwt>
<rscale>  0 0.82478433E+04</rscale>
<asrwt>0</asrwt>
<pdfrwt beam="1">  1        2 0.53863814E+00 0.82478433E+04</pdfrwt>
<pdfrwt beam="2">  1       -2 0.74730346E+00 0.82478433E+04</pdfrwt>
<totfact> 0.69556012E-05</totfact>
</mgrwt>
</event>
<event>
 6    1  0.1762360E-005  0.2202518E+04  0.7818608E-02  0.8517381E-01
          2   -1    0    0  501    0  0.00000000000E+00  0.00000000000E+00  0.14317393060E+04  0.14317393060E+04  0.00000000000E+00 0. -1.
         -2   -1    0    0    0  501 -0.00000000000E+00 -0.00000000000E+00 -0.84706134854E+03  0.84706134854E+03  0.00000000000E+00 0.  1.
         23    2    1    2    0    0 -0.82086863978E+03  0.47799854511E+03 -0.27729641906E+03  0.99610514948E+03  0.11412375694E+03 0.  0.
         13    1    3    3    0    0 -0.45772307578E+03  0.29903585919E+03 -0.10814467459E+03  0.55734022807E+03  0.00000000000E+00 0. -1.
        -13    1    3    3    0    0 -0.36314556400E+03  0.17896268592E+03 -0.16915174446E+03  0.43876492141E+03  0.00000000000E+00 0.  1.
         22    1    1    2    0    0  0.82086863978E+03 -0.47799854511E+03  0.86197437651E+03  0.12826955050E+04  0.00000000000E+00 0. -1.
<mgrwt>
<rscale>  0 0.22025177E+04</rscale>
<asrwt>0</asrwt>
<pdfrwt beam="1">  1        2 0.22026758E+00 0.22025177E+04</pdfrwt>
<pdfrwt beam="2">  1       -2 0.13031713E+00 0.22025177E+04</pdfrwt>
<totfact> 0.54752894E+00</totfact>
</mgrwt>
</event>
<event>
 6    1  0.1762360E-005  0.4488917E+04  0.7818608E-02  0.7912580E-01
          2   -1    0    0  501    0  0.00000000000E+00  0.00000000000E+00  0.38884915707E+04  0.38884915707E+04  0.00000000000E+00 0. -1.
         -2   -1    0    0    0  501 -0.00000000000E+00 -0.00000000000E+00 -0.12955138184E+04  0.12955138184E+04  0.00000000000E+00 0.  1.
         23    2    1    2    0    0 -0.13129655770E+04 -0.25971780950E+03 -0.78255933269E+03  0.15528096412E+04  0.86525866547E+02 0.  0.
         13    1    3    3    0    0 -0.88971168082E+03 -0.15205571286E+03 -0.56530188771E+03  0.10650230228E+04  0.00000000000E+00 0. -1.
        -13    1    3    3    0    0 -0.42325389622E+03 -0.10766209663E+03 -0.21725744498E+03  0.48778661843E+03  0.00000000000E+00 0.  1.
         22    1    1    2    0    0  0.13129655770E+04  0.25971780950E+03  0.33755370850E+04  0.36311957478E+04  0.00000000000E+00 0. -1.
<mgrwt>
<rscale>  0 0.44889173E+04</rscale>
<asrwt>0</asrwt>
<pdfrwt beam="1">  1        2 0.59822947E+00 0.44889173E+04</pdfrwt>
<pdfrwt beam="2">  1       -2 0.19930982E+00 0.44889173E+04</pdfrwt>
<totfact> 0.42623913E-02</totfact>
</mgrwt>
</event>
<event>
 6    1  0.1762360E-005  0.1270061E+04  0.7818608E-02  0.9053650E-01
          2   -1    0    0  501    0  0.00000000000E+00  0.00000000000E+00  0.20120139118E+04  0.20120139118E+04  0.00000000000E+00 0. -1.
         -2   -1    0    0    0  501 -0.00000000000E+00 -0.00000000000E+00 -0.20042789825E+03  0.20042789825E+03  0.00000000000E+00 0.  1.
         23    2    1    2    0    0 -0.17450296099E+03  0.30326651387E+03 -0.60424469162E+01  0.36144340861E+03  0.90459740422E+02 0.  0.
         13    1    3    3    0    0 -0.71410188397E+02  0.72303953406E+02 -0.33567405670E+02  0.10702358342E+03  0.00000000000E+00 0. -1.
        -13    1    3    3    0    0 -0.10309277259E+03  0.23096256046E+03  0.27524958754E+02  0.25441982519E+03  0.00000000000E+00 0.  1.
         22    1    1    2    0    0  0.17450296099E+03 -0.30326651387E+03  0.18176284605E+04  0.18509984014E+04  0.00000000000E+00 0. -1.
<mgrwt>
<rscale>  0 0.12700610E+04</rscale>
<asrwt>0</asrwt>
<pdfrwt beam="1">  1        2 0.30954059E+00 0.12700610E+04</pdfrwt>
<pdfrwt beam="2">  1       -2 0.30835063E-01 0.12700610E+04</pdfrwt>
<totfact> 0.63009326E+01</totfact>
</mgrwt>
</event>
<event>
 6    1  0.1762360E-005  0.1946533E+04  0.7818608E-02  0.8632034E-01
         -1   -1    0    0    0  501 -0.00000000000E+00  0.00000000000E+00  0.23498580238E+03  0.23498580238E+03  0.00000000000E+00 0.  1.
          1   -1    0    0  501    0  0.00000000000E+00 -0.00000000000E+00 -0.40310863652E+04  0.40310863652E+04  0.00000000000E+00 0. -1.
         23    2    1    2    0    0 -0.19340118321E+03  0.26702236655E+03 -0.39041569994E+04  0.39191122918E+04  0.91073147663E+02 0.  0.
         13    1    3    3    0    0 -0.11657681111E+03  0.22478208062E+03 -0.27520842556E+04  0.27637085387E+04  0.00000000000E+00 0.  1.
        -13    1    3    3    0    0 -0.76824372094E+02  0.42240285930E+02 -0.11520727437E+04  0.11554037531E+04  0.00000000000E+00 0. -1.
         22    1    1    2    0    0  0.19340118321E+03 -0.26702236655E+03  0.10805643656E+03  0.34695987576E+03  0.00000000000E+00 0.  1.
<mgrwt>
<rscale>  0 0.19465334E+04</rscale>
<asrwt>0</asrwt>
<pdfrwt beam="1">  1        1 0.62016711E+00 0.19465334E+04</pdfrwt>
<pdfrwt beam="2">  1       -1 0.36151663E-01 0.19465334E+04</pdfrwt>
<totfact> 0.62024338E-01</totfact>
</mgrwt>
</event>
<event>
 6    1  0.1762360E-005  0.3244513E+04  0.7818608E-02  0.8177159E-01
          2   -1    0    0  501    0  0.00000000000E+00  0.00000000000E+00  0.26801228145E+04  0.26801228145E+04  0.00000000000E+00 0. -1.
         -2   -1    0    0    0  501 -0.00000000000E+00 -0.00000000000E+00 -0.98193882183E+03  0.98193882183E+03  0.00000000000E+00 0.  1.
         23    2    1    2    0    0 -0.38248794317E+02 -0.83004725721E+03  0.24207029756E+04  0.25609371656E+04  0.90304210415E+02 0.  0.
         11    1    3    3    0    0 -0.51737211034E+02 -0.24151338699E+03  0.73697226138E+03  0.77726029691E+03  0.00000000000E+00 0. -1.
        -11    1    3    3    0    0  0.13488416717E+02 -0.58853387021E+03  0.16837307142E+04  0.17836768687E+04  0.00000000000E+00 0.  1.
         22    1    1    2    0    0  0.38248794317E+02  0.83004725721E+03 -0.72251898292E+03  0.11011244708E+04  0.00000000000E+00 0.  1.
<mgrwt>
<rscale>  0 0.32445133E+04</rscale>
<asrwt>0</asrwt>
<pdfrwt beam="1">  1        2 0.41232658E+00 0.32445133E+04</pdfrwt>
<pdfrwt beam="2">  1       -2 0.15106751E+00 0.32445133E+04</pdfrwt>
<totfact> 0.67292513E-01</totfact>
</mgrwt>
</event>
<event>
 6    1  0.1762360E-005  0.7179854E+03  0.7818608E-02  0.9686960E-01
         -2   -1    0    0    0  501 -0.00000000000E+00  0.00000000000E+00  0.22137589672E+03  0.22137589672E+03  0.00000000000E+00 0.  1.
          2   -1    0    0  501    0  0.00000000000E+00 -0.00000000000E+00 -0.58215800478E+03  0.58215800478E+03  0.00000000000E+00 0. -1.
         23    2    1    2    0    0 -0.16776106280E+03 -0.30284016325E+02  0.16308829382E+03  0.25262456795E+03  0.90335402341E+02 0.  0.
         13    1    3    3    0    0 -0.48036756601E+02  0.11781522022E+02  0.98530462398E+02  0.11024784019E+03  0.00000000000E+00 0.  1.
        -13    1    3    3    0    0 -0.11972430620E+03 -0.42065538347E+02  0.64557831421E+02  0.14237672776E+03  0.00000000000E+00 0. -1.
         22    1    1    2    0    0  0.16776106280E+03  0.30284016325E+02 -0.52387040187E+03  0.55090933355E+03  0.00000000000E+00 0. -1.
<mgrwt>
<rscale>  0 0.71798538E+03</rscale>
<asrwt>0</asrwt>
<pdfrwt beam="1">  1        2 0.89562769E-01 0.71798538E+03</pdfrwt>
<pdfrwt beam="2">  1       -2 0.34057831E-01 0.71798538E+03</pdfrwt>
<totfact> 0.41792380E+02</totfact>
</mgrwt>
</event>
<event>
 6    1  0.1762360E-005  0.2629463E+04  0.7818608E-02  0.8358262E-01
          2   -1    0    0  501    0  0.00000000000E+00  0.00000000000E+00  0.20551336920E+04  0.20551336920E+04  0.00000000000E+00 0. -1.
         -2   -1    0    0    0  501 -0.00000000000E+00 -0.00000000000E+00 -0.84107391991E+03  0.84107391991E+03  0.00000000000E+00 0.  1.
         23    2    1    2    0    0  0.52518599584E+03 -0.55254395017E+03  0.17854522398E+04  0.19435195732E+04  0.91123453325E+02 0.  0.
         11    1    3    3    0    0  0.12812702072E+03 -0.97144071319E+02  0.31175799507E+03  0.35077991893E+03  0.00000000000E+00 0. -1.
        -11    1    3    3    0    0  0.39705897512E+03 -0.45539987886E+03  0.14736942447E+04  0.15927396543E+04  0.00000000000E+00 0.  1.
         22    1    1    2    0    0 -0.52518599584E+03  0.55254395017E+03 -0.57139246765E+03  0.95268803875E+03  0.00000000000E+00 0.  1.
<mgrwt>
<rscale>  0 0.26294633E+04</rscale>
<asrwt>0</asrwt>
<pdfrwt beam="1">  1        2 0.31617441E+00 0.26294633E+04</pdfrwt>
<pdfrwt beam="2">  1       -2 0.12939599E+00 0.26294633E+04</pdfrwt>
<totfact> 0.24139031E+00</totfact>
</mgrwt>
</event>
<event>
 6    1  0.1762360E-005  0.2011426E+04  0.7818608E-02  0.8601297E-01
         -2   -1    0    0    0  501 -0.00000000000E+00  0.00000000000E+00  0.30921115581E+03  0.30921115581E+03  0.00000000000E+00 0.  1.
          2   -1    0    0  501    0  0.00000000000E+00 -0.00000000000E+00 -0.32710922791E+04  0.32710922791E+04  0.00000000000E+00 0. -1.
         23    2    1    2    0    0 -0.51288003104E+03  0.48814933491E+03 -0.21773949549E+03  0.74628703185E+03  0.90543617083E+02 0.  0.
         11    1    3    3    0    0 -0.28497816960E+03  0.22254061303E+03 -0.80973190360E+02  0.37053142802E+03  0.00000000000E+00 0. -1.
        -11    1    3    3    0    0 -0.22790186145E+03  0.26560872188E+03 -0.13676630513E+03  0.37575560383E+03  0.00000000000E+00 0.  1.
         22    1    1    2    0    0  0.51288003104E+03 -0.48814933491E+03 -0.27441416278E+04  0.28340164031E+04  0.00000000000E+00 0. -1.
<mgrwt>
<rscale>  0 0.20114256E+04</rscale>
<asrwt>0</asrwt>
<pdfrwt beam="1">  1        2 0.50324495E+00 0.20114256E+04</pdfrwt>
<pdfrwt beam="2">  1       -2 0.47570949E-01 0.20114256E+04</pdfrwt>
<totfact> 0.45430738E+00</totfact>
</mgrwt>
</event>
<event>
 6    1  0.1762360E-005  0.2209020E+04  0.7818608E-02  0.8514683E-01
         -2   -1    0    0    0  501 -0.00000000000E+00  0.00000000000E+00  0.74853319549E+03  0.74853319549E+03  0.00000000000E+00 0.  1.
          2   -1    0    0  501    0  0.00000000000E+00 -0.00000000000E+00 -0.16297779146E+04  0.16297779146E+04  0.00000000000E+00 0. -1.
         23    2    1    2    0    0  0.89914039181E+03  0.45364852324E+03 -0.92431992290E+03  0.13702903265E+04  0.95277658916E+02 0.  0.
         11    1    3    3    0    0  0.35684505378E+03  0.15600617956E+03 -0.30211074968E+03  0.49289676966E+03  0.00000000000E+00 0. -1.
        -11    1    3    3    0    0  0.54229533803E+03  0.29764234368E+03 -0.62220917321E+03  0.87739355687E+03  0.00000000000E+00 0.  1.
         22    1    1    2    0    0 -0.89914039181E+03 -0.45364852324E+03  0.43075203829E+02  0.10080207835E+04  0.00000000000E+00 0.  1.
<mgrwt>
<rscale>  0 0.22090205E+04</rscale>
<asrwt>0</asrwt>
<pdfrwt beam="1">  1        2 0.25073506E+00 0.22090205E+04</pdfrwt>
<pdfrwt beam="2">  1       -2 0.11515895E+00 0.22090205E+04</pdfrwt>
<totfact> 0.57612562E+00</totfact>
</mgrwt>
</event>
<event>
 6    1  0.1762360E-005  0.1947528E+04  0.7818608E-02  0.8631554E-01
         -2   -1    0    0    0  501 -0.00000000000E+00  0.00000000000E+00  0.55864180370E+03  0.55864180370E+03  0.00000000000E+00 0.  1.
          2   -1    0    0  501    0  0.00000000000E+00 -0.00000000000E+00 -0.16973595076E+04  0.16973595076E+04  0.00000000000E+00 0. -1.
         23    2    1    2    0    0  0.81149295081E+03  0.28629970538E+03 -0.10929265513E+04  0.13942675008E+04  0.94895135226E+02 0.  0.
         11    1    3    3    0    0  0.57443849838E+03  0.24047026290E+03 -0.82413179077E+03  0.10329563129E+04  0.00000000000E+00 0.  1.
        -11    1    3    3    0    0  0.23705445244E+03  0.45829442482E+02 -0.26879476049E+03  0.36131118788E+03  0.00000000000E+00 0. -1.
         22    1    1    2    0    0 -0.81149295081E+03 -0.28629970538E+03 -0.45791152591E+02  0.86173381051E+03  0.00000000000E+00 0.  1.
<mgrwt>
<rscale>  0 0.19475276E+04</rscale>
<asrwt>0</asrwt>
<pdfrwt beam="1">  1        2 0.26113223E+00 0.19475276E+04</pdfrwt>
<pdfrwt beam="2">  1       -2 0.85944895E-01 0.19475276E+04</pdfrwt>
<totfact> 0.10786159E+01</totfact>
</mgrwt>
</event>
<event>
 6    1  0.1762360E-005  0.1443083E+04  0.7818608E-02  0.8923210E-01
          1   -1    0    0  501    0  0.00000000000E+00  0.00000000000E+00  0.17734460257E+04  0.17734460257E+04  0.00000000000E+00 0. -1.
         -1   -1    0    0    0  501 -0.00000000000E+00 -0.00000000000E+00 -0.29356528789E+03  0.29356528789E+03  0.00000000000E+00 0.  1.
         23    2    1    2    0    0  0.52050322598E+03  0.25552384952E+03  0.13669095810E+03  0.60400932103E+03  0.99633307350E+02 0.  0.
         11    1    3    3    0    0  0.31827078714E+03  0.20807513228E+03  0.78235642507E+02  0.38821691150E+03  0.00000000000E+00 0. -1.
        -11    1    3    3    0    0  0.20223243884E+03  0.47448717242E+02  0.58455315590E+02  0.21579240953E+03  0.00000000000E+00 0.  1.
         22    1    1    2    0    0 -0.52050322598E+03 -0.25552384952E+03  0.13431897797E+04  0.14630019926E+04  0.00000000000E+00 0. -1.
<mgrwt>
<rscale>  0 0.14430831E+04</rscale>
<asrwt>0</asrwt>
<pdfrwt beam="1">  1        1 0.27283784E+00 0.14430831E+04</pdfrwt>
<pdfrwt beam="2">  1       -1 0.45163892E-01 0.14430831E+04</pdfrwt>
<totfact> 0.20079981E+01</totfact>
</mgrwt>
</event>
<event>
 6    1  0.1762360E-005  0.2865397E+04  0.7818608E-02  0.8283248E-01
          1   -1    0    0  501    0  0.00000000000E+00  0.00000000000E+00  0.19625400453E+04  0.19625400453E+04  0.00000000000E+00 0. -1.
         -1   -1    0    0    0  501 -0.00000000000E+00 -0.00000000000E+00 -0.10459019048E+04  0.10459019048E+04  0.00000000000E+00 0.  1.
         23    2    1    2    0    0  0.10517916137E+04 -0.94069899620E+03  0.71007846435E+03  0.15823118369E+04  0.91209228961E+02 0.  0.
         13    1    3    3    0    0  0.99707606506E+03 -0.88552614596E+03  0.69259383479E+03  0.15026654500E+04  0.00000000000E+00 0. -1.
        -13    1    3    3    0    0  0.54715548665E+02 -0.55172850234E+02  0.17484629559E+02  0.79646386858E+02  0.00000000000E+00 0.  1.
         22    1    1    2    0    0 -0.10517916137E+04  0.94069899620E+03  0.20655967617E+03  0.14261301133E+04  0.00000000000E+00 0.  1.
<mgrwt>
<rscale>  0 0.28653966E+04</rscale>
<asrwt>0</asrwt>
<pdfrwt beam="1">  1        1 0.30192924E+00 0.28653966E+04</pdfrwt>
<pdfrwt beam="2">  1       -1 0.16090799E+00 0.28653966E+04</pdfrwt>
<totfact> 0.78241671E-01</totfact>
</mgrwt>
</event>
<event>
 6    1  0.1762360E-005  0.1950640E+04  0.7818608E-02  0.8630052E-01
          2   -1    0    0  501    0  0.00000000000E+00  0.00000000000E+00  0.22644016176E+04  0.22644016176E+04  0.00000000000E+00 0. -1.
         -2   -1    0    0    0  501 -0.00000000000E+00 -0.00000000000E+00 -0.42008871163E+03  0.42008871163E+03  0.00000000000E+00 0.  1.
         23    2    1    2    0    0  0.51474642481E+03 -0.21970805574E+03 -0.17123497333E+03  0.59268040350E+03  0.93344164189E+02 0.  0.
         13    1    3    3    0    0  0.16945125478E+03 -0.72380843074E+02 -0.10306877627E+03  0.21113002352E+03  0.00000000000E+00 0.  1.
        -13    1    3    3    0    0  0.34529517003E+03 -0.14732721267E+03 -0.68166197056E+02  0.38155037998E+03  0.00000000000E+00 0. -1.
         22    1    1    2    0    0 -0.51474642481E+03  0.21970805574E+03  0.20155478793E+04  0.20918099257E+04  0.00000000000E+00 0. -1.
<mgrwt>
<rscale>  0 0.19506405E+04</rscale>
<asrwt>0</asrwt>
<pdfrwt beam="1">  1        2 0.34836947E+00 0.19506405E+04</pdfrwt>
<pdfrwt beam="2">  1       -2 0.64629034E-01 0.19506405E+04</pdfrwt>
<totfact> 0.97926263E+00</totfact>
</mgrwt>
</event>
<event>
 6    1  0.1762360E-005  0.2055637E+04  0.7818608E-02  0.8581041E-01
          1   -1    0    0  501    0  0.00000000000E+00  0.00000000000E+00  0.15551491191E+04  0.15551491191E+04  0.00000000000E+00 0. -1.
         -1   -1    0    0    0  501 -0.00000000000E+00 -0.00000000000E+00 -0.67929877666E+03  0.67929877666E+03  0.00000000000E+00 0.  1.
         23    2    1    2    0    0 -0.19841568068E+03 -0.98673897419E+03  0.22361035687E+03  0.10350982452E+04  0.91674423888E+02 0.  0.
         11    1    3    3    0    0 -0.78443406524E+02 -0.20029214019E+03  0.46110923787E+02  0.21999210609E+03  0.00000000000E+00 0. -1.
        -11    1    3    3    0    0 -0.11997227415E+03 -0.78644683399E+03  0.17749943308E+03  0.81510613911E+03  0.00000000000E+00 0.  1.
         22    1    1    2    0    0  0.19841568068E+03  0.98673897419E+03  0.65223998555E+03  0.11993496505E+04  0.00000000000E+00 0. -1.
<mgrwt>
<rscale>  0 0.20556370E+04</rscale>
<asrwt>0</asrwt>
<pdfrwt beam="1">  1        1 0.23925371E+00 0.20556370E+04</pdfrwt>
<pdfrwt beam="2">  1       -1 0.10450750E+00 0.20556370E+04</pdfrwt>
<totfact> 0.47608291E+00</totfact>
</mgrwt>
</event>
<event>
 6    1  0.1762360E-005  0.3936315E+04  0.7818608E-02  0.8017518E-01
         -2   -1    0    0    0  501 -0.00000000000E+00  0.00000000000E+00  0.12350246552E+04  0.12350246552E+04  0.00000000000E+00 0.  1.
          2   -1    0    0  501    0  0.00000000000E+00 -0.00000000000E+00 -0.31364913870E+04  0.31364913870E+04  0.00000000000E+00 0. -1.
         23    2    1    2    0    0  0.17954380179E+04  0.58521153949E+03 -0.15625952209E+04  0.24529477940E+04  0.95806229352E+02 0.  0.
         11    1    3    3    0    0  0.53352507291E+03  0.13474036789E+03 -0.48436085715E+03  0.73308213053E+03  0.00000000000E+00 0.  1.
        -11    1    3    3    0    0  0.12619129450E+04  0.45047117160E+03 -0.10782343638E+04  0.17198656635E+04  0.00000000000E+00 0. -1.
         22    1    1    2    0    0 -0.17954380179E+04 -0.58521153949E+03 -0.33887151088E+03  0.19185682482E+04  0.00000000000E+00 0. -1.
<mgrwt>
<rscale>  0 0.39363151E+04</rscale>
<asrwt>0</asrwt>
<pdfrwt beam="1">  1        2 0.48253714E+00 0.39363151E+04</pdfrwt>
<pdfrwt beam="2">  1       -2 0.19000379E+00 0.39363151E+04</pdfrwt>
<totfact> 0.17507738E-01</totfact>
</mgrwt>
</event>
<event>
 6    1  0.1762360E-005  0.1564765E+04  0.7818608E-02  0.8842492E-01
         -2   -1    0    0    0  501 -0.00000000000E+00  0.00000000000E+00  0.50736523750E+03  0.50736523750E+03  0.00000000000E+00 0. -1.
          2   -1    0    0  501    0  0.00000000000E+00 -0.00000000000E+00 -0.12064725009E+04  0.12064725009E+04  0.00000000000E+00 0.  1.
         23    2    1    2    0    0  0.59808511826E+03  0.43296254275E+03 -0.76652781294E+02  0.74811937657E+03  0.92976236838E+02 0.  0.
         11    1    3    3    0    0  0.31035903832E+03  0.26907612982E+03 -0.13235518306E+02  0.41097429999E+03  0.00000000000E+00 0.  1.
        -11    1    3    3    0    0  0.28772607994E+03  0.16388641292E+03 -0.63417262988E+02  0.33714507658E+03  0.00000000000E+00 0. -1.
         22    1    1    2    0    0 -0.59808511826E+03 -0.43296254275E+03 -0.62245448214E+03  0.96571836186E+03  0.00000000000E+00 0.  1.
<mgrwt>
<rscale>  0 0.15647648E+04</rscale>
<asrwt>0</asrwt>
<pdfrwt beam="1">  1        2 0.18561115E+00 0.15647648E+04</pdfrwt>
<pdfrwt beam="2">  1       -2 0.78056191E-01 0.15647648E+04</pdfrwt>
<totfact> 0.26370375E+01</totfact>
</mgrwt>
</event>
<event>
 6    1  0.1762360E-005  0.9173854E+03  0.7818608E-02  0.9404106E-01
          2   -1    0    0  501    0  0.00000000000E+00  0.00000000000E+00  0.25777128886E+04  0.25777128886E+04  0.00000000000E+00 0.  1.
         -2   -1    0    0    0  501 -0.00000000000E+00 -0.00000000000E+00 -0.81622347350E+02  0.81622347350E+02  0.00000000000E+00 0. -1.
         23    2    1    2    0    0 -0.38424762745E+03  0.20445977433E+03  0.89374872134E+03  0.99892885607E+03  0.98092018370E+02 0.  0.
         11    1    3    3    0    0 -0.35238044840E+03  0.21439475152E+03  0.81634884596E+03  0.91463792191E+03  0.00000000000E+00 0.  1.
        -11    1    3    3    0    0 -0.31867179047E+02 -0.99349771919E+01  0.77399875380E+02  0.84290934157E+02  0.00000000000E+00 0. -1.
         22    1    1    2    0    0  0.38424762745E+03 -0.20445977433E+03  0.16023418199E+04  0.16604063798E+04  0.00000000000E+00 0.  1.
<mgrwt>
<rscale>  0 0.91738536E+03</rscale>
<asrwt>0</asrwt>
<pdfrwt beam="1">  1        2 0.39657115E+00 0.91738536E+03</pdfrwt>
<pdfrwt beam="2">  1       -2 0.12557286E-01 0.91738536E+03</pdfrwt>
<totfact> 0.15149112E+02</totfact>
</mgrwt>
</event>
<event>
 6    1  0.1762360E-005  0.3230397E+04  0.7818608E-02  0.8180835E-01
          2   -1    0    0  501    0  0.00000000000E+00  0.00000000000E+00  0.17225910416E+04  0.17225910416E+04  0.00000000000E+00 0. -1.
         -2   -1    0    0    0  501 -0.00000000000E+00 -0.00000000000E+00 -0.15145011658E+04  0.15145011658E+04  0.00000000000E+00 0.  1.
         23    2    1    2    0    0  0.10456680526E+04 -0.36233457305E+03  0.12808752898E+04  0.16958016561E+04  0.10194964323E+03 0.  0.
         11    1    3    3    0    0  0.62724692839E+03 -0.24401626886E+03  0.71176038845E+03  0.97958435023E+03  0.00000000000E+00 0.  1.
        -11    1    3    3    0    0  0.41842112417E+03 -0.11831830418E+03  0.56911490134E+03  0.71621730584E+03  0.00000000000E+00 0. -1.
         22    1    1    2    0    0 -0.10456680526E+04  0.36233457305E+03 -0.10727854140E+04  0.15412905513E+04  0.00000000000E+00 0.  1.
<mgrwt>
<rscale>  0 0.32303970E+04</rscale>
<asrwt>0</asrwt>
<pdfrwt beam="1">  1        2 0.26501401E+00 0.32303970E+04</pdfrwt>
<pdfrwt beam="2">  1       -2 0.23300018E+00 0.32303970E+04</pdfrwt>
<totfact> 0.65531159E-01</totfact>
</mgrwt>
</event>
<event>
 6    1  0.1762360E-005  0.2402749E+04  0.7818608E-02  0.8438475E-01
         -1   -1    0    0    0  501 -0.00000000000E+00  0.00000000000E+00  0.13379212120E+04  0.13379212120E+04  0.00000000000E+00 0.  1.
          1   -1    0    0  501    0  0.00000000000E+00 -0.00000000000E+00 -0.10787634821E+04  0.10787634821E+04  0.00000000000E+00 0. -1.
         23    2    1    2    0    0  0.69773889257E+03  0.44038038325E+03 -0.74609546996E+03  0.11161815453E+04  0.91806032691E+02 0.  0.
         13    1    3    3    0    0  0.48052274417E+03  0.25208620433E+03 -0.48019409350E+03  0.72459363060E+03  0.00000000000E+00 0.  1.
        -13    1    3    3    0    0  0.21721614840E+03  0.18829417892E+03 -0.26590137647E+03  0.39158791472E+03  0.00000000000E+00 0. -1.
         22    1    1    2    0    0 -0.69773889257E+03 -0.44038038325E+03  0.10052531999E+04  0.13005031488E+04  0.00000000000E+00 0.  1.
<mgrwt>
<rscale>  0 0.24027489E+04</rscale>
<asrwt>0</asrwt>
<pdfrwt beam="1">  1        1 0.16596361E+00 0.24027489E+04</pdfrwt>
<pdfrwt beam="2">  1       -1 0.20583403E+00 0.24027489E+04</pdfrwt>
<totfact> 0.16176499E+00</totfact>
</mgrwt>
</event>
<event>
 6    1  0.1762360E-005  0.2839232E+04  0.7818608E-02  0.8291191E-01
          2   -1    0    0  501    0  0.00000000000E+00  0.00000000000E+00  0.18789560239E+04  0.18789560239E+04  0.00000000000E+00 0. -1.
         -2   -1    0    0    0  501 -0.00000000000E+00 -0.00000000000E+00 -0.10725689879E+04  0.10725689879E+04  0.00000000000E+00 0.  1.
         23    2    1    2    0    0 -0.12963654901E+04 -0.42783024635E+03  0.46289011461E+01  0.13683578348E+04  0.93699165752E+02 0.  0.
         13    1    3    3    0    0 -0.63147771275E+03 -0.22139191480E+03 -0.42918419342E+02  0.67053745038E+03  0.00000000000E+00 0. -1.
        -13    1    3    3    0    0 -0.66488777734E+03 -0.20643833155E+03  0.47547320488E+02  0.69782038440E+03  0.00000000000E+00 0.  1.
         22    1    1    2    0    0  0.12963654901E+04  0.42783024635E+03  0.80175813484E+03  0.15831671770E+04  0.00000000000E+00 0. -1.
<mgrwt>
<rscale>  0 0.28392323E+04</rscale>
<asrwt>0</asrwt>
<pdfrwt beam="1">  1        2 0.28907016E+00 0.28392323E+04</pdfrwt>
<pdfrwt beam="2">  1       -2 0.16501061E+00 0.28392323E+04</pdfrwt>
<totfact> 0.15663420E+00</totfact>
</mgrwt>
</event>
<event>
 6    1  0.1762360E-005  0.2710766E+04  0.7818608E-02  0.8331520E-01
         -1   -1    0    0    0  501 -0.00000000000E+00  0.00000000000E+00  0.18374166998E+04  0.18374166998E+04  0.00000000000E+00 0.  1.
          1   -1    0    0  501    0  0.00000000000E+00 -0.00000000000E+00 -0.99980732949E+03  0.99980732949E+03  0.00000000000E+00 0. -1.
         23    2    1    2    0    0 -0.85216121852E+03  0.20804729139E+03 -0.65938020856E+03  0.11021620082E+04  0.10254957373E+03 0.  0.
         13    1    3    3    0    0 -0.38240530668E+03  0.76727927820E+02 -0.35373972484E+03  0.52654799061E+03  0.00000000000E+00 0. -1.
        -13    1    3    3    0    0 -0.46975591184E+03  0.13131936357E+03 -0.30564048371E+03  0.57561401758E+03  0.00000000000E+00 0.  1.
         22    1    1    2    0    0  0.85216121852E+03 -0.20804729139E+03  0.14969895789E+04  0.17350620211E+04  0.00000000000E+00 0.  1.
<mgrwt>
<rscale>  0 0.27107657E+04</rscale>
<asrwt>0</asrwt>
<pdfrwt beam="1">  1        1 0.15381651E+00 0.27107657E+04</pdfrwt>
<pdfrwt beam="2">  1       -1 0.28267949E+00 0.27107657E+04</pdfrwt>
<totfact> 0.56463764E-01</totfact>
</mgrwt>
</event>
<event>
 6    1  0.1762360E-005  0.1908066E+04  0.7818608E-02  0.8650852E-01
          2   -1    0    0  501    0  0.00000000000E+00  0.00000000000E+00  0.21496775883E+04  0.21496775883E+04  0.00000000000E+00 0. -1.
         -2   -1    0    0    0  501 -0.00000000000E+00 -0.00000000000E+00 -0.42340275581E+03  0.42340275581E+03  0.00000000000E+00 0.  1.
         23    2    1    2    0    0 -0.91345224575E+03  0.26225609149E+03  0.94081317023E+03  0.13401475456E+04  0.87708379598E+02 0.  0.
         13    1    3    3    0    0 -0.60287418576E+03  0.13107988604E+03  0.62406184926E+03  0.87754909383E+03  0.00000000000E+00 0. -1.
        -13    1    3    3    0    0 -0.31057806000E+03  0.13117620545E+03  0.31675132097E+03  0.46259845175E+03  0.00000000000E+00 0.  1.
         22    1    1    2    0    0  0.91345224575E+03 -0.26225609149E+03  0.78546166227E+03  0.12329327985E+04  0.00000000000E+00 0. -1.
<mgrwt>
<rscale>  0 0.19080665E+04</rscale>
<asrwt>0</asrwt>
<pdfrwt beam="1">  1        2 0.33071962E+00 0.19080665E+04</pdfrwt>
<pdfrwt beam="2">  1       -2 0.65138887E-01 0.19080665E+04</pdfrwt>
<totfact> 0.11210377E+01</totfact>
</mgrwt>
</event>
<event>
 6    1  0.1762360E-005  0.1860911E+04  0.7818608E-02  0.8674562E-01
          2   -1    0    0  501    0  0.00000000000E+00  0.00000000000E+00  0.57662853654E+03  0.57662853654E+03  0.00000000000E+00 0. -1.
         -2   -1    0    0    0  501 -0.00000000000E+00 -0.00000000000E+00 -0.15013949194E+04  0.15013949194E+04  0.00000000000E+00 0.  1.
         23    2    1    2    0    0 -0.48132828380E+03  0.21631111180E+03  0.38934339871E+03  0.66191896407E+03  0.89894488125E+02 0.  0.
         11    1    3    3    0    0 -0.36219733761E+02  0.46128808069E+02  0.47114526864E+02  0.75229746039E+02  0.00000000000E+00 0. -1.
        -11    1    3    3    0    0 -0.44510855004E+03  0.17018230373E+03  0.34222887185E+03  0.58668921803E+03  0.00000000000E+00 0.  1.
         22    1    1    2    0    0  0.48132828380E+03 -0.21631111180E+03 -0.13141097816E+04  0.14161044919E+04  0.00000000000E+00 0.  1.
<mgrwt>
<rscale>  0 0.18609107E+04</rscale>
<asrwt>0</asrwt>
<pdfrwt beam="1">  1        2 0.88712084E-01 0.18609107E+04</pdfrwt>
<pdfrwt beam="2">  1       -2 0.23098383E+00 0.18609107E+04</pdfrwt>
<totfact> 0.41184603E+00</totfact>
</mgrwt>
</event>
<event>
 6    1  0.1762360E-005  0.1232432E+04  0.7818608E-02  0.9084933E-01
         -1   -1    0    0    0  501 -0.00000000000E+00  0.00000000000E+00  0.16583384473E+03  0.16583384473E+03  0.00000000000E+00 0.  1.
          1   -1    0    0  501    0  0.00000000000E+00 -0.00000000000E+00 -0.22897749200E+04  0.22897749200E+04  0.00000000000E+00 0. -1.
         23    2    1    2    0    0  0.60978326798E+03 -0.53847097397E+02 -0.10458514927E+04  0.12158457664E+04  0.98693663657E+02 0.  0.
         13    1    3    3    0    0  0.38791076098E+03 -0.78242304378E+02 -0.63293735570E+03  0.74646253283E+03  0.00000000000E+00 0. -1.
        -13    1    3    3    0    0  0.22187250701E+03  0.24395206981E+02 -0.41291413695E+03  0.46938323360E+03  0.00000000000E+00 0.  1.
         22    1    1    2    0    0 -0.60978326798E+03  0.53847097397E+02 -0.10780895826E+04  0.12397629983E+04  0.00000000000E+00 0.  1.
<mgrwt>
<rscale>  0 0.12324320E+04</rscale>
<asrwt>0</asrwt>
<pdfrwt beam="1">  1        1 0.35227306E+00 0.12324320E+04</pdfrwt>
<pdfrwt beam="2">  1       -1 0.25512899E-01 0.12324320E+04</pdfrwt>
<totfact> 0.25357028E+01</totfact>
</mgrwt>
</event>
<event>
 6    1  0.1762360E-005  0.3951241E+04  0.7818608E-02  0.8014456E-01
          1   -1    0    0  501    0  0.00000000000E+00  0.00000000000E+00  0.89121074852E+03  0.89121074852E+03  0.00000000000E+00 0. -1.
         -1   -1    0    0    0  501 -0.00000000000E+00 -0.00000000000E+00 -0.43795222176E+04  0.43795222176E+04  0.00000000000E+00 0.  1.
         23    2    1    2    0    0  0.16386703370E+04  0.43434800261E+03 -0.30955438269E+04  0.35305705940E+04  0.92943393494E+02 0.  0.
         11    1    3    3    0    0  0.51186639193E+03  0.95551158216E+02 -0.91206989553E+03  0.10502422203E+04  0.00000000000E+00 0.  1.
        -11    1    3    3    0    0  0.11268039450E+04  0.33879684439E+03 -0.21834739314E+04  0.24803283737E+04  0.00000000000E+00 0. -1.
         22    1    1    2    0    0 -0.16386703370E+04 -0.43434800261E+03 -0.39276764223E+03  0.17401623722E+04  0.00000000000E+00 0. -1.
<mgrwt>
<rscale>  0 0.39512415E+04</rscale>
<asrwt>0</asrwt>
<pdfrwt beam="1">  1        1 0.13710934E+00 0.39512415E+04</pdfrwt>
<pdfrwt beam="2">  1       -1 0.67377266E+00 0.39512415E+04</pdfrwt>
<totfact> 0.35609064E-03</totfact>
</mgrwt>
</event>
<event>
 6    1  0.1762360E-005  0.2542179E+04  0.7818608E-02  0.8388111E-01
         -1   -1    0    0    0  501 -0.00000000000E+00  0.00000000000E+00  0.10695949337E+04  0.10695949337E+04  0.00000000000E+00 0.  1.
          1   -1    0    0  501    0  0.00000000000E+00 -0.00000000000E+00 -0.15105420628E+04  0.15105420628E+04  0.00000000000E+00 0. -1.
         23    2    1    2    0    0  0.10347657921E+04  0.39952118783E+03  0.40595448861E+03  0.11845726754E+04  0.89754957484E+02 0.  0.
         13    1    3    3    0    0  0.69114282793E+03  0.30970959854E+03  0.26325116817E+03  0.80181021543E+03  0.00000000000E+00 0.  1.
        -13    1    3    3    0    0  0.34362296421E+03  0.89811589295E+02  0.14270332044E+03  0.38276245998E+03  0.00000000000E+00 0. -1.
         22    1    1    2    0    0 -0.10347657921E+04 -0.39952118783E+03 -0.84690161769E+03  0.13955643210E+04  0.00000000000E+00 0. -1.
<mgrwt>
<rscale>  0 0.25421787E+04</rscale>
<asrwt>0</asrwt>
<pdfrwt beam="1">  1        1 0.23239109E+00 0.25421787E+04</pdfrwt>
<pdfrwt beam="2">  1       -1 0.16455307E+00 0.25421787E+04</pdfrwt>
<totfact> 0.15377115E+00</totfact>
</mgrwt>
</event>
<event>
 6    1  0.1762360E-005  0.2426221E+04  0.7818608E-02  0.8429752E-01
         -2   -1    0    0    0  501 -0.00000000000E+00  0.00000000000E+00  0.20743245271E+04  0.20743245271E+04  0.00000000000E+00 0.  1.
          2   -1    0    0  501    0  0.00000000000E+00 -0.00000000000E+00 -0.70945347547E+03  0.70945347547E+03  0.00000000000E+00 0. -1.
         23    2    1    2    0    0 -0.47797553534E+03  0.22127639938E+03 -0.56839256510E+03  0.78004846267E+03  0.89340017585E+02 0.  0.
         13    1    3    3    0    0 -0.43215879552E+03  0.16743316009E+03 -0.49754066461E+03  0.67995720496E+03  0.00000000000E+00 0. -1.
        -13    1    3    3    0    0 -0.45816739822E+02  0.53843239299E+02 -0.70851900495E+02  0.10009125771E+03  0.00000000000E+00 0.  1.
         22    1    1    2    0    0  0.47797553534E+03 -0.22127639938E+03  0.19332636167E+04  0.20037295399E+04  0.00000000000E+00 0.  1.
<mgrwt>
<rscale>  0 0.24262207E+04</rscale>
<asrwt>0</asrwt>
<pdfrwt beam="1">  1        2 0.10914669E+00 0.24262207E+04</pdfrwt>
<pdfrwt beam="2">  1       -2 0.31912685E+00 0.24262207E+04</pdfrwt>
<totfact> 0.87662340E-01</totfact>
</mgrwt>
</event>
<event>
 6    1  0.1762360E-005  0.1706601E+04  0.7818608E-02  0.8757608E-01
          2   -1    0    0  501    0  0.00000000000E+00  0.00000000000E+00  0.59942125145E+03  0.59942125145E+03  0.00000000000E+00 0. -1.
         -2   -1    0    0    0  501 -0.00000000000E+00 -0.00000000000E+00 -0.12147081614E+04  0.12147081614E+04  0.00000000000E+00 0.  1.
         23    2    1    2    0    0  0.42044641501E+03  0.49600087647E+03 -0.89188509277E+03  0.11075187619E+04  0.91360449968E+02 0.  0.
         13    1    3    3    0    0  0.33923823323E+03  0.34953732924E+03 -0.62415518176E+03  0.79172508760E+03  0.00000000000E+00 0. -1.
        -13    1    3    3    0    0  0.81208181783E+02  0.14646354722E+03 -0.26772991101E+03  0.31579367426E+03  0.00000000000E+00 0.  1.
         22    1    1    2    0    0 -0.42044641501E+03 -0.49600087647E+03  0.27659818282E+03  0.70661065099E+03  0.00000000000E+00 0. -1.
<mgrwt>
<rscale>  0 0.17066012E+04</rscale>
<asrwt>0</asrwt>
<pdfrwt beam="1">  1        2 0.92218656E-01 0.17066012E+04</pdfrwt>
<pdfrwt beam="2">  1       -2 0.18687818E+00 0.17066012E+04</pdfrwt>
<totfact> 0.76764394E+00</totfact>
</mgrwt>
</event>
<event>
 6    1  0.1762360E-005  0.4179029E+03  0.7818608E-02  0.1037751E+00
         -4   -1    0    0    0  501 -0.00000000000E+00  0.00000000000E+00  0.74056241969E+03  0.74056241969E+03  0.00000000000E+00 0.  1.
          4   -1    0    0  501    0  0.00000000000E+00 -0.00000000000E+00 -0.58956156382E+02  0.58956156382E+02  0.00000000000E+00 0. -1.
         23    2    1    2    0    0 -0.32198705903E+02 -0.19614376691E+03  0.39198932038E+03  0.44825356558E+03  0.88127735745E+02 0.  0.
         13    1    3    3    0    0 -0.53905314593E+02 -0.13069603039E+03  0.20558297929E+03  0.24950269873E+03  0.00000000000E+00 0. -1.
        -13    1    3    3    0    0  0.21706608690E+02 -0.65447736527E+02  0.18640634108E+03  0.19875086685E+03  0.00000000000E+00 0.  1.
         22    1    1    2    0    0  0.32198705903E+02  0.19614376691E+03  0.28961694293E+03  0.35126501049E+03  0.00000000000E+00 0.  1.
<mgrwt>
<rscale>  0 0.41790293E+03</rscale>
<asrwt>0</asrwt>
<pdfrwt beam="1">  1        4 0.90701784E-02 0.41790293E+03</pdfrwt>
<pdfrwt beam="2">  1       -4 0.11393267E+00 0.41790293E+03</pdfrwt>
<totfact> 0.10858313E+02</totfact>
</mgrwt>
</event>
<event>
 6    1  0.1762360E-005  0.3335951E+04  0.7818608E-02  0.8153808E-01
          1   -1    0    0  501    0  0.00000000000E+00  0.00000000000E+00  0.30204018687E+04  0.30204018687E+04  0.00000000000E+00 0.  1.
         -1   -1    0    0    0  501 -0.00000000000E+00 -0.00000000000E+00 -0.92111642366E+03  0.92111642366E+03  0.00000000000E+00 0. -1.
         23    2    1    2    0    0  0.75229068267E+03 -0.87283760766E+02 -0.70317755364E+03  0.10385269756E+04  0.10256647111E+03 0.  0.
         13    1    3    3    0    0  0.38051299239E+03 -0.34882204088E+00 -0.31410409388E+03  0.49340818887E+03  0.00000000000E+00 0. -1.
        -13    1    3    3    0    0  0.37177769028E+03 -0.86934938725E+02 -0.38907345976E+03  0.54511878674E+03  0.00000000000E+00 0.  1.
         22    1    1    2    0    0 -0.75229068267E+03  0.87283760766E+02  0.28024629986E+04  0.29029913167E+04  0.00000000000E+00 0.  1.
<mgrwt>
<rscale>  0 0.33359507E+04</rscale>
<asrwt>0</asrwt>
<pdfrwt beam="1">  1        1 0.46467721E+00 0.33359507E+04</pdfrwt>
<pdfrwt beam="2">  1       -1 0.14171022E+00 0.33359507E+04</pdfrwt>
<totfact> 0.19378950E-01</totfact>
</mgrwt>
</event>
<event>
 6    1  0.1762360E-005  0.3598265E+04  0.7818608E-02  0.8090889E-01
         -2   -1    0    0    0  501 -0.00000000000E+00  0.00000000000E+00  0.16940576822E+04  0.16940576822E+04  0.00000000000E+00 0.  1.
          2   -1    0    0  501    0  0.00000000000E+00 -0.00000000000E+00 -0.19107241582E+04  0.19107241582E+04  0.00000000000E+00 0. -1.
         23    2    1    2    0    0  0.42954681588E+03  0.20627002893E+03 -0.18444101599E+04  0.19087254462E+04  0.11969210056E+03 0.  0.
         13    1    3    3    0    0  0.10807115087E+03  0.10838505588E+03 -0.66404482238E+03  0.68145595611E+03  0.00000000000E+00 0.  1.
        -13    1    3    3    0    0  0.32147566500E+03  0.97884973049E+02 -0.11803653375E+04  0.12272694901E+04  0.00000000000E+00 0. -1.
         22    1    1    2    0    0 -0.42954681588E+03 -0.20627002893E+03  0.16277436839E+04  0.16960563942E+04  0.00000000000E+00 0.  1.
<mgrwt>
<rscale>  0 0.35982645E+04</rscale>
<asrwt>0</asrwt>
<pdfrwt beam="1">  1        2 0.29395756E+00 0.35982645E+04</pdfrwt>
<pdfrwt beam="2">  1       -2 0.26062426E+00 0.35982645E+04</pdfrwt>
<totfact> 0.33767747E-01</totfact>
</mgrwt>
</event>
<event>
 6    1  0.1762360E-005  0.1266650E+04  0.7818608E-02  0.9056438E-01
         -2   -1    0    0    0  501 -0.00000000000E+00  0.00000000000E+00  0.18417526376E+03  0.18417526376E+03  0.00000000000E+00 0.  1.
          2   -1    0    0  501    0  0.00000000000E+00 -0.00000000000E+00 -0.21778206821E+04  0.21778206821E+04  0.00000000000E+00 0. -1.
         23    2    1    2    0    0  0.31732718355E+03  0.10982019794E+03 -0.19959637026E+04  0.20261948266E+04  0.94007212401E+02 0.  0.
         11    1    3    3    0    0  0.14593903573E+03  0.19116398625E+02 -0.65860133993E+03  0.67484765970E+03  0.00000000000E+00 0.  1.
        -11    1    3    3    0    0  0.17138814782E+03  0.90703799310E+02 -0.13373623626E+04  0.13513471669E+04  0.00000000000E+00 0. -1.
         22    1    1    2    0    0 -0.31732718355E+03 -0.10982019794E+03  0.23182841858E+01  0.33580111932E+03  0.00000000000E+00 0.  1.
<mgrwt>
<rscale>  0 0.12666502E+04</rscale>
<asrwt>0</asrwt>
<pdfrwt beam="1">  1        2 0.33504935E+00 0.12666502E+04</pdfrwt>
<pdfrwt beam="2">  1       -2 0.28334655E-01 0.12666502E+04</pdfrwt>
<totfact> 0.59665256E+01</totfact>
</mgrwt>
</event>
<event>
 6    1  0.1762360E-005  0.1066455E+04  0.7818608E-02  0.9238518E-01
         -2   -1    0    0    0  501 -0.00000000000E+00  0.00000000000E+00  0.40136512375E+03  0.40136512375E+03  0.00000000000E+00 0.  1.
          2   -1    0    0  501    0  0.00000000000E+00 -0.00000000000E+00 -0.70841143087E+03  0.70841143087E+03  0.00000000000E+00 0. -1.
         23    2    1    2    0    0 -0.51563288415E+03  0.63709230210E+02 -0.51243327851E+02  0.53066404272E+03  0.95091063528E+02 0.  0.
         13    1    3    3    0    0 -0.11788547288E+03 -0.13383284940E+02 -0.40523923164E+02  0.12537258624E+03  0.00000000000E+00 0. -1.
        -13    1    3    3    0    0 -0.39774741127E+03  0.77092515149E+02 -0.10719404686E+02  0.40529145648E+03  0.00000000000E+00 0.  1.
         22    1    1    2    0    0  0.51563288415E+03 -0.63709230210E+02 -0.25580297927E+03  0.57911251190E+03  0.00000000000E+00 0.  1.
<mgrwt>
<rscale>  0 0.10664551E+04</rscale>
<asrwt>0</asrwt>
<pdfrwt beam="1">  1        2 0.10898637E+00 0.10664551E+04</pdfrwt>
<pdfrwt beam="2">  1       -2 0.61748481E-01 0.10664551E+04</pdfrwt>
<totfact> 0.97871423E+01</totfact>
</mgrwt>
</event>
<event>
 6    1  0.1762360E-005  0.3459927E+04  0.7818608E-02  0.8123353E-01
         -1   -1    0    0    0  501 -0.00000000000E+00  0.00000000000E+00  0.12898898755E+04  0.12898898755E+04  0.00000000000E+00 0.  1.
          1   -1    0    0  501    0  0.00000000000E+00 -0.00000000000E+00 -0.23201773744E+04  0.23201773744E+04  0.00000000000E+00 0. -1.
         23    2    1    2    0    0  0.15315644959E+04 -0.50250346369E+03 -0.11675382760E+04  0.19923412805E+04  0.89881120802E+02 0.  0.
         11    1    3    3    0    0  0.13080209855E+04 -0.40212907175E+03 -0.10138228050E+04  0.17030746809E+04  0.00000000000E+00 0.  1.
        -11    1    3    3    0    0  0.22354351047E+03 -0.10037439193E+03 -0.15371547102E+03  0.28926659963E+03  0.00000000000E+00 0. -1.
         22    1    1    2    0    0 -0.15315644959E+04  0.50250346369E+03  0.13725077706E+03  0.16177259694E+04  0.00000000000E+00 0.  1.
<mgrwt>
<rscale>  0 0.34599268E+04</rscale>
<asrwt>0</asrwt>
<pdfrwt beam="1">  1        1 0.35695037E+00 0.34599268E+04</pdfrwt>
<pdfrwt beam="2">  1       -1 0.19844460E+00 0.34599268E+04</pdfrwt>
<totfact> 0.22766273E-01</totfact>
</mgrwt>
</event>
<event>
 6    1  0.1762360E-005  0.2141425E+04  0.7818608E-02  0.8543212E-01
         -2   -1    0    0    0  501 -0.00000000000E+00  0.00000000000E+00  0.60934506682E+03  0.60934506682E+03  0.00000000000E+00 0.  1.
          2   -1    0    0  501    0  0.00000000000E+00 -0.00000000000E+00 -0.18814055798E+04  0.18814055798E+04  0.00000000000E+00 0. -1.
         23    2    1    2    0    0 -0.59750535152E+03  0.33066991300E+03  0.31897856801E+03  0.75934642065E+03  0.92219429902E+02 0.  0.
         11    1    3    3    0    0 -0.12338806843E+03  0.11317158549E+03  0.81308418780E+02  0.18612759645E+03  0.00000000000E+00 0. -1.
        -11    1    3    3    0    0 -0.47411728308E+03  0.21749832750E+03  0.23767014923E+03  0.57321882420E+03  0.00000000000E+00 0.  1.
         22    1    1    2    0    0  0.59750535152E+03 -0.33066991300E+03 -0.15910390810E+04  0.17314042259E+04  0.00000000000E+00 0. -1.
<mgrwt>
<rscale>  0 0.21414250E+04</rscale>
<asrwt>0</asrwt>
<pdfrwt beam="1">  1        2 0.28944701E+00 0.21414250E+04</pdfrwt>
<pdfrwt beam="2">  1       -2 0.93745396E-01 0.21414250E+04</pdfrwt>
<totfact> 0.68658839E+00</totfact>
</mgrwt>
</event>
<event>
 6    1  0.1762360E-005  0.1198961E+04  0.7818608E-02  0.9113767E-01
          2   -1    0    0  501    0  0.00000000000E+00  0.00000000000E+00  0.10913297320E+04  0.10913297320E+04  0.00000000000E+00 0. -1.
         -2   -1    0    0    0  501 -0.00000000000E+00 -0.00000000000E+00 -0.32930155591E+03  0.32930155591E+03  0.00000000000E+00 0.  1.
         23    2    1    2    0    0  0.10795424193E+03  0.14897665353E+03 -0.28752941393E+03  0.35507073289E+03  0.97744052672E+02 0.  0.
         13    1    3    3    0    0  0.39148879874E+02  0.82584561374E+02 -0.21937704414E+03  0.23765338640E+03  0.00000000000E+00 0.  1.
        -13    1    3    3    0    0  0.68805362059E+02  0.66392092152E+02 -0.68152369791E+02  0.11741734649E+03  0.00000000000E+00 0. -1.
         22    1    1    2    0    0 -0.10795424193E+03 -0.14897665353E+03  0.10495575900E+04  0.10655605550E+04  0.00000000000E+00 0. -1.
<mgrwt>
<rscale>  0 0.11989605E+04</rscale>
<asrwt>0</asrwt>
<pdfrwt beam="1">  1        2 0.16789688E+00 0.11989605E+04</pdfrwt>
<pdfrwt beam="2">  1       -2 0.50661778E-01 0.11989605E+04</pdfrwt>
<totfact> 0.80165482E+01</totfact>
</mgrwt>
</event>
<event>
 6    1  0.1762360E-005  0.1705013E+04  0.7818608E-02  0.8758511E-01
         -2   -1    0    0    0  501 -0.00000000000E+00  0.00000000000E+00  0.28294282943E+03  0.28294282943E+03  0.00000000000E+00 0.  1.
          2   -1    0    0  501    0  0.00000000000E+00 -0.00000000000E+00 -0.25686001713E+04  0.25686001713E+04  0.00000000000E+00 0. -1.
         23    2    1    2    0    0 -0.55040469745E+02 -0.82494400246E+03 -0.81338467016E+03  0.11630084644E+04  0.86209083874E+02 0.  0.
         11    1    3    3    0    0 -0.64535586221E+02 -0.38053696529E+03 -0.40322761497E+03  0.55818073535E+03  0.00000000000E+00 0. -1.
        -11    1    3    3    0    0  0.94951164766E+01 -0.44440703716E+03 -0.41015705519E+03  0.60482772906E+03  0.00000000000E+00 0.  1.
         22    1    1    2    0    0  0.55040469745E+02  0.82494400246E+03 -0.14722726717E+04  0.16885345363E+04  0.00000000000E+00 0.  1.
<mgrwt>
<rscale>  0 0.17050126E+04</rscale>
<asrwt>0</asrwt>
<pdfrwt beam="1">  1        2 0.39516928E+00 0.17050126E+04</pdfrwt>
<pdfrwt beam="2">  1       -2 0.43529663E-01 0.17050126E+04</pdfrwt>
<totfact> 0.15142740E+01</totfact>
</mgrwt>
</event>
<event>
 6    1  0.1762360E-005  0.2150895E+04  0.7818608E-02  0.8539149E-01
          2   -1    0    0  501    0  0.00000000000E+00  0.00000000000E+00  0.13701768080E+04  0.13701768080E+04  0.00000000000E+00 0. -1.
         -2   -1    0    0    0  501 -0.00000000000E+00 -0.00000000000E+00 -0.84411542056E+03  0.84411542056E+03  0.00000000000E+00 0.  1.
         23    2    1    2    0    0  0.72246544634E+02 -0.78300422578E+03 -0.48930565228E+03  0.93004715610E+03  0.85161672221E+02 0.  0.
         11    1    3    3    0    0 -0.17549732470E+02 -0.18808606914E+03 -0.10493101706E+03  0.21608998324E+03  0.00000000000E+00 0.  1.
        -11    1    3    3    0    0  0.89796277103E+02 -0.59491815664E+03 -0.38437463522E+03  0.71395717286E+03  0.00000000000E+00 0. -1.
         22    1    1    2    0    0 -0.72246544634E+02  0.78300422578E+03  0.10153670397E+04  0.12842450725E+04  0.00000000000E+00 0. -1.
<mgrwt>
<rscale>  0 0.21508950E+04</rscale>
<asrwt>0</asrwt>
<pdfrwt beam="1">  1        2 0.21079643E+00 0.21508950E+04</pdfrwt>
<pdfrwt beam="2">  1       -2 0.12986391E+00 0.21508950E+04</pdfrwt>
<totfact> 0.60166705E+00</totfact>
</mgrwt>
</event>
<event>
 6    1  0.1762360E-005  0.1892320E+04  0.7818608E-02  0.8658689E-01
         -2   -1    0    0    0  501 -0.00000000000E+00  0.00000000000E+00  0.28306196075E+03  0.28306196075E+03  0.00000000000E+00 0.  1.
          2   -1    0    0  501    0  0.00000000000E+00 -0.00000000000E+00 -0.31626238090E+04  0.31626238090E+04  0.00000000000E+00 0. -1.
         23    2    1    2    0    0  0.67929425099E+03 -0.18046711534E+03 -0.25905888934E+04  0.26857420693E+04  0.89725075863E+02 0.  0.
         13    1    3    3    0    0  0.84464407992E+02  0.66644582202E+01 -0.28682927142E+03  0.29908139722E+03  0.00000000000E+00 0. -1.
        -13    1    3    3    0    0  0.59482984299E+03 -0.18713157356E+03 -0.23037596220E+04  0.23866606721E+04  0.00000000000E+00 0.  1.
         22    1    1    2    0    0 -0.67929425099E+03  0.18046711534E+03 -0.28897295481E+03  0.75994370038E+03  0.00000000000E+00 0.  1.
<mgrwt>
<rscale>  0 0.18923197E+04</rscale>
<asrwt>0</asrwt>
<pdfrwt beam="1">  1        2 0.48655748E+00 0.18923197E+04</pdfrwt>
<pdfrwt beam="2">  1       -2 0.43547997E-01 0.18923197E+04</pdfrwt>
<totfact> 0.64532662E+00</totfact>
</mgrwt>
</event>
<event>
 6    1  0.1762360E-005  0.2119601E+04  0.7818608E-02  0.8552658E-01
         -2   -1    0    0    0  501 -0.00000000000E+00  0.00000000000E+00  0.50292011457E+03  0.50292011457E+03  0.00000000000E+00 0.  1.
          2   -1    0    0  501    0  0.00000000000E+00 -0.00000000000E+00 -0.22333112607E+04  0.22333112607E+04  0.00000000000E+00 0. -1.
         23    2    1    2    0    0  0.67707898098E+03 -0.22882670318E+02  0.18178962225E+03  0.70758777571E+03  0.93131254043E+02 0.  0.
         11    1    3    3    0    0  0.16333136404E+03 -0.24483186378E+02  0.81379347441E+02  0.18411724277E+03  0.00000000000E+00 0.  1.
        -11    1    3    3    0    0  0.51374761695E+03  0.16005160603E+01  0.10041027481E+03  0.52347053294E+03  0.00000000000E+00 0. -1.
         22    1    1    2    0    0 -0.67707898098E+03  0.22882670318E+02 -0.19121807684E+04  0.20286435995E+04  0.00000000000E+00 0. -1.
<mgrwt>
<rscale>  0 0.21196011E+04</rscale>
<asrwt>0</asrwt>
<pdfrwt beam="1">  1        2 0.34358635E+00 0.21196011E+04</pdfrwt>
<pdfrwt beam="2">  1       -2 0.77372325E-01 0.21196011E+04</pdfrwt>
<totfact> 0.67784158E+00</totfact>
</mgrwt>
</event>
<event>
 6    1  0.1762360E-005  0.4181028E+04  0.7818608E-02  0.7968991E-01
         -2   -1    0    0    0  501 -0.00000000000E+00  0.00000000000E+00  0.23830354945E+04  0.23830354945E+04  0.00000000000E+00 0. -1.
          2   -1    0    0  501    0  0.00000000000E+00 -0.00000000000E+00 -0.18339000396E+04  0.18339000396E+04  0.00000000000E+00 0.  1.
         23    2    1    2    0    0  0.14477660028E+04 -0.72518330905E+03 -0.10571347200E+04  0.19361415704E+04  0.95880830561E+02 0.  0.
         13    1    3    3    0    0  0.88341460932E+03 -0.39443653236E+03 -0.65346200933E+03  0.11674819689E+04  0.00000000000E+00 0. -1.
        -13    1    3    3    0    0  0.56435139348E+03 -0.33074677669E+03 -0.40367271067E+03  0.76865960149E+03  0.00000000000E+00 0.  1.
         22    1    1    2    0    0 -0.14477660028E+04  0.72518330905E+03  0.16062701749E+04  0.22807939638E+04  0.00000000000E+00 0. -1.
<mgrwt>
<rscale>  0 0.41810280E+04</rscale>
<asrwt>0</asrwt>
<pdfrwt beam="1">  1        2 0.28213847E+00 0.41810280E+04</pdfrwt>
<pdfrwt beam="2">  1       -2 0.36662085E+00 0.41810280E+04</pdfrwt>
<totfact> 0.78369483E-02</totfact>
</mgrwt>
</event>
<event>
 6    1  0.1762360E-005  0.2590090E+04  0.7818608E-02  0.8371575E-01
         -2   -1    0    0    0  501 -0.00000000000E+00  0.00000000000E+00  0.19787201767E+04  0.19787201767E+04  0.00000000000E+00 0. -1.
          2   -1    0    0  501    0  0.00000000000E+00 -0.00000000000E+00 -0.84758899034E+03  0.84758899034E+03  0.00000000000E+00 0.  1.
         23    2    1    2    0    0  0.54636573205E+03  0.11269863432E+04  0.91886728266E+03  0.15560061734E+04  0.90688464752E+02 0.  0.
         13    1    3    3    0    0  0.76883019283E+02  0.24112989769E+03  0.19120366598E+03  0.31719626117E+03  0.00000000000E+00 0. -1.
        -13    1    3    3    0    0  0.46948271277E+03  0.88585644547E+03  0.72766361668E+03  0.12388099122E+04  0.00000000000E+00 0.  1.
         22    1    1    2    0    0 -0.54636573205E+03 -0.11269863432E+04  0.21226390367E+03  0.12703029936E+04  0.00000000000E+00 0.  1.
<mgrwt>
<rscale>  0 0.25900899E+04</rscale>
<asrwt>0</asrwt>
<pdfrwt beam="1">  1        2 0.13039831E+00 0.25900899E+04</pdfrwt>
<pdfrwt beam="2">  1       -2 0.30441849E+00 0.25900899E+04</pdfrwt>
<totfact> 0.84243003E-01</totfact>
</mgrwt>
</event>
<event>
 6    1  0.1762360E-005  0.1949372E+04  0.7818608E-02  0.8630664E-01
          2   -1    0    0  501    0  0.00000000000E+00  0.00000000000E+00  0.24343143427E+04  0.24343143427E+04  0.00000000000E+00 0. -1.
         -2   -1    0    0    0  501 -0.00000000000E+00 -0.00000000000E+00 -0.39025888635E+03  0.39025888635E+03  0.00000000000E+00 0.  1.
         23    2    1    2    0    0  0.28513039053E+03 -0.70033649748E+03  0.19104981442E+04  0.20567137986E+04  0.91093035752E+02 0.  0.
         11    1    3    3    0    0  0.13237484988E+03 -0.40987560434E+03  0.99734015096E+03  0.10863740095E+04  0.00000000000E+00 0. -1.
        -11    1    3    3    0    0  0.15275554065E+03 -0.29046089314E+03  0.91315799324E+03  0.97033978907E+03  0.00000000000E+00 0.  1.
         22    1    1    2    0    0 -0.28513039053E+03  0.70033649748E+03  0.13355731218E+03  0.76785943046E+03  0.00000000000E+00 0.  1.
<mgrwt>
<rscale>  0 0.19493720E+04</rscale>
<asrwt>0</asrwt>
<pdfrwt beam="1">  1        2 0.37450989E+00 0.19493720E+04</pdfrwt>
<pdfrwt beam="2">  1       -2 0.60039830E-01 0.19493720E+04</pdfrwt>
<totfact> 0.91705754E+00</totfact>
</mgrwt>
</event>
<event>
 6    1  0.1762360E-005  0.2909685E+04  0.7818608E-02  0.8270002E-01
          2   -1    0    0  501    0  0.00000000000E+00  0.00000000000E+00  0.18910058857E+04  0.18910058857E+04  0.00000000000E+00 0. -1.
         -2   -1    0    0    0  501 -0.00000000000E+00 -0.00000000000E+00 -0.11192807791E+04  0.11192807791E+04  0.00000000000E+00 0.  1.
         23    2    1    2    0    0  0.42493992391E+03 -0.97257026433E+03  0.14134522403E+04  0.17700122709E+04  0.92894269351E+02 0.  0.
         13    1    3    3    0    0  0.14013718148E+03 -0.43404428585E+03  0.61743385384E+03  0.76763105434E+03  0.00000000000E+00 0. -1.
        -13    1    3    3    0    0  0.28480274243E+03 -0.53852597848E+03  0.79601838650E+03  0.10023812165E+04  0.00000000000E+00 0.  1.
         22    1    1    2    0    0 -0.42493992391E+03  0.97257026433E+03 -0.64172713379E+03  0.12402743939E+04  0.00000000000E+00 0.  1.
<mgrwt>
<rscale>  0 0.29096849E+04</rscale>
<asrwt>0</asrwt>
<pdfrwt beam="1">  1        2 0.29092398E+00 0.29096849E+04</pdfrwt>
<pdfrwt beam="2">  1       -2 0.17219704E+00 0.29096849E+04</pdfrwt>
<totfact> 0.13622282E+00</totfact>
</mgrwt>
</event>
<event>
 6    1  0.1762360E-005  0.4256373E+04  0.7818608E-02  0.7954735E-01
         -2   -1    0    0    0  501 -0.00000000000E+00  0.00000000000E+00  0.15550487117E+04  0.15550487117E+04  0.00000000000E+00 0.  1.
          2   -1    0    0  501    0  0.00000000000E+00 -0.00000000000E+00 -0.29125634069E+04  0.29125634069E+04  0.00000000000E+00 0. -1.
         23    2    1    2    0    0  0.90420575465E+03  0.70974565665E+03 -0.25578589706E+04  0.28056393982E+04  0.87424110747E+02 0.  0.
         13    1    3    3    0    0  0.11139768311E+03  0.55099187229E+02 -0.29864633870E+03  0.32347333716E+03  0.00000000000E+00 0.  1.
        -13    1    3    3    0    0  0.79280807154E+03  0.65464646942E+03 -0.22592126319E+04  0.24821660610E+04  0.00000000000E+00 0. -1.
         22    1    1    2    0    0 -0.90420575465E+03 -0.70974565665E+03  0.12003442754E+04  0.16619727204E+04  0.00000000000E+00 0.  1.
<mgrwt>
<rscale>  0 0.42563731E+04</rscale>
<asrwt>0</asrwt>
<pdfrwt beam="1">  1        2 0.44808667E+00 0.42563731E+04</pdfrwt>
<pdfrwt beam="2">  1       -2 0.23923826E+00 0.42563731E+04</pdfrwt>
<totfact> 0.11415657E-01</totfact>
</mgrwt>
</event>
<event>
 6    1  0.1762360E-005  0.2475482E+04  0.7818608E-02  0.8411773E-01
         -2   -1    0    0    0  501 -0.00000000000E+00  0.00000000000E+00  0.80767548935E+03  0.80767548935E+03  0.00000000000E+00 0.  1.
          2   -1    0    0  501    0  0.00000000000E+00 -0.00000000000E+00 -0.18968047808E+04  0.18968047808E+04  0.00000000000E+00 0. -1.
         23    2    1    2    0    0  0.86619925917E+03  0.16229922928E+03  0.40156615541E+03  0.97277154415E+03  0.91580038894E+02 0.  0.
         13    1    3    3    0    0  0.15827348211E+02  0.13713818258E+02  0.19964816911E+02  0.28933850019E+02  0.00000000000E+00 0. -1.
        -13    1    3    3    0    0  0.85037191096E+03  0.14858541102E+03  0.38160133850E+03  0.94383769413E+03  0.00000000000E+00 0.  1.
         22    1    1    2    0    0 -0.86619925917E+03 -0.16229922928E+03 -0.14906954469E+04  0.17317087260E+04  0.00000000000E+00 0. -1.
<mgrwt>
<rscale>  0 0.24754820E+04</rscale>
<asrwt>0</asrwt>
<pdfrwt beam="1">  1        2 0.29181612E+00 0.24754820E+04</pdfrwt>
<pdfrwt beam="2">  1       -2 0.12425777E+00 0.24754820E+04</pdfrwt>
<totfact> 0.33165290E+00</totfact>
</mgrwt>
</event>
<event>
 6    1  0.1762360E-005  0.2746806E+04  0.7818608E-02  0.8319976E-01
         -1   -1    0    0    0  501 -0.00000000000E+00  0.00000000000E+00  0.16585827746E+04  0.16585827746E+04  0.00000000000E+00 0.  1.
          1   -1    0    0  501    0  0.00000000000E+00 -0.00000000000E+00 -0.11372575911E+04  0.11372575911E+04  0.00000000000E+00 0. -1.
         23    2    1    2    0    0 -0.88431834889E+03 -0.73543986047E+03 -0.50074512853E+03  0.12571661138E+04  0.82645165489E+02 0.  0.
         11    1    3    3    0    0 -0.52372178452E+03 -0.38762316460E+03 -0.26353147988E+03  0.70284071183E+03  0.00000000000E+00 0.  1.
        -11    1    3    3    0    0 -0.36059656437E+03 -0.34781669587E+03 -0.23721364865E+03  0.55432540197E+03  0.00000000000E+00 0. -1.
         22    1    1    2    0    0  0.88431834889E+03  0.73543986047E+03  0.10220703120E+04  0.15386742518E+04  0.00000000000E+00 0.  1.
<mgrwt>
<rscale>  0 0.27468060E+04</rscale>
<asrwt>0</asrwt>
<pdfrwt beam="1">  1        1 0.17496271E+00 0.27468060E+04</pdfrwt>
<pdfrwt beam="2">  1       -1 0.25516658E+00 0.27468060E+04</pdfrwt>
<totfact> 0.66697028E-01</totfact>
</mgrwt>
</event>
<event>
 6    1  0.1762360E-005  0.3690875E+04  0.7818608E-02  0.8069987E-01
         -2   -1    0    0    0  501 -0.00000000000E+00  0.00000000000E+00  0.26699964136E+04  0.26699964136E+04  0.00000000000E+00 0.  1.
          2   -1    0    0  501    0  0.00000000000E+00 -0.00000000000E+00 -0.12755218124E+04  0.12755218124E+04  0.00000000000E+00 0. -1.
         23    2    1    2    0    0 -0.13441263462E+04  0.68733478752E+03  0.18302120096E+04  0.23742219987E+04  0.90273775368E+02 0.  0.
         11    1    3    3    0    0 -0.95553976498E+03  0.46321010813E+03  0.12315927641E+04  0.16261736018E+04  0.00000000000E+00 0. -1.
        -11    1    3    3    0    0 -0.38858658119E+03  0.22412467939E+03  0.59861924553E+03  0.74804839690E+03  0.00000000000E+00 0.  1.
         22    1    1    2    0    0  0.13441263462E+04 -0.68733478752E+03 -0.43573740839E+03  0.15712962272E+04  0.00000000000E+00 0. -1.
<mgrwt>
<rscale>  0 0.36908745E+04</rscale>
<asrwt>0</asrwt>
<pdfrwt beam="1">  1        2 0.19623413E+00 0.36908745E+04</pdfrwt>
<pdfrwt beam="2">  1       -2 0.41076868E+00 0.36908745E+04</pdfrwt>
<totfact> 0.87123381E-02</totfact>
</mgrwt>
</event>
<event>
 6    1  0.2590401E-005  0.3523696E+04  0.7818608E-02  0.8108197E-01
         -1   -1    0    0    0  501 -0.00000000000E+00  0.00000000000E+00  0.15453071867E+04  0.15453071867E+04  0.00000000000E+00 0.  1.
          1   -1    0    0  501    0  0.00000000000E+00 -0.00000000000E+00 -0.20087327610E+04  0.20087327610E+04  0.00000000000E+00 0. -1.
         23    2    1    2    0    0  0.76215940627E+03  0.76180878165E+03 -0.16363036641E+04  0.19612805202E+04  0.88837026570E+02 0.  0.
         11    1    3    3    0    0  0.33017603510E+03  0.33268339287E+03 -0.63262136510E+03  0.78733998097E+03  0.00000000000E+00 0. -1.
        -11    1    3    3    0    0  0.43198337118E+03  0.42912538878E+03 -0.10036822990E+04  0.11739405392E+04  0.00000000000E+00 0.  1.
         22    1    1    2    0    0 -0.76215940627E+03 -0.76180878165E+03  0.11728780898E+04  0.15927594275E+04  0.00000000000E+00 0.  1.
<mgrwt>
<rscale>  0 0.35236965E+04</rscale>
<asrwt>0</asrwt>
<pdfrwt beam="1">  1        1 0.30903581E+00 0.35236965E+04</pdfrwt>
<pdfrwt beam="2">  1       -1 0.23773957E+00 0.35236965E+04</pdfrwt>
<totfact> 0.20082846E-01</totfact>
</mgrwt>
</event>
<event>
 6    1  0.1762360E-005  0.3818976E+04  0.7818608E-02  0.8042095E-01
          1   -1    0    0  501    0  0.00000000000E+00  0.00000000000E+00  0.13943648776E+04  0.13943648776E+04  0.00000000000E+00 0. -1.
         -1   -1    0    0    0  501 -0.00000000000E+00 -0.00000000000E+00 -0.26149147811E+04  0.26149147811E+04  0.00000000000E+00 0.  1.
         23    2    1    2    0    0 -0.85920273417E+02 -0.19062964013E+04 -0.58512188055E+03  0.19980320271E+04  0.91739320373E+02 0.  0.
         11    1    3    3    0    0 -0.56709041545E+02 -0.13211294182E+04 -0.36104440275E+03  0.13707486698E+04  0.00000000000E+00 0. -1.
        -11    1    3    3    0    0 -0.29211231872E+02 -0.58516698316E+03 -0.22407747779E+03  0.62728335727E+03  0.00000000000E+00 0.  1.
         22    1    1    2    0    0  0.85920273417E+02  0.19062964013E+04 -0.63542802298E+03  0.20112476316E+04  0.00000000000E+00 0.  1.
<mgrwt>
<rscale>  0 0.38189765E+04</rscale>
<asrwt>0</asrwt>
<pdfrwt beam="1">  1        1 0.21451768E+00 0.38189765E+04</pdfrwt>
<pdfrwt beam="2">  1       -1 0.40229458E+00 0.38189765E+04</pdfrwt>
<totfact> 0.42464004E-02</totfact>
</mgrwt>
</event>
<event>
 6    1  0.1762360E-005  0.1165140E+04  0.7818608E-02  0.9143928E-01
          2   -1    0    0  501    0  0.00000000000E+00  0.00000000000E+00  0.92969731138E+03  0.92969731138E+03  0.00000000000E+00 0. -1.
         -2   -1    0    0    0  501 -0.00000000000E+00 -0.00000000000E+00 -0.36505214773E+03  0.36505214773E+03  0.00000000000E+00 0.  1.
         23    2    1    2    0    0  0.70990508697E+02  0.22915191331E+03 -0.30122817276E+03  0.39625800874E+03  0.93443810502E+02 0.  0.
         13    1    3    3    0    0  0.80792865912E+02  0.12839333274E+03 -0.14336998318E+03  0.20872778241E+03  0.00000000000E+00 0. -1.
        -13    1    3    3    0    0 -0.98023572150E+01  0.10075858058E+03 -0.15785818958E+03  0.18753022632E+03  0.00000000000E+00 0.  1.
         22    1    1    2    0    0 -0.70990508697E+02 -0.22915191331E+03  0.86587333641E+03  0.89849145038E+03  0.00000000000E+00 0. -1.
<mgrwt>
<rscale>  0 0.11651403E+04</rscale>
<asrwt>0</asrwt>
<pdfrwt beam="1">  1        2 0.14303035E+00 0.11651403E+04</pdfrwt>
<pdfrwt beam="2">  1       -2 0.56161869E-01 0.11651403E+04</pdfrwt>
<totfact> 0.82435693E+01</totfact>
</mgrwt>
</event>
<event>
 6    1  0.1762360E-005  0.6503517E+03  0.7818608E-02  0.9806119E-01
          1   -1    0    0  501    0  0.00000000000E+00  0.00000000000E+00  0.28959034496E+03  0.28959034496E+03  0.00000000000E+00 0. -1.
         -1   -1    0    0    0  501 -0.00000000000E+00 -0.00000000000E+00 -0.36513420131E+03  0.36513420131E+03  0.00000000000E+00 0.  1.
         23    2    1    2    0    0  0.31913987690E+03  0.75610761642E+01 -0.24279688660E+02  0.33140512868E+03  0.85629580949E+02 0.  0.
         13    1    3    3    0    0  0.13536020286E+03 -0.31665201768E+02  0.13693842124E+02  0.13968747558E+03  0.00000000000E+00 0.  1.
        -13    1    3    3    0    0  0.18377967404E+03  0.39226277932E+02 -0.37973530785E+02  0.19171765310E+03  0.00000000000E+00 0. -1.
         22    1    1    2    0    0 -0.31913987690E+03 -0.75610761642E+01 -0.51264167687E+02  0.32331941759E+03  0.00000000000E+00 0.  1.
<mgrwt>
<rscale>  0 0.65035172E+03</rscale>
<asrwt>0</asrwt>
<pdfrwt beam="1">  1        1 0.44552360E-01 0.65035172E+03</pdfrwt>
<pdfrwt beam="2">  1       -1 0.56174493E-01 0.65035172E+03</pdfrwt>
<totfact> 0.29856171E+02</totfact>
</mgrwt>
</event>
<event>
 6    1  0.1762360E-005  0.1496802E+04  0.7818608E-02  0.8886582E-01
          2   -1    0    0  501    0  0.00000000000E+00  0.00000000000E+00  0.27236841007E+04  0.27236841007E+04  0.00000000000E+00 0. -1.
         -2   -1    0    0    0  501 -0.00000000000E+00 -0.00000000000E+00 -0.20564217819E+03  0.20564217819E+03  0.00000000000E+00 0.  1.
         23    2    1    2    0    0  0.66460904431E+03  0.16414573935E+03  0.18419259431E+04  0.19671507112E+04  0.91333099137E+02 0.  0.
         11    1    3    3    0    0  0.31797130940E+03  0.33562143744E+02  0.81651899925E+03  0.87688964370E+03  0.00000000000E+00 0. -1.
        -11    1    3    3    0    0  0.34663773491E+03  0.13058359560E+03  0.10254069439E+04  0.10902610675E+04  0.00000000000E+00 0.  1.
         22    1    1    2    0    0 -0.66460904431E+03 -0.16414573935E+03  0.67611597939E+03  0.96217556772E+03  0.00000000000E+00 0.  1.
<mgrwt>
<rscale>  0 0.14968024E+04</rscale>
<asrwt>0</asrwt>
<pdfrwt beam="1">  1        2 0.41902830E+00 0.14968024E+04</pdfrwt>
<pdfrwt beam="2">  1       -2 0.31637260E-01 0.14968024E+04</pdfrwt>
<totfact> 0.23162418E+01</totfact>
</mgrwt>
</event>
<event>
 6    1  0.1762360E-005  0.7596527E+03  0.7818608E-02  0.9620327E-01
         -1   -1    0    0    0  501 -0.00000000000E+00  0.00000000000E+00  0.11590242824E+03  0.11590242824E+03  0.00000000000E+00 0.  1.
          1   -1    0    0  501    0  0.00000000000E+00 -0.00000000000E+00 -0.12447370009E+04  0.12447370009E+04  0.00000000000E+00 0. -1.
         23    2    1    2    0    0  0.14220779005E+03 -0.34505773711E+03 -0.51779497641E+03  0.64463853131E+03  0.90328849015E+02 0.  0.
         13    1    3    3    0    0  0.83413306530E+02 -0.14349520086E+03 -0.16465002821E+03  0.23379111224E+03  0.00000000000E+00 0.  1.
        -13    1    3    3    0    0  0.58794483520E+02 -0.20156253626E+03 -0.35314494820E+03  0.41084741907E+03  0.00000000000E+00 0. -1.
         22    1    1    2    0    0 -0.14220779005E+03  0.34505773711E+03 -0.61103959627E+03  0.71600089783E+03  0.00000000000E+00 0. -1.
<mgrwt>
<rscale>  0 0.75965266E+03</rscale>
<asrwt>0</asrwt>
<pdfrwt beam="1">  1        1 0.19149800E+00 0.75965266E+03</pdfrwt>
<pdfrwt beam="2">  1       -1 0.17831143E-01 0.75965266E+03</pdfrwt>
<totfact> 0.24879842E+02</totfact>
</mgrwt>
</event>
<event>
 6    1  0.1762360E-005  0.1651441E+04  0.7818608E-02  0.8789555E-01
          1   -1    0    0  501    0  0.00000000000E+00  0.00000000000E+00  0.47566882881E+03  0.47566882881E+03  0.00000000000E+00 0. -1.
         -1   -1    0    0    0  501 -0.00000000000E+00 -0.00000000000E+00 -0.14333800138E+04  0.14333800138E+04  0.00000000000E+00 0.  1.
         23    2    1    2    0    0  0.36834272090E+03 -0.61767506580E+02 -0.13283267300E+04  0.13828858762E+04  0.91814269907E+02 0.  0.
         11    1    3    3    0    0  0.15045928387E+03 -0.84134916893E+01 -0.38958176423E+03  0.41771130457E+03  0.00000000000E+00 0. -1.
        -11    1    3    3    0    0  0.21788343703E+03 -0.53354014890E+02 -0.93874496578E+03  0.96517457168E+03  0.00000000000E+00 0.  1.
         22    1    1    2    0    0 -0.36834272090E+03  0.61767506580E+02  0.37061554505E+03  0.52616296634E+03  0.00000000000E+00 0. -1.
<mgrwt>
<rscale>  0 0.16514408E+04</rscale>
<asrwt>0</asrwt>
<pdfrwt beam="1">  1        1 0.73179821E-01 0.16514408E+04</pdfrwt>
<pdfrwt beam="2">  1       -1 0.22052000E+00 0.16514408E+04</pdfrwt>
<totfact> 0.49514369E+00</totfact>
</mgrwt>
</event>
<event>
 6    1  0.1762360E-005  0.1794063E+04  0.7818608E-02  0.8709463E-01
         -2   -1    0    0    0  501 -0.00000000000E+00  0.00000000000E+00  0.46146036957E+03  0.46146036957E+03  0.00000000000E+00 0. -1.
          2   -1    0    0  501    0  0.00000000000E+00 -0.00000000000E+00 -0.17437378268E+04  0.17437378268E+04  0.00000000000E+00 0.  1.
         23    2    1    2    0    0 -0.22534495599E+03 -0.58581433167E+03  0.14075924060E+03  0.64988722304E+03  0.92636161759E+02 0.  0.
         13    1    3    3    0    0 -0.70097968424E+02 -0.17275971236E+03 -0.89583424097E+00  0.18644153483E+03  0.00000000000E+00 0. -1.
        -13    1    3    3    0    0 -0.15524698757E+03 -0.41305461931E+03  0.14165507484E+03  0.46344568820E+03  0.00000000000E+00 0.  1.
         22    1    1    2    0    0  0.22534495599E+03  0.58581433167E+03 -0.14230366978E+04  0.15553109733E+04  0.00000000000E+00 0.  1.
<mgrwt>
<rscale>  0 0.17940634E+04</rscale>
<asrwt>0</asrwt>
<pdfrwt beam="1">  1        2 0.26826735E+00 0.17940634E+04</pdfrwt>
<pdfrwt beam="2">  1       -2 0.70993904E-01 0.17940634E+04</pdfrwt>
<totfact> 0.15784023E+01</totfact>
</mgrwt>
</event>
<event>
 6    1  0.1762360E-005  0.1780825E+04  0.7818608E-02  0.8716564E-01
          2   -1    0    0  501    0  0.00000000000E+00  0.00000000000E+00  0.13378941327E+04  0.13378941327E+04  0.00000000000E+00 0. -1.
         -2   -1    0    0    0  501 -0.00000000000E+00 -0.00000000000E+00 -0.59259846937E+03  0.59259846937E+03  0.00000000000E+00 0.  1.
         23    2    1    2    0    0  0.11701432791E+02  0.26659035220E+03  0.12918433165E+04  0.13222807339E+04  0.91432190575E+02 0.  0.
         13    1    3    3    0    0  0.29190039833E+02  0.75649257398E+02  0.24637835663E+03  0.25937841697E+03  0.00000000000E+00 0. -1.
        -13    1    3    3    0    0 -0.17488607042E+02  0.19094109480E+03  0.10454649599E+04  0.10629023169E+04  0.00000000000E+00 0.  1.
         22    1    1    2    0    0 -0.11701432791E+02 -0.26659035220E+03 -0.54654765316E+03  0.60821186817E+03  0.00000000000E+00 0.  1.
<mgrwt>
<rscale>  0 0.17808245E+04</rscale>
<asrwt>0</asrwt>
<pdfrwt beam="1">  1        2 0.20582987E+00 0.17808245E+04</pdfrwt>
<pdfrwt beam="2">  1       -2 0.91168996E-01 0.17808245E+04</pdfrwt>
<totfact> 0.15241152E+01</totfact>
</mgrwt>
</event>
<event>
 6    1  0.1762360E-005  0.3465869E+04  0.7818608E-02  0.8121927E-01
         -2   -1    0    0    0  501 -0.00000000000E+00  0.00000000000E+00  0.12943923704E+04  0.12943923704E+04  0.00000000000E+00 0.  1.
          2   -1    0    0  501    0  0.00000000000E+00 -0.00000000000E+00 -0.23200553589E+04  0.23200553589E+04  0.00000000000E+00 0. -1.
         23    2    1    2    0    0  0.62885153369E+03 -0.15967154626E+04 -0.27025676661E+03  0.17394562413E+04  0.87833794672E+02 0.  0.
         13    1    3    3    0    0  0.27373470132E+03 -0.59208592895E+03 -0.12272386734E+03  0.66374511794E+03  0.00000000000E+00 0.  1.
        -13    1    3    3    0    0  0.35511683237E+03 -0.10046295337E+04 -0.14753289927E+03  0.10757111233E+04  0.00000000000E+00 0. -1.
         22    1    1    2    0    0 -0.62885153369E+03  0.15967154626E+04 -0.75540622196E+03  0.18749914880E+04  0.00000000000E+00 0.  1.
<mgrwt>
<rscale>  0 0.34658690E+04</rscale>
<asrwt>0</asrwt>
<pdfrwt beam="1">  1        2 0.35693159E+00 0.34658690E+04</pdfrwt>
<pdfrwt beam="2">  1       -2 0.19913729E+00 0.34658690E+04</pdfrwt>
<totfact> 0.49033609E-01</totfact>
</mgrwt>
</event>
<event>
 6    1  0.1762360E-005  0.2733096E+04  0.7818608E-02  0.8324346E-01
         -1   -1    0    0    0  501 -0.00000000000E+00  0.00000000000E+00  0.74578948397E+03  0.74578948397E+03  0.00000000000E+00 0.  1.
          1   -1    0    0  501    0  0.00000000000E+00 -0.00000000000E+00 -0.25039954414E+04  0.25039954414E+04  0.00000000000E+00 0. -1.
         23    2    1    2    0    0  0.82471364901E+03  0.32088121150E+03 -0.21159630564E+04  0.22952654145E+04  0.88466445187E+02 0.  0.
         13    1    3    3    0    0  0.59923473783E+03  0.26007370281E+03 -0.14788473237E+04  0.16166972533E+04  0.00000000000E+00 0.  1.
        -13    1    3    3    0    0  0.22547891118E+03  0.60807508687E+02 -0.63711573276E+03  0.67856816123E+03  0.00000000000E+00 0. -1.
         22    1    1    2    0    0 -0.82471364901E+03 -0.32088121150E+03  0.35775709902E+03  0.95451951089E+03  0.00000000000E+00 0.  1.
<mgrwt>
<rscale>  0 0.27330960E+04</rscale>
<asrwt>0</asrwt>
<pdfrwt beam="1">  1        1 0.38523006E+00 0.27330960E+04</pdfrwt>
<pdfrwt beam="2">  1       -1 0.11473685E+00 0.27330960E+04</pdfrwt>
<totfact> 0.80857958E-01</totfact>
</mgrwt>
</event>
<event>
 6    1  0.1762360E-005  0.9546801E+03  0.7818608E-02  0.9359697E-01
          1   -1    0    0  501    0  0.00000000000E+00  0.00000000000E+00  0.32147529813E+04  0.32147529813E+04  0.00000000000E+00 0. -1.
         -1   -1    0    0    0  501 -0.00000000000E+00 -0.00000000000E+00 -0.70877452285E+02  0.70877452285E+02  0.00000000000E+00 0.  1.
         23    2    1    2    0    0  0.43246637855E+03 -0.19158782806E+03  0.16041870555E+04  0.16749244828E+04  0.90679929345E+02 0.  0.
         11    1    3    3    0    0  0.12739257616E+03 -0.58598469467E+02  0.63145641069E+03  0.64683834742E+03  0.00000000000E+00 0.  1.
        -11    1    3    3    0    0  0.30507380239E+03 -0.13298935860E+03  0.97273064484E+03  0.10280861354E+04  0.00000000000E+00 0. -1.
         22    1    1    2    0    0 -0.43246637855E+03  0.19158782806E+03  0.15396884735E+04  0.16107059507E+04  0.00000000000E+00 0.  1.
<mgrwt>
<rscale>  0 0.95468005E+03</rscale>
<asrwt>0</asrwt>
<pdfrwt beam="1">  1        1 0.49457727E+00 0.95468005E+03</pdfrwt>
<pdfrwt beam="2">  1       -1 0.10904226E-01 0.95468005E+03</pdfrwt>
<totfact> 0.23630154E+01</totfact>
</mgrwt>
</event>
<event>
 6    1  0.1762360E-005  0.1055154E+04  0.7818608E-02  0.9250039E-01
         -2   -1    0    0    0  501 -0.00000000000E+00  0.00000000000E+00  0.29470773165E+03  0.29470773165E+03  0.00000000000E+00 0.  1.
          2   -1    0    0  501    0  0.00000000000E+00 -0.00000000000E+00 -0.94445181588E+03  0.94445181588E+03  0.00000000000E+00 0. -1.
         23    2    1    2    0    0 -0.87956777862E+02 -0.51072600619E+03 -0.24484909937E+03  0.58149899913E+03  0.98043645168E+02 0.  0.
         11    1    3    3    0    0  0.13352645750E+02 -0.14379277214E+03 -0.43250684858E+02  0.15074905044E+03  0.00000000000E+00 0.  1.
        -11    1    3    3    0    0 -0.10130942361E+03 -0.36693323405E+03 -0.20159841451E+03  0.43074994869E+03  0.00000000000E+00 0. -1.
         22    1    1    2    0    0  0.87956777862E+02  0.51072600619E+03 -0.40489498486E+03  0.65766054841E+03  0.00000000000E+00 0. -1.
<mgrwt>
<rscale>  0 0.10551535E+04</rscale>
<asrwt>0</asrwt>
<pdfrwt beam="1">  1        2 0.14530028E+00 0.10551535E+04</pdfrwt>
<pdfrwt beam="2">  1       -2 0.45339650E-01 0.10551535E+04</pdfrwt>
<totfact> 0.12567625E+02</totfact>
</mgrwt>
</event>
<event>
 6    1  0.1762360E-005  0.1875113E+04  0.7818608E-02  0.8667345E-01
          2   -1    0    0  501    0  0.00000000000E+00  0.00000000000E+00  0.22551337975E+04  0.22551337975E+04  0.00000000000E+00 0. -1.
         -2   -1    0    0    0  501 -0.00000000000E+00 -0.00000000000E+00 -0.38978256977E+03  0.38978256977E+03  0.00000000000E+00 0.  1.
         23    2    1    2    0    0 -0.34566979991E+03  0.52676347670E+03  0.19100982905E+04  0.20132759074E+04  0.88526994558E+02 0.  0.
         11    1    3    3    0    0 -0.19913770872E+03  0.30031051661E+03  0.12282680190E+04  0.12800330308E+04  0.00000000000E+00 0. -1.
        -11    1    3    3    0    0 -0.14653209118E+03  0.22645296009E+03  0.68183027155E+03  0.73324287660E+03  0.00000000000E+00 0.  1.
         22    1    1    2    0    0  0.34566979991E+03 -0.52676347670E+03 -0.44747062795E+02  0.63164045990E+03  0.00000000000E+00 0.  1.
<mgrwt>
<rscale>  0 0.18751126E+04</rscale>
<asrwt>0</asrwt>
<pdfrwt beam="1">  1        2 0.34694365E+00 0.18751126E+04</pdfrwt>
<pdfrwt beam="2">  1       -2 0.59966550E-01 0.18751126E+04</pdfrwt>
<totfact> 0.11699939E+01</totfact>
</mgrwt>
</event>
<event>
 6    1  0.1762360E-005  0.2190374E+04  0.7818608E-02  0.8522445E-01
         -1   -1    0    0    0  501 -0.00000000000E+00  0.00000000000E+00  0.64475886972E+03  0.64475886972E+03  0.00000000000E+00 0.  1.
          1   -1    0    0  501    0  0.00000000000E+00 -0.00000000000E+00 -0.18602841129E+04  0.18602841129E+04  0.00000000000E+00 0. -1.
         23    2    1    2    0    0 -0.10260883663E+04  0.31229618950E+03 -0.36619097138E+03  0.11369220265E+04  0.90053436046E+02 0.  0.
         11    1    3    3    0    0 -0.94510703766E+03  0.27939917765E+03 -0.31056942236E+03  0.10333172694E+04  0.00000000000E+00 0.  1.
        -11    1    3    3    0    0 -0.80981328624E+02  0.32897011853E+02 -0.55621549017E+02  0.10360475708E+03  0.00000000000E+00 0. -1.
         22    1    1    2    0    0  0.10260883663E+04 -0.31229618950E+03 -0.84933427180E+03  0.13681209561E+04  0.00000000000E+00 0.  1.
<mgrwt>
<rscale>  0 0.21903741E+04</rscale>
<asrwt>0</asrwt>
<pdfrwt beam="1">  1        1 0.28619755E+00 0.21903741E+04</pdfrwt>
<pdfrwt beam="2">  1       -1 0.99193674E-01 0.21903741E+04</pdfrwt>
<totfact> 0.32840308E+00</totfact>
</mgrwt>
</event>
<event>
 6    1  0.1762360E-005  0.2829554E+04  0.7818608E-02  0.8294151E-01
         -2   -1    0    0    0  501 -0.00000000000E+00  0.00000000000E+00  0.10076759843E+04  0.10076759843E+04  0.00000000000E+00 0.  1.
          2   -1    0    0  501    0  0.00000000000E+00 -0.00000000000E+00 -0.19863468778E+04  0.19863468778E+04  0.00000000000E+00 0. -1.
         23    2    1    2    0    0  0.58260037204E+01  0.36768571324E+03 -0.19337762806E+04  0.19705713358E+04  0.91836593796E+02 0.  0.
         13    1    3    3    0    0 -0.23146083179E+02  0.14477954690E+03 -0.57907407350E+03  0.59734716954E+03  0.00000000000E+00 0. -1.
        -13    1    3    3    0    0  0.28972086899E+02  0.22290616634E+03 -0.13547022071E+04  0.13732241663E+04  0.00000000000E+00 0.  1.
         22    1    1    2    0    0 -0.58260037204E+01 -0.36768571324E+03  0.95510538714E+03  0.10234515263E+04  0.00000000000E+00 0.  1.
<mgrwt>
<rscale>  0 0.28295541E+04</rscale>
<asrwt>0</asrwt>
<pdfrwt beam="1">  1        2 0.30559182E+00 0.28295541E+04</pdfrwt>
<pdfrwt beam="2">  1       -2 0.15502708E+00 0.28295541E+04</pdfrwt>
<totfact> 0.16196232E+00</totfact>
</mgrwt>
</event>
<event>
 6    1  0.1762360E-005  0.3058973E+04  0.7818608E-02  0.8227088E-01
          2   -1    0    0  501    0  0.00000000000E+00  0.00000000000E+00  0.21868040854E+04  0.21868040854E+04  0.00000000000E+00 0.  1.
         -2   -1    0    0    0  501 -0.00000000000E+00 -0.00000000000E+00 -0.10697477014E+04  0.10697477014E+04  0.00000000000E+00 0. -1.
         23    2    1    2    0    0  0.10819302985E+04  0.79348333568E+03  0.13376604620E+04  0.18968256622E+04  0.91777481781E+02 0.  0.
         11    1    3    3    0    0  0.44041198333E+03  0.31580185836E+03  0.47787381996E+03  0.72253506254E+03  0.00000000000E+00 0. -1.
        -11    1    3    3    0    0  0.64151831512E+03  0.47768147732E+03  0.85978664209E+03  0.11742905996E+04  0.00000000000E+00 0.  1.
         22    1    1    2    0    0 -0.10819302985E+04 -0.79348333568E+03 -0.22060407806E+03  0.13597261246E+04  0.00000000000E+00 0. -1.
<mgrwt>
<rscale>  0 0.30589728E+04</rscale>
<asrwt>0</asrwt>
<pdfrwt beam="1">  1        2 0.33643140E+00 0.30589728E+04</pdfrwt>
<pdfrwt beam="2">  1       -2 0.16457657E+00 0.30589728E+04</pdfrwt>
<totfact> 0.10433581E+00</totfact>
</mgrwt>
</event>
<event>
 6    1  0.1762360E-005  0.3775398E+04  0.7818608E-02  0.8051455E-01
          2   -1    0    0  501    0  0.00000000000E+00  0.00000000000E+00  0.23670340606E+04  0.23670340606E+04  0.00000000000E+00 0.  1.
         -2   -1    0    0    0  501 -0.00000000000E+00 -0.00000000000E+00 -0.15054312846E+04  0.15054312846E+04  0.00000000000E+00 0. -1.
         23    2    1    2    0    0 -0.13748443123E+04 -0.56017828507E+03 -0.76305123440E+03  0.16716706597E+04  0.90769014942E+02 0.  0.
         11    1    3    3    0    0 -0.77670340085E+02 -0.23829308315E+02 -0.64717394388E+02  0.10386943150E+03  0.00000000000E+00 0.  1.
        -11    1    3    3    0    0 -0.12971739722E+04 -0.53634897676E+03 -0.69833384002E+03  0.15678012282E+04  0.00000000000E+00 0. -1.
         22    1    1    2    0    0  0.13748443123E+04  0.56017828507E+03  0.16246540104E+04  0.22007946855E+04  0.00000000000E+00 0.  1.
<mgrwt>
<rscale>  0 0.37753978E+04</rscale>
<asrwt>0</asrwt>
<pdfrwt beam="1">  1        2 0.36415909E+00 0.37753978E+04</pdfrwt>
<pdfrwt beam="2">  1       -2 0.23160481E+00 0.37753978E+04</pdfrwt>
<totfact> 0.27870176E-01</totfact>
</mgrwt>
</event>
<event>
 6    1  0.1762360E-005  0.2173728E+04  0.7818608E-02  0.8529443E-01
          2   -1    0    0  501    0  0.00000000000E+00  0.00000000000E+00  0.18115828866E+04  0.18115828866E+04  0.00000000000E+00 0. -1.
         -2   -1    0    0    0  501 -0.00000000000E+00 -0.00000000000E+00 -0.65206703487E+03  0.65206703487E+03  0.00000000000E+00 0.  1.
         23    2    1    2    0    0 -0.31717953920E+03  0.38672493674E+03 -0.51075128348E+03  0.72010429839E+03  0.86742666467E+02 0.  0.
         11    1    3    3    0    0 -0.76645020418E+02  0.92057247714E+02 -0.17899087809E+03  0.21537578892E+03  0.00000000000E+00 0.  1.
        -11    1    3    3    0    0 -0.24053451879E+03  0.29466768903E+03 -0.33176040539E+03  0.50472850947E+03  0.00000000000E+00 0. -1.
         22    1    1    2    0    0  0.31717953920E+03 -0.38672493674E+03  0.16702671352E+04  0.17435456231E+04  0.00000000000E+00 0. -1.
<mgrwt>
<rscale>  0 0.21737281E+04</rscale>
<asrwt>0</asrwt>
<pdfrwt beam="1">  1        2 0.27870506E+00 0.21737281E+04</pdfrwt>
<pdfrwt beam="2">  1       -2 0.10031801E+00 0.21737281E+04</pdfrwt>
<totfact> 0.63845840E+00</totfact>
</mgrwt>
</event>
<event>
 6    1  0.1762360E-005  0.1393787E+04  0.7818608E-02  0.8958329E-01
          2   -1    0    0  501    0  0.00000000000E+00  0.00000000000E+00  0.99016817575E+03  0.99016817575E+03  0.00000000000E+00 0. -1.
         -2   -1    0    0    0  501 -0.00000000000E+00 -0.00000000000E+00 -0.49048254391E+03  0.49048254391E+03  0.00000000000E+00 0.  1.
         23    2    1    2    0    0  0.12544716831E+03 -0.59626450233E+03 -0.10175517666E+03  0.62449688132E+03  0.91508961425E+02 0.  0.
         13    1    3    3    0    0  0.73240541109E+02 -0.49272830368E+03 -0.10231980085E+03  0.50854173846E+03  0.00000000000E+00 0.  1.
        -13    1    3    3    0    0  0.52206627202E+02 -0.10353619865E+03  0.56462418804E+00  0.11595514286E+03  0.00000000000E+00 0. -1.
         22    1    1    2    0    0 -0.12544716831E+03  0.59626450233E+03  0.60144080850E+03  0.85615383834E+03  0.00000000000E+00 0. -1.
<mgrwt>
<rscale>  0 0.13937865E+04</rscale>
<asrwt>0</asrwt>
<pdfrwt beam="1">  1        2 0.15233357E+00 0.13937865E+04</pdfrwt>
<pdfrwt beam="2">  1       -2 0.75458853E-01 0.13937865E+04</pdfrwt>
<totfact> 0.39216739E+01</totfact>
</mgrwt>
</event>
<event>
 6    1  0.1762360E-005  0.6286961E+03  0.7818608E-02  0.9847597E-01
         -1   -1    0    0    0  501 -0.00000000000E+00  0.00000000000E+00  0.15814757928E+03  0.15814757928E+03  0.00000000000E+00 0.  1.
          1   -1    0    0  501    0  0.00000000000E+00 -0.00000000000E+00 -0.62482592354E+03  0.62482592354E+03  0.00000000000E+00 0. -1.
         23    2    1    2    0    0 -0.12743275803E+03  0.27832468539E+03 -0.22268947106E+03  0.39152196232E+03  0.99975537731E+02 0.  0.
         11    1    3    3    0    0 -0.39886885262E+02  0.17501686871E+03 -0.16676396239E+03  0.24501446304E+03  0.00000000000E+00 0. -1.
        -11    1    3    3    0    0 -0.87545872766E+02  0.10330781668E+03 -0.55925508677E+02  0.14650749929E+03  0.00000000000E+00 0.  1.
         22    1    1    2    0    0  0.12743275803E+03 -0.27832468539E+03 -0.24398887320E+03  0.39145154050E+03  0.00000000000E+00 0. -1.
<mgrwt>
<rscale>  0 0.62869613E+03</rscale>
<asrwt>0</asrwt>
<pdfrwt beam="1">  1        1 0.96127065E-01 0.62869613E+03</pdfrwt>
<pdfrwt beam="2">  1       -1 0.24330397E-01 0.62869613E+03</pdfrwt>
<totfact> 0.47870683E+02</totfact>
</mgrwt>
</event>
<event>
 6    1  0.1762360E-005  0.2107543E+04  0.7818608E-02  0.8557928E-01
          1   -1    0    0  501    0  0.00000000000E+00  0.00000000000E+00  0.17509542177E+04  0.17509542177E+04  0.00000000000E+00 0. -1.
         -1   -1    0    0    0  501 -0.00000000000E+00 -0.00000000000E+00 -0.63418816291E+03  0.63418816291E+03  0.00000000000E+00 0.  1.
         23    2    1    2    0    0  0.95035733723E+03  0.44897055787E+03  0.60326038556E+03  0.12153382506E+04  0.91489564272E+02 0.  0.
         11    1    3    3    0    0  0.41776481646E+03  0.24512585404E+03  0.29391197263E+03  0.56656718388E+03  0.00000000000E+00 0. -1.
        -11    1    3    3    0    0  0.53259252077E+03  0.20384470383E+03  0.30934841293E+03  0.64877106674E+03  0.00000000000E+00 0.  1.
         22    1    1    2    0    0 -0.95035733723E+03 -0.44897055787E+03  0.51350566928E+03  0.11698041300E+04  0.00000000000E+00 0. -1.
<mgrwt>
<rscale>  0 0.21075431E+04</rscale>
<asrwt>0</asrwt>
<pdfrwt beam="1">  1        1 0.26937757E+00 0.21075431E+04</pdfrwt>
<pdfrwt beam="2">  1       -1 0.97567411E-01 0.21075431E+04</pdfrwt>
<totfact> 0.40759885E+00</totfact>
</mgrwt>
</event>
<event>
 6    1  0.1762360E-005  0.1142481E+04  0.7818608E-02  0.9164748E-01
         -1   -1    0    0    0  501 -0.00000000000E+00  0.00000000000E+00  0.14652015304E+03  0.14652015304E+03  0.00000000000E+00 0. -1.
          1   -1    0    0  501    0  0.00000000000E+00 -0.00000000000E+00 -0.22271058463E+04  0.22271058463E+04  0.00000000000E+00 0.  1.
         23    2    1    2    0    0 -0.11421495864E+03 -0.71008106937E+02 -0.21926196858E+04  0.21985865081E+04  0.90079624404E+02 0.  0.
         11    1    3    3    0    0 -0.10768000128E+03 -0.36823475450E+02 -0.12071407806E+04  0.12124932227E+04  0.00000000000E+00 0. -1.
        -11    1    3    3    0    0 -0.65349573591E+01 -0.34184631487E+02 -0.98547890522E+03  0.98609328531E+03  0.00000000000E+00 0.  1.
         22    1    1    2    0    0  0.11421495864E+03  0.71008106937E+02  0.11203399254E+03  0.17503949130E+03  0.00000000000E+00 0. -1.
<mgrwt>
<rscale>  0 0.11424813E+04</rscale>
<asrwt>0</asrwt>
<pdfrwt beam="1">  1        1 0.34263163E+00 0.11424813E+04</pdfrwt>
<pdfrwt beam="2">  1       -1 0.22541564E-01 0.11424813E+04</pdfrwt>
<totfact> 0.34833694E+01</totfact>
</mgrwt>
</event>
<event>
 6    1  0.1762360E-005  0.1313926E+04  0.7818608E-02  0.9018594E-01
         -2   -1    0    0    0  501 -0.00000000000E+00  0.00000000000E+00  0.76024167442E+03  0.76024167442E+03  0.00000000000E+00 0.  1.
          2   -1    0    0  501    0  0.00000000000E+00 -0.00000000000E+00 -0.56771449202E+03  0.56771449202E+03  0.00000000000E+00 0. -1.
         23    2    1    2    0    0 -0.13375564133E+03  0.29748144158E+03 -0.47552679977E+03  0.58453037809E+03  0.95730068109E+02 0.  0.
         11    1    3    3    0    0 -0.17498377775E+02  0.15098374538E+03 -0.23458460388E+03  0.27952141416E+03  0.00000000000E+00 0. -1.
        -11    1    3    3    0    0 -0.11625726355E+03  0.14649769620E+03 -0.24094219589E+03  0.30500896394E+03  0.00000000000E+00 0.  1.
         22    1    1    2    0    0  0.13375564133E+03 -0.29748144158E+03  0.66805398217E+03  0.74342578834E+03  0.00000000000E+00 0.  1.
<mgrwt>
<rscale>  0 0.13139257E+04</rscale>
<asrwt>0</asrwt>
<pdfrwt beam="1">  1        2 0.87340691E-01 0.13139257E+04</pdfrwt>
<pdfrwt beam="2">  1       -2 0.11696026E+00 0.13139257E+04</pdfrwt>
<totfact> 0.29363453E+01</totfact>
</mgrwt>
</event>
<event>
 6    1  0.1762360E-005  0.2710544E+04  0.7818608E-02  0.8331592E-01
         -1   -1    0    0    0  501 -0.00000000000E+00  0.00000000000E+00  0.22114254707E+04  0.22114254707E+04  0.00000000000E+00 0.  1.
          1   -1    0    0  501    0  0.00000000000E+00 -0.00000000000E+00 -0.83057860308E+03  0.83057860308E+03  0.00000000000E+00 0. -1.
         23    2    1    2    0    0  0.65825105821E+03  0.96288939418E+03  0.14624186849E+04  0.18727716749E+04  0.90304460458E+02 0.  0.
         13    1    3    3    0    0  0.19833642559E+03  0.23637537569E+03  0.34580822713E+03  0.46345872082E+03  0.00000000000E+00 0. -1.
        -13    1    3    3    0    0  0.45991463262E+03  0.72651401849E+03  0.11166104577E+04  0.14093129541E+04  0.00000000000E+00 0.  1.
         22    1    1    2    0    0 -0.65825105821E+03 -0.96288939418E+03 -0.81571817260E+02  0.11692323988E+04  0.00000000000E+00 0.  1.
<mgrwt>
<rscale>  0 0.27105444E+04</rscale>
<asrwt>0</asrwt>
<pdfrwt beam="1">  1        1 0.12778132E+00 0.27105444E+04</pdfrwt>
<pdfrwt beam="2">  1       -1 0.34021930E+00 0.27105444E+04</pdfrwt>
<totfact> 0.32728272E-01</totfact>
</mgrwt>
</event>
<event>
 6    1  0.1762360E-005  0.1698270E+04  0.7818608E-02  0.8762351E-01
         -2   -1    0    0    0  501 -0.00000000000E+00  0.00000000000E+00  0.53737261486E+03  0.53737261486E+03  0.00000000000E+00 0.  1.
          2   -1    0    0  501    0  0.00000000000E+00 -0.00000000000E+00 -0.13417703758E+04  0.13417703758E+04  0.00000000000E+00 0. -1.
         23    2    1    2    0    0 -0.33076242533E+03 -0.76378529011E+03 -0.23103598301E+03  0.86844250099E+03  0.89682778022E+02 0.  0.
         13    1    3    3    0    0 -0.17860954432E+03 -0.50770539574E+03 -0.12762686567E+03  0.55313177004E+03  0.00000000000E+00 0. -1.
        -13    1    3    3    0    0 -0.15215288102E+03 -0.25607989437E+03 -0.10340911734E+03  0.31531073095E+03  0.00000000000E+00 0.  1.
         22    1    1    2    0    0  0.33076242533E+03  0.76378529011E+03 -0.57336177790E+03  0.10107004896E+04  0.00000000000E+00 0. -1.
<mgrwt>
<rscale>  0 0.16982705E+04</rscale>
<asrwt>0</asrwt>
<pdfrwt beam="1">  1        2 0.20642621E+00 0.16982705E+04</pdfrwt>
<pdfrwt beam="2">  1       -2 0.82672711E-01 0.16982705E+04</pdfrwt>
<totfact> 0.19094216E+01</totfact>
</mgrwt>
</event>
<event>
 6    1  0.1762360E-005  0.3679158E+04  0.7818608E-02  0.8072596E-01
          1   -1    0    0  501    0  0.00000000000E+00  0.00000000000E+00  0.41489229380E+04  0.41489229380E+04  0.00000000000E+00 0. -1.
         -1   -1    0    0    0  501 -0.00000000000E+00 -0.00000000000E+00 -0.81564550415E+03  0.81564550415E+03  0.00000000000E+00 0.  1.
         23    2    1    2    0    0 -0.11940086169E+04  0.86679901021E+03  0.31475788242E+04  0.34774635114E+04  0.92211267154E+02 0.  0.
         11    1    3    3    0    0 -0.15253895555E+03  0.15076643947E+03  0.45419565822E+03  0.50228711728E+03  0.00000000000E+00 0.  1.
        -11    1    3    3    0    0 -0.10414696613E+04  0.71603257073E+03  0.26933831659E+04  0.29751763942E+04  0.00000000000E+00 0. -1.
         22    1    1    2    0    0  0.11940086169E+04 -0.86679901021E+03  0.18569860967E+03  0.14871049307E+04  0.00000000000E+00 0.  1.
<mgrwt>
<rscale>  0 0.36791577E+04</rscale>
<asrwt>0</asrwt>
<pdfrwt beam="1">  1        1 0.63829583E+00 0.36791577E+04</pdfrwt>
<pdfrwt beam="2">  1       -1 0.12548393E+00 0.36791577E+04</pdfrwt>
<totfact> 0.31304304E-02</totfact>
</mgrwt>
</event>
<event>
 6    1  0.1762360E-005  0.7522580E+03  0.7818608E-02  0.9631815E-01
          2   -1    0    0  501    0  0.00000000000E+00  0.00000000000E+00  0.49139449028E+03  0.49139449028E+03  0.00000000000E+00 0. -1.
         -2   -1    0    0    0  501 -0.00000000000E+00 -0.00000000000E+00 -0.28790111946E+03  0.28790111946E+03  0.00000000000E+00 0.  1.
         23    2    1    2    0    0  0.21664244998E+03  0.18688322779E+02  0.41407300296E+03  0.47659611186E+03  0.91674410351E+02 0.  0.
         11    1    3    3    0    0  0.13125157237E+03  0.14962657862E+02  0.15430463337E+03  0.20312748770E+03  0.00000000000E+00 0.  1.
        -11    1    3    3    0    0  0.85390877611E+02  0.37256649172E+01  0.25976836959E+03  0.27346862416E+03  0.00000000000E+00 0. -1.
         22    1    1    2    0    0 -0.21664244998E+03 -0.18688322779E+02 -0.21057963214E+03  0.30269949787E+03  0.00000000000E+00 0.  1.
<mgrwt>
<rscale>  0 0.75225800E+03</rscale>
<asrwt>0</asrwt>
<pdfrwt beam="1">  1        2 0.75599152E-01 0.75225800E+03</pdfrwt>
<pdfrwt beam="2">  1       -2 0.44292480E-01 0.75225800E+03</pdfrwt>
<totfact> 0.30610134E+02</totfact>
</mgrwt>
</event>
<event>
 6    1  0.1762360E-005  0.2464773E+04  0.7818608E-02  0.8415644E-01
         -1   -1    0    0    0  501 -0.00000000000E+00  0.00000000000E+00  0.93076199840E+03  0.93076199840E+03  0.00000000000E+00 0. -1.
          1   -1    0    0  501    0  0.00000000000E+00 -0.00000000000E+00 -0.16317558772E+04  0.16317558772E+04  0.00000000000E+00 0.  1.
         23    2    1    2    0    0  0.10123586084E+04  0.47997988808E+03 -0.88075728253E+03  0.14278084299E+04  0.87480722634E+02 0.  0.
         11    1    3    3    0    0  0.65085592023E+03  0.30052052960E+03 -0.51022528705E+03  0.87991809912E+03  0.00000000000E+00 0.  1.
        -11    1    3    3    0    0  0.36150268813E+03  0.17945935848E+03 -0.37053199548E+03  0.54789033076E+03  0.00000000000E+00 0. -1.
         22    1    1    2    0    0 -0.10123586084E+04 -0.47997988808E+03  0.17976340373E+03  0.11347094457E+04  0.00000000000E+00 0.  1.
<mgrwt>
<rscale>  0 0.24647729E+04</rscale>
<asrwt>0</asrwt>
<pdfrwt beam="1">  1        1 0.25103937E+00 0.24647729E+04</pdfrwt>
<pdfrwt beam="2">  1       -1 0.14319415E+00 0.24647729E+04</pdfrwt>
<totfact> 0.18679658E+00</totfact>
</mgrwt>
</event>
<event>
 6    1  0.1762360E-005  0.7350225E+03  0.7818608E-02  0.9659145E-01
          1   -1    0    0  501    0  0.00000000000E+00  0.00000000000E+00  0.76380056673E+03  0.76380056673E+03  0.00000000000E+00 0. -1.
         -1   -1    0    0    0  501 -0.00000000000E+00 -0.00000000000E+00 -0.17683217664E+03  0.17683217664E+03  0.00000000000E+00 0.  1.
         23    2    1    2    0    0  0.10143441275E+03 -0.42848485519E+02  0.73913199619E+03  0.75280650499E+03  0.90975784472E+02 0.  0.
         11    1    3    3    0    0  0.10660940668E+03 -0.19772293816E+02  0.45706595461E+03  0.46975078080E+03  0.00000000000E+00 0.  1.
        -11    1    3    3    0    0 -0.51749939284E+01 -0.23076191703E+02  0.28206604158E+03  0.28305572420E+03  0.00000000000E+00 0. -1.
         22    1    1    2    0    0 -0.10143441275E+03  0.42848485519E+02 -0.15216360611E+03  0.18782623838E+03  0.00000000000E+00 0.  1.
<mgrwt>
<rscale>  0 0.73502249E+03</rscale>
<asrwt>0</asrwt>
<pdfrwt beam="1">  1        1 0.11750778E+00 0.73502249E+03</pdfrwt>
<pdfrwt beam="2">  1       -1 0.27204951E-01 0.73502249E+03</pdfrwt>
<totfact> 0.29124064E+02</totfact>
</mgrwt>
</event>
<event>
 6    1  0.1762360E-005  0.1329064E+04  0.7818608E-02  0.9006829E-01
         -1   -1    0    0    0  501 -0.00000000000E+00  0.00000000000E+00  0.79754033921E+03  0.79754033921E+03  0.00000000000E+00 0.  1.
          1   -1    0    0  501    0  0.00000000000E+00 -0.00000000000E+00 -0.55370593610E+03  0.55370593610E+03  0.00000000000E+00 0. -1.
         23    2    1    2    0    0 -0.32242889927E+03 -0.43965988113E+03 -0.25838151433E+03  0.60997572154E+03  0.89711580955E+02 0.  0.
         11    1    3    3    0    0 -0.21394847316E+03 -0.30577836449E+03 -0.22076575834E+03  0.43360336416E+03  0.00000000000E+00 0. -1.
        -11    1    3    3    0    0 -0.10848042611E+03 -0.13388151664E+03 -0.37615755987E+02  0.17637235737E+03  0.00000000000E+00 0.  1.
         22    1    1    2    0    0  0.32242889927E+03  0.43965988113E+03  0.50221591744E+03  0.74127055377E+03  0.00000000000E+00 0. -1.
<mgrwt>
<rscale>  0 0.13290641E+04</rscale>
<asrwt>0</asrwt>
<pdfrwt beam="1">  1        1 0.85185529E-01 0.13290641E+04</pdfrwt>
<pdfrwt beam="2">  1       -1 0.12269851E+00 0.13290641E+04</pdfrwt>
<totfact> 0.22084875E+01</totfact>
</mgrwt>
</event>
<event>
 6    1  0.1762360E-005  0.2795372E+04  0.7818608E-02  0.8304707E-01
         -1   -1    0    0    0  501 -0.00000000000E+00  0.00000000000E+00  0.65827257978E+03  0.65827257978E+03  0.00000000000E+00 0.  1.
          1   -1    0    0  501    0  0.00000000000E+00 -0.00000000000E+00 -0.29676547576E+04  0.29676547576E+04  0.00000000000E+00 0. -1.
         23    2    1    2    0    0  0.48105831927E+03 -0.43616345419E+03  0.44736321366E+03  0.79373722747E+03  0.90715357158E+02 0.  0.
         11    1    3    3    0    0  0.22691016292E+03 -0.16969659847E+03  0.23871561377E+03  0.37050006994E+03  0.00000000000E+00 0.  1.
        -11    1    3    3    0    0  0.25414815635E+03 -0.26646685572E+03  0.20864759989E+03  0.42323715753E+03  0.00000000000E+00 0. -1.
         22    1    1    2    0    0 -0.48105831927E+03  0.43616345419E+03 -0.27567453915E+04  0.28321901100E+04  0.00000000000E+00 0. -1.
<mgrwt>
<rscale>  0 0.27953717E+04</rscale>
<asrwt>0</asrwt>
<pdfrwt beam="1">  1        1 0.45656227E+00 0.27953717E+04</pdfrwt>
<pdfrwt beam="2">  1       -1 0.10127270E+00 0.27953717E+04</pdfrwt>
<totfact> 0.50571497E-01</totfact>
</mgrwt>
</event>
<event>
 6    1  0.1762360E-005  0.2662637E+04  0.7818608E-02  0.8347231E-01
         -1   -1    0    0    0  501 -0.00000000000E+00  0.00000000000E+00  0.87928904409E+03  0.87928904409E+03  0.00000000000E+00 0.  1.
          1   -1    0    0  501    0  0.00000000000E+00 -0.00000000000E+00 -0.20157301085E+04  0.20157301085E+04  0.00000000000E+00 0. -1.
         23    2    1    2    0    0  0.49310962132E+03  0.12275468910E+04 -0.71615379615E+03  0.15069738161E+04  0.89807317497E+02 0.  0.
         11    1    3    3    0    0  0.24544125362E+03  0.72421092476E+03 -0.39750177230E+03  0.86181815454E+03  0.00000000000E+00 0.  1.
        -11    1    3    3    0    0  0.24766836770E+03  0.50333596627E+03 -0.31865202384E+03  0.64515566153E+03  0.00000000000E+00 0. -1.
         22    1    1    2    0    0 -0.49310962132E+03 -0.12275468910E+04 -0.42028726824E+03  0.13880453365E+04  0.00000000000E+00 0.  1.
<mgrwt>
<rscale>  0 0.26626373E+04</rscale>
<asrwt>0</asrwt>
<pdfrwt beam="1">  1        1 0.31011232E+00 0.26626373E+04</pdfrwt>
<pdfrwt beam="2">  1       -1 0.13527524E+00 0.26626373E+04</pdfrwt>
<totfact> 0.11669468E+00</totfact>
</mgrwt>
</event>
<event>
 6    1  0.1762360E-005  0.1787920E+04  0.7818608E-02  0.8712750E-01
         -1   -1    0    0    0  501 -0.00000000000E+00  0.00000000000E+00  0.10495811631E+04  0.10495811631E+04  0.00000000000E+00 0.  1.
          1   -1    0    0  501    0  0.00000000000E+00 -0.00000000000E+00 -0.76141271894E+03  0.76141271894E+03  0.00000000000E+00 0. -1.
         23    2    1    2    0    0  0.41314786772E+03  0.62737100451E+03  0.63076904410E+03  0.98536641821E+03  0.93764882744E+02 0.  0.
         13    1    3    3    0    0  0.21875799573E+03  0.41278428179E+03  0.37569016796E+03  0.59949063903E+03  0.00000000000E+00 0.  1.
        -13    1    3    3    0    0  0.19438987199E+03  0.21458672272E+03  0.25507887614E+03  0.38587577918E+03  0.00000000000E+00 0. -1.
         22    1    1    2    0    0 -0.41314786772E+03 -0.62737100451E+03 -0.34260059997E+03  0.82562746381E+03  0.00000000000E+00 0. -1.
<mgrwt>
<rscale>  0 0.17879200E+04</rscale>
<asrwt>0</asrwt>
<pdfrwt beam="1">  1        1 0.11714042E+00 0.17879200E+04</pdfrwt>
<pdfrwt beam="2">  1       -1 0.16147402E+00 0.17879200E+04</pdfrwt>
<totfact> 0.64354100E+00</totfact>
</mgrwt>
</event>
<event>
 6    1  0.1762360E-005  0.2252666E+04  0.7818608E-02  0.8496822E-01
         -1   -1    0    0    0  501 -0.00000000000E+00  0.00000000000E+00  0.13244708328E+04  0.13244708328E+04  0.00000000000E+00 0.  1.
          1   -1    0    0  501    0  0.00000000000E+00 -0.00000000000E+00 -0.95783602365E+03  0.95783602365E+03  0.00000000000E+00 0. -1.
         23    2    1    2    0    0  0.12717445488E+03  0.64821301434E+03 -0.73836162815E+03  0.99491780089E+03  0.91269286530E+02 0.  0.
         13    1    3    3    0    0  0.85310033357E+02  0.21214546216E+03 -0.26213226210E+03  0.34784597416E+03  0.00000000000E+00 0.  1.
        -13    1    3    3    0    0  0.41864421522E+02  0.43606755218E+03 -0.47622936605E+03  0.64707182673E+03  0.00000000000E+00 0. -1.
         22    1    1    2    0    0 -0.12717445488E+03 -0.64821301434E+03  0.11049964373E+04  0.12873890556E+04  0.00000000000E+00 0.  1.
<mgrwt>
<rscale>  0 0.22526659E+04</rscale>
<asrwt>0</asrwt>
<pdfrwt beam="1">  1        1 0.14735939E+00 0.22526659E+04</pdfrwt>
<pdfrwt beam="2">  1       -1 0.20376474E+00 0.22526659E+04</pdfrwt>
<totfact> 0.21022863E+00</totfact>
</mgrwt>
</event>
<event>
 6    1  0.1762360E-005  0.2733502E+04  0.7818608E-02  0.8324216E-01
          2   -1    0    0  501    0  0.00000000000E+00  0.00000000000E+00  0.17747665723E+04  0.17747665723E+04  0.00000000000E+00 0. -1.
         -2   -1    0    0    0  501 -0.00000000000E+00 -0.00000000000E+00 -0.10525377477E+04  0.10525377477E+04  0.00000000000E+00 0.  1.
         23    2    1    2    0    0 -0.54411742923E+03  0.12489905240E+04  0.26854597214E+03  0.13913832789E+04  0.88257486727E+02 0.  0.
         13    1    3    3    0    0 -0.39834696254E+03  0.83770136582E+03  0.21057707180E+03  0.95119219090E+03  0.00000000000E+00 0.  1.
        -13    1    3    3    0    0 -0.14577046669E+03  0.41128915814E+03  0.57968900331E+02  0.44019108801E+03  0.00000000000E+00 0. -1.
         22    1    1    2    0    0  0.54411742923E+03 -0.12489905240E+04  0.45368285247E+03  0.14359210411E+04  0.00000000000E+00 0. -1.
<mgrwt>
<rscale>  0 0.27335024E+04</rscale>
<asrwt>0</asrwt>
<pdfrwt beam="1">  1        2 0.27304101E+00 0.27335024E+04</pdfrwt>
<pdfrwt beam="2">  1       -2 0.16192888E+00 0.27335024E+04</pdfrwt>
<totfact> 0.19010086E+00</totfact>
</mgrwt>
</event>
<event>
 6    1  0.1762360E-005  0.2635130E+04  0.7818608E-02  0.8356365E-01
         -2   -1    0    0    0  501 -0.00000000000E+00  0.00000000000E+00  0.14792890044E+04  0.14792890044E+04  0.00000000000E+00 0.  1.
          2   -1    0    0  501    0  0.00000000000E+00 -0.00000000000E+00 -0.11735215414E+04  0.11735215414E+04  0.00000000000E+00 0. -1.
         23    2    1    2    0    0 -0.72173651063E+03 -0.60106740975E+03 -0.77477371447E+03  0.12211140493E+04  0.93056923487E+02 0.  0.
         13    1    3    3    0    0 -0.14548890974E+03 -0.75474612449E+02 -0.13327512342E+03  0.21124795503E+03  0.00000000000E+00 0. -1.
        -13    1    3    3    0    0 -0.57624760089E+03 -0.52559279730E+03 -0.64149859105E+03  0.10098660943E+04  0.00000000000E+00 0.  1.
         22    1    1    2    0    0  0.72173651063E+03  0.60106740975E+03  0.10805411774E+04  0.14316964965E+04  0.00000000000E+00 0.  1.
<mgrwt>
<rscale>  0 0.26351300E+04</rscale>
<asrwt>0</asrwt>
<pdfrwt beam="1">  1        2 0.18054177E+00 0.26351300E+04</pdfrwt>
<pdfrwt beam="2">  1       -2 0.22758293E+00 0.26351300E+04</pdfrwt>
<totfact> 0.15341492E+00</totfact>
</mgrwt>
</event>
<event>
 6    1  0.1762360E-005  0.6884194E+04  0.7818608E-02  0.7589498E-01
          2   -1    0    0  501    0  0.00000000000E+00  0.00000000000E+00  0.35583052573E+04  0.35583052573E+04  0.00000000000E+00 0. -1.
         -2   -1    0    0    0  501 -0.00000000000E+00 -0.00000000000E+00 -0.33296838554E+04  0.33296838554E+04  0.00000000000E+00 0.  1.
         23    2    1    2    0    0  0.68758977333E+03 -0.22624447554E+04 -0.23875758266E+04  0.33615285776E+04  0.88994849413E+02 0.  0.
         13    1    3    3    0    0  0.51555908350E+03 -0.16654079447E+04 -0.17053205881E+04  0.24387503150E+04  0.00000000000E+00 0. -1.
        -13    1    3    3    0    0  0.17203068983E+03 -0.59703681065E+03 -0.68225523849E+03  0.92277826262E+03  0.00000000000E+00 0.  1.
         22    1    1    2    0    0 -0.68758977333E+03  0.22624447554E+04  0.26161972284E+04  0.35264605351E+04  0.00000000000E+00 0. -1.
<mgrwt>
<rscale>  0 0.68841939E+04</rscale>
<asrwt>0</asrwt>
<pdfrwt beam="1">  1        2 0.54743158E+00 0.68841939E+04</pdfrwt>
<pdfrwt beam="2">  1       -2 0.51225906E+00 0.68841939E+04</pdfrwt>
<totfact> 0.65523965E-04</totfact>
</mgrwt>
</event>
<event>
 6    1  0.1762360E-005  0.2231793E+04  0.7818608E-02  0.8505311E-01
          1   -1    0    0  501    0  0.00000000000E+00  0.00000000000E+00  0.18476628461E+04  0.18476628461E+04  0.00000000000E+00 0. -1.
         -1   -1    0    0    0  501 -0.00000000000E+00 -0.00000000000E+00 -0.67394571102E+03  0.67394571102E+03  0.00000000000E+00 0.  1.
         23    2    1    2    0    0 -0.52148855775E+03  0.88327460787E+03  0.10790053429E+04  0.14915140603E+04  0.90759646603E+02 0.  0.
         11    1    3    3    0    0 -0.28784651871E+03  0.39925250769E+03  0.50657310576E+03  0.70631048039E+03  0.00000000000E+00 0. -1.
        -11    1    3    3    0    0 -0.23364203905E+03  0.48402210019E+03  0.57243223709E+03  0.78520357993E+03  0.00000000000E+00 0.  1.
         22    1    1    2    0    0  0.52148855775E+03 -0.88327460787E+03  0.94711792256E+02  0.10300944968E+04  0.00000000000E+00 0.  1.
<mgrwt>
<rscale>  0 0.22317925E+04</rscale>
<asrwt>0</asrwt>
<pdfrwt beam="1">  1        1 0.28425582E+00 0.22317925E+04</pdfrwt>
<pdfrwt beam="2">  1       -1 0.10368396E+00 0.22317925E+04</pdfrwt>
<totfact> 0.30136601E+00</totfact>
</mgrwt>
</event>
<event>
 6    1  0.1762360E-005  0.4562828E+04  0.7818608E-02  0.7899729E-01
          1   -1    0    0  501    0  0.00000000000E+00  0.00000000000E+00  0.14130137328E+04  0.14130137328E+04  0.00000000000E+00 0. -1.
         -1   -1    0    0    0  501 -0.00000000000E+00 -0.00000000000E+00 -0.36835092163E+04  0.36835092163E+04  0.00000000000E+00 0.  1.
         23    2    1    2    0    0 -0.17302714471E+04  0.78225095422E+03 -0.25463377991E+04  0.31777095608E+04  0.90807652263E+02 0.  0.
         13    1    3    3    0    0 -0.22006482935E+03  0.12748714909E+03 -0.31230015566E+03  0.40275661326E+03  0.00000000000E+00 0. -1.
        -13    1    3    3    0    0 -0.15102066178E+04  0.65476380512E+03 -0.22340376434E+04  0.27749529475E+04  0.00000000000E+00 0.  1.
         22    1    1    2    0    0  0.17302714471E+04 -0.78225095422E+03  0.27584231548E+03  0.19188133883E+04  0.00000000000E+00 0. -1.
<mgrwt>
<rscale>  0 0.45628277E+04</rscale>
<asrwt>0</asrwt>
<pdfrwt beam="1">  1        1 0.21738673E+00 0.45628277E+04</pdfrwt>
<pdfrwt beam="2">  1       -1 0.56669373E+00 0.45628277E+04</pdfrwt>
<totfact> 0.34945834E-03</totfact>
</mgrwt>
</event>
<event>
 6    1  0.1762360E-005  0.1489916E+04  0.7818608E-02  0.8891186E-01
         -1   -1    0    0    0  501 -0.00000000000E+00  0.00000000000E+00  0.76216095501E+03  0.76216095501E+03  0.00000000000E+00 0.  1.
          1   -1    0    0  501    0  0.00000000000E+00 -0.00000000000E+00 -0.72814377580E+03  0.72814377580E+03  0.00000000000E+00 0. -1.
         23    2    1    2    0    0  0.40071821950E+03  0.28409211591E+03  0.57348137586E+03  0.76071235063E+03  0.92298267482E+02 0.  0.
         11    1    3    3    0    0  0.26086064095E+03  0.18381942879E+03  0.30252576364E+03  0.43972684028E+03  0.00000000000E+00 0.  1.
        -11    1    3    3    0    0  0.13985757855E+03  0.10027268712E+03  0.27095561222E+03  0.32098551035E+03  0.00000000000E+00 0. -1.
         22    1    1    2    0    0 -0.40071821950E+03 -0.28409211591E+03 -0.53946419665E+03  0.72959238019E+03  0.00000000000E+00 0. -1.
<mgrwt>
<rscale>  0 0.14899164E+04</rscale>
<asrwt>0</asrwt>
<pdfrwt beam="1">  1        1 0.11202212E+00 0.14899164E+04</pdfrwt>
<pdfrwt beam="2">  1       -1 0.11725553E+00 0.14899164E+04</pdfrwt>
<totfact> 0.16267719E+01</totfact>
</mgrwt>
</event>
<event>
 6    1  0.2445643E-005  0.3184416E+04  0.7818608E-02  0.8192945E-01
         -2   -1    0    0    0  501 -0.00000000000E+00  0.00000000000E+00  0.16661648047E+04  0.16661648047E+04  0.00000000000E+00 0.  1.
          2   -1    0    0  501    0  0.00000000000E+00 -0.00000000000E+00 -0.15215342751E+04  0.15215342751E+04  0.00000000000E+00 0. -1.
         23    2    1    2    0    0 -0.15751060176E+04  0.18276509564E+03 -0.56825885503E+02  0.15892790055E+04  0.90645073562E+02 0.  0.
         11    1    3    3    0    0 -0.88671821756E+03  0.13721063718E+03 -0.28316526068E+01  0.89727586313E+03  0.00000000000E+00 0.  1.
        -11    1    3    3    0    0 -0.68838780000E+03  0.45554458463E+02 -0.53994232897E+02  0.69200314238E+03  0.00000000000E+00 0. -1.
         22    1    1    2    0    0  0.15751060176E+04 -0.18276509564E+03  0.20145641503E+03  0.15984200743E+04  0.00000000000E+00 0.  1.
<mgrwt>
<rscale>  0 0.31844163E+04</rscale>
<asrwt>0</asrwt>
<pdfrwt beam="1">  1        2 0.23408220E+00 0.31844163E+04</pdfrwt>
<pdfrwt beam="2">  1       -2 0.25633305E+00 0.31844163E+04</pdfrwt>
<totfact> 0.61148567E-01</totfact>
</mgrwt>
</event>
<event>
 6    1  0.1762360E-005  0.3140563E+04  0.7818608E-02  0.8204693E-01
          2   -1    0    0  501    0  0.00000000000E+00  0.00000000000E+00  0.31456478690E+04  0.31456478690E+04  0.00000000000E+00 0. -1.
         -2   -1    0    0    0  501 -0.00000000000E+00 -0.00000000000E+00 -0.78387136274E+03  0.78387136274E+03  0.00000000000E+00 0.  1.
         23    2    1    2    0    0  0.51355826140E+03 -0.14771957717E+04  0.10253480284E+04  0.18723633037E+04  0.92500410164E+02 0.  0.
         11    1    3    3    0    0  0.35772496116E+03 -0.96050825389E+03  0.71644388135E+03  0.12505339215E+04  0.00000000000E+00 0. -1.
        -11    1    3    3    0    0  0.15583330023E+03 -0.51668751781E+03  0.30890414704E+03  0.62182938221E+03  0.00000000000E+00 0.  1.
         22    1    1    2    0    0 -0.51355826140E+03  0.14771957717E+04  0.13364284778E+04  0.20571559280E+04  0.00000000000E+00 0. -1.
<mgrwt>
<rscale>  0 0.31405625E+04</rscale>
<asrwt>0</asrwt>
<pdfrwt beam="1">  1        2 0.48394582E+00 0.31405625E+04</pdfrwt>
<pdfrwt beam="2">  1       -2 0.12059560E+00 0.31405625E+04</pdfrwt>
<totfact> 0.62374584E-01</totfact>
</mgrwt>
</event>
<event>
 6    1  0.1762360E-005  0.2810925E+04  0.7818608E-02  0.8299884E-01
          1   -1    0    0  501    0  0.00000000000E+00  0.00000000000E+00  0.38391414969E+04  0.38391414969E+04  0.00000000000E+00 0. -1.
         -1   -1    0    0    0  501 -0.00000000000E+00 -0.00000000000E+00 -0.51452266867E+03  0.51452266867E+03  0.00000000000E+00 0.  1.
         23    2    1    2    0    0 -0.26805239857E+03  0.11986456468E+04  0.61100065999E+03  0.13750189974E+04  0.93551920123E+02 0.  0.
         11    1    3    3    0    0 -0.20201313891E+03  0.73028568044E+03  0.34771599130E+03  0.83368632828E+03  0.00000000000E+00 0. -1.
        -11    1    3    3    0    0 -0.66039259664E+02  0.46835996634E+03  0.26328466869E+03  0.54133266912E+03  0.00000000000E+00 0.  1.
         22    1    1    2    0    0  0.26805239857E+03 -0.11986456468E+04  0.27136181683E+04  0.29786451682E+04  0.00000000000E+00 0. -1.
<mgrwt>
<rscale>  0 0.28109253E+04</rscale>
<asrwt>0</asrwt>
<pdfrwt beam="1">  1        1 0.59063713E+00 0.28109253E+04</pdfrwt>
<pdfrwt beam="2">  1       -1 0.79157336E-01 0.28109253E+04</pdfrwt>
<totfact> 0.18230090E-01</totfact>
</mgrwt>
</event>
<event>
 6    1  0.1762360E-005  0.1106783E+04  0.7818608E-02  0.9198606E-01
         -2   -1    0    0    0  501 -0.00000000000E+00  0.00000000000E+00  0.14537469859E+03  0.14537469859E+03  0.00000000000E+00 0. -1.
          2   -1    0    0  501    0  0.00000000000E+00 -0.00000000000E+00 -0.21065710884E+04  0.21065710884E+04  0.00000000000E+00 0.  1.
         23    2    1    2    0    0 -0.21682314348E+03 -0.22012445167E+03 -0.19121298079E+04  0.19390966552E+04  0.91588133836E+02 0.  0.
         11    1    3    3    0    0 -0.12002388555E+03 -0.85935322125E+02 -0.11341782043E+04  0.11437442073E+04  0.00000000000E+00 0.  1.
        -11    1    3    3    0    0 -0.96799257925E+02 -0.13418912955E+03 -0.77795160362E+03  0.79535244791E+03  0.00000000000E+00 0. -1.
         22    1    1    2    0    0  0.21682314348E+03  0.22012445167E+03 -0.49066581886E+02  0.31284913174E+03  0.00000000000E+00 0. -1.
<mgrwt>
<rscale>  0 0.11067830E+04</rscale>
<asrwt>0</asrwt>
<pdfrwt beam="1">  1        2 0.32408786E+00 0.11067830E+04</pdfrwt>
<pdfrwt beam="2">  1       -2 0.22365338E-01 0.11067830E+04</pdfrwt>
<totfact> 0.10170532E+02</totfact>
</mgrwt>
</event>
<event>
 6    1  0.1762360E-005  0.5674360E+03  0.7818608E-02  0.9975369E-01
          1   -1    0    0  501    0  0.00000000000E+00  0.00000000000E+00  0.19155222923E+03  0.19155222923E+03  0.00000000000E+00 0. -1.
         -1   -1    0    0    0  501 -0.00000000000E+00 -0.00000000000E+00 -0.42022949782E+03  0.42022949782E+03  0.00000000000E+00 0.  1.
         23    2    1    2    0    0  0.26067935489E+03  0.30901562107E+02 -0.21104491017E+03  0.34868567487E+03  0.90183774309E+02 0.  0.
         11    1    3    3    0    0  0.22610691648E+03 -0.69908552675E+01 -0.17470042979E+03  0.28582066039E+03  0.00000000000E+00 0. -1.
        -11    1    3    3    0    0  0.34572438408E+02  0.37892417374E+02 -0.36344480379E+02  0.62865014483E+02  0.00000000000E+00 0.  1.
         22    1    1    2    0    0 -0.26067935489E+03 -0.30901562107E+02 -0.17632358426E+02  0.26309605217E+03  0.00000000000E+00 0. -1.
<mgrwt>
<rscale>  0 0.56743598E+03</rscale>
<asrwt>0</asrwt>
<pdfrwt beam="1">  1        1 0.29469574E-01 0.56743598E+03</pdfrwt>
<pdfrwt beam="2">  1       -1 0.64650691E-01 0.56743598E+03</pdfrwt>
<totfact> 0.38703365E+02</totfact>
</mgrwt>
</event>
<event>
 6    1  0.1762360E-005  0.2731613E+04  0.7818608E-02  0.8324820E-01
         -2   -1    0    0    0  501 -0.00000000000E+00  0.00000000000E+00  0.81615814532E+03  0.81615814532E+03  0.00000000000E+00 0.  1.
          2   -1    0    0  501    0  0.00000000000E+00 -0.00000000000E+00 -0.22856201370E+04  0.22856201370E+04  0.00000000000E+00 0. -1.
         23    2    1    2    0    0 -0.11905679569E+04 -0.26736668016E+03 -0.14271497737E+04  0.18808248330E+04  0.10866726242E+03 0.  0.
         11    1    3    3    0    0 -0.51702643860E+03 -0.11523796634E+03 -0.53759645571E+03  0.75472251609E+03  0.00000000000E+00 0. -1.
        -11    1    3    3    0    0 -0.67354151834E+03 -0.15212871381E+03 -0.88955331802E+03  0.11261023169E+04  0.00000000000E+00 0.  1.
         22    1    1    2    0    0  0.11905679569E+04  0.26736668016E+03 -0.42312217970E+02  0.12209534494E+04  0.00000000000E+00 0.  1.
<mgrwt>
<rscale>  0 0.27316131E+04</rscale>
<asrwt>0</asrwt>
<pdfrwt beam="1">  1        2 0.35163386E+00 0.27316131E+04</pdfrwt>
<pdfrwt beam="2">  1       -2 0.12556279E+00 0.27316131E+04</pdfrwt>
<totfact> 0.19162133E+00</totfact>
</mgrwt>
</event>
<event>
 6    1  0.1762360E-005  0.8015299E+03  0.7818608E-02  0.9557805E-01
         -2   -1    0    0    0  501 -0.00000000000E+00  0.00000000000E+00  0.12589056086E+03  0.12589056086E+03  0.00000000000E+00 0. -1.
          2   -1    0    0  501    0  0.00000000000E+00 -0.00000000000E+00 -0.12758108110E+04  0.12758108110E+04  0.00000000000E+00 0.  1.
         23    2    1    2    0    0  0.34764135594E+02 -0.17872270580E+03 -0.11964731109E+04  0.12137718118E+04  0.92432436023E+02 0.  0.
         11    1    3    3    0    0  0.22057460700E+02 -0.15796907908E+03 -0.75678529122E+03  0.77341110577E+03  0.00000000000E+00 0. -1.
        -11    1    3    3    0    0  0.12706674894E+02 -0.20753626721E+02 -0.43968781968E+03  0.44036070599E+03  0.00000000000E+00 0.  1.
         22    1    1    2    0    0 -0.34764135594E+02  0.17872270580E+03  0.46552860812E+02  0.18792956006E+03  0.00000000000E+00 0. -1.
<mgrwt>
<rscale>  0 0.80152988E+03</rscale>
<asrwt>0</asrwt>
<pdfrwt beam="1">  1        2 0.19627857E+00 0.80152988E+03</pdfrwt>
<pdfrwt beam="2">  1       -2 0.19367780E-01 0.80152988E+03</pdfrwt>
<totfact> 0.38814625E+02</totfact>
</mgrwt>
</event>
<event>
 6    1  0.1762360E-005  0.1879170E+04  0.7818608E-02  0.8665295E-01
         -2   -1    0    0    0  501 -0.00000000000E+00  0.00000000000E+00  0.81271861293E+03  0.81271861293E+03  0.00000000000E+00 0.  1.
          2   -1    0    0  501    0  0.00000000000E+00 -0.00000000000E+00 -0.10862554602E+04  0.10862554602E+04  0.00000000000E+00 0. -1.
         23    2    1    2    0    0  0.33203969057E+03  0.13144309893E+03 -0.10129866042E+04  0.10778080805E+04  0.89446932601E+02 0.  0.
         13    1    3    3    0    0  0.36121424146E+02  0.33857426049E+02 -0.22646606779E+03  0.23181450007E+03  0.00000000000E+00 0.  1.
        -13    1    3    3    0    0  0.29591826642E+03  0.97585672884E+02 -0.78652053642E+03  0.84599358045E+03  0.00000000000E+00 0. -1.
         22    1    1    2    0    0 -0.33203969057E+03 -0.13144309893E+03  0.73944975695E+03  0.82116599261E+03  0.00000000000E+00 0.  1.
<mgrwt>
<rscale>  0 0.18791701E+04</rscale>
<asrwt>0</asrwt>
<pdfrwt beam="1">  1        2 0.16711623E+00 0.18791701E+04</pdfrwt>
<pdfrwt beam="2">  1       -2 0.12503363E+00 0.18791701E+04</pdfrwt>
<totfact> 0.99879397E+00</totfact>
</mgrwt>
</event>
<event>
 6    1  0.1762360E-005  0.4728145E+04  0.7818608E-02  0.7871869E-01
          2   -1    0    0  501    0  0.00000000000E+00  0.00000000000E+00  0.28031769165E+04  0.28031769165E+04  0.00000000000E+00 0. -1.
         -2   -1    0    0    0  501 -0.00000000000E+00 -0.00000000000E+00 -0.19937513381E+04  0.19937513381E+04  0.00000000000E+00 0.  1.
         23    2    1    2    0    0 -0.24748889983E+03  0.12637818355E+04 -0.16054694643E+04  0.20601211093E+04  0.90396354844E+02 0.  0.
         11    1    3    3    0    0 -0.17426006187E+03  0.80942368220E+03 -0.10955043286E+04  0.13731944510E+04  0.00000000000E+00 0.  1.
        -11    1    3    3    0    0 -0.73228837966E+02  0.45435815332E+03 -0.50996513572E+03  0.68692665827E+03  0.00000000000E+00 0. -1.
         22    1    1    2    0    0  0.24748889983E+03 -0.12637818355E+04  0.24148950427E+04  0.27368071453E+04  0.00000000000E+00 0. -1.
<mgrwt>
<rscale>  0 0.47281446E+04</rscale>
<asrwt>0</asrwt>
<pdfrwt beam="1">  1        2 0.43125799E+00 0.47281446E+04</pdfrwt>
<pdfrwt beam="2">  1       -2 0.30673097E+00 0.47281446E+04</pdfrwt>
<totfact> 0.49486614E-02</totfact>
</mgrwt>
</event>
<event>
 6    1  0.1762360E-005  0.1884967E+04  0.7818608E-02  0.8662376E-01
         -1   -1    0    0    0  501 -0.00000000000E+00  0.00000000000E+00  0.10874407096E+04  0.10874407096E+04  0.00000000000E+00 0.  1.
          1   -1    0    0  501    0  0.00000000000E+00 -0.00000000000E+00 -0.81684905069E+03  0.81684905069E+03  0.00000000000E+00 0. -1.
         23    2    1    2    0    0  0.26142861048E+03  0.67795595385E+03  0.73872731009E+03  0.10399286195E+04  0.88115272310E+02 0.  0.
         11    1    3    3    0    0  0.16263065121E+03  0.37714746527E+03  0.47428946423E+03  0.62740691354E+03  0.00000000000E+00 0. -1.
        -11    1    3    3    0    0  0.98797959272E+02  0.30080848857E+03  0.26443784586E+03  0.41252170595E+03  0.00000000000E+00 0.  1.
         22    1    1    2    0    0 -0.26142861048E+03 -0.67795595385E+03 -0.46813565122E+03  0.86436114077E+03  0.00000000000E+00 0. -1.
<mgrwt>
<rscale>  0 0.18849667E+04</rscale>
<asrwt>0</asrwt>
<pdfrwt beam="1">  1        1 0.12566908E+00 0.18849667E+04</pdfrwt>
<pdfrwt beam="2">  1       -1 0.16729857E+00 0.18849667E+04</pdfrwt>
<totfact> 0.51594606E+00</totfact>
</mgrwt>
</event>
<event>
 6    1  0.1762360E-005  0.1250900E+04  0.7818608E-02  0.9069434E-01
          2   -1    0    0  501    0  0.00000000000E+00  0.00000000000E+00  0.50533974818E+03  0.50533974818E+03  0.00000000000E+00 0. -1.
         -2   -1    0    0    0  501 -0.00000000000E+00 -0.00000000000E+00 -0.77410886641E+03  0.77410886641E+03  0.00000000000E+00 0.  1.
         23    2    1    2    0    0 -0.40291899474E+03  0.37494241322E+02  0.34851272204E+03  0.54135214068E+03  0.88608624536E+02 0.  0.
         13    1    3    3    0    0 -0.16080509776E+03  0.58518550513E+02  0.13814181058E+03  0.21992239552E+03  0.00000000000E+00 0. -1.
        -13    1    3    3    0    0 -0.24211389698E+03 -0.21024309191E+02  0.21037091147E+03  0.32142974517E+03  0.00000000000E+00 0.  1.
         22    1    1    2    0    0  0.40291899474E+03 -0.37494241322E+02 -0.61728184028E+03  0.73809647391E+03  0.00000000000E+00 0.  1.
<mgrwt>
<rscale>  0 0.12509004E+04</rscale>
<asrwt>0</asrwt>
<pdfrwt beam="1">  1        2 0.77744577E-01 0.12509004E+04</pdfrwt>
<pdfrwt beam="2">  1       -2 0.11909367E+00 0.12509004E+04</pdfrwt>
<totfact> 0.32357024E+01</totfact>
</mgrwt>
</event>
<event>
 6    1  0.1762360E-005  0.2904387E+04  0.7818608E-02  0.8271573E-01
          1   -1    0    0  501    0  0.00000000000E+00  0.00000000000E+00  0.10438895021E+04  0.10438895021E+04  0.00000000000E+00 0. -1.
         -1   -1    0    0    0  501 -0.00000000000E+00 -0.00000000000E+00 -0.20202008157E+04  0.20202008157E+04  0.00000000000E+00 0.  1.
         23    2    1    2    0    0  0.85921074729E+03 -0.57211814651E+03 -0.15641020856E+04  0.18762097373E+04  0.90472991394E+02 0.  0.
         13    1    3    3    0    0  0.37054191911E+03 -0.29944310232E+03 -0.70046559467E+03  0.84712427345E+03  0.00000000000E+00 0. -1.
        -13    1    3    3    0    0  0.48866882818E+03 -0.27267504418E+03 -0.86363649097E+03  0.10290854638E+04  0.00000000000E+00 0.  1.
         22    1    1    2    0    0 -0.85921074729E+03  0.57211814651E+03  0.58779077208E+03  0.11878805805E+04  0.00000000000E+00 0. -1.
<mgrwt>
<rscale>  0 0.29043873E+04</rscale>
<asrwt>0</asrwt>
<pdfrwt beam="1">  1        1 0.16059839E+00 0.29043873E+04</pdfrwt>
<pdfrwt beam="2">  1       -1 0.31080012E+00 0.29043873E+04</pdfrwt>
<totfact> 0.33723867E-01</totfact>
</mgrwt>
</event>
<event>
 6    1  0.1762360E-005  0.2027114E+04  0.7818608E-02  0.8594048E-01
         -2   -1    0    0    0  501 -0.00000000000E+00  0.00000000000E+00  0.54108662052E+03  0.54108662052E+03  0.00000000000E+00 0.  1.
          2   -1    0    0  501    0  0.00000000000E+00 -0.00000000000E+00 -0.18985831966E+04  0.18985831966E+04  0.00000000000E+00 0. -1.
         23    2    1    2    0    0 -0.28566799237E+03  0.91939309794E+03 -0.30619633105E+03  0.10141446242E+04  0.88562154723E+02 0.  0.
         11    1    3    3    0    0 -0.66000004970E+02  0.13867497067E+03 -0.24141906276E+02  0.15546568684E+03  0.00000000000E+00 0. -1.
        -11    1    3    3    0    0 -0.21966798740E+03  0.78071812726E+03 -0.28205442477E+03  0.85867893736E+03  0.00000000000E+00 0.  1.
         22    1    1    2    0    0  0.28566799237E+03 -0.91939309794E+03 -0.10513002450E+04  0.14255251929E+04  0.00000000000E+00 0. -1.
<mgrwt>
<rscale>  0 0.20271142E+04</rscale>
<asrwt>0</asrwt>
<pdfrwt beam="1">  1        2 0.29208972E+00 0.20271142E+04</pdfrwt>
<pdfrwt beam="2">  1       -2 0.83244096E-01 0.20271142E+04</pdfrwt>
<totfact> 0.89095113E+00</totfact>
</mgrwt>
</event>
<event>
 6    1  0.1762360E-005  0.2124465E+04  0.7818608E-02  0.8550542E-01
         -2   -1    0    0    0  501 -0.00000000000E+00  0.00000000000E+00  0.12864449478E+04  0.12864449478E+04  0.00000000000E+00 0.  1.
          2   -1    0    0  501    0  0.00000000000E+00 -0.00000000000E+00 -0.87709803572E+03  0.87709803572E+03  0.00000000000E+00 0. -1.
         23    2    1    2    0    0  0.69326179472E+03  0.11532521551E+03 -0.60345955350E+03  0.93078641466E+03  0.91038978758E+02 0.  0.
         11    1    3    3    0    0  0.14141602735E+03 -0.32930018474E+01 -0.15522859768E+03  0.21001250961E+03  0.00000000000E+00 0. -1.
        -11    1    3    3    0    0  0.55184576737E+03  0.11861821736E+03 -0.44823095582E+03  0.72077390506E+03  0.00000000000E+00 0.  1.
         22    1    1    2    0    0 -0.69326179472E+03 -0.11532521551E+03  0.10128064656E+04  0.12327565689E+04  0.00000000000E+00 0.  1.
<mgrwt>
<rscale>  0 0.21244654E+04</rscale>
<asrwt>0</asrwt>
<pdfrwt beam="1">  1        2 0.13493816E+00 0.21244654E+04</pdfrwt>
<pdfrwt beam="2">  1       -2 0.19791461E+00 0.21244654E+04</pdfrwt>
<totfact> 0.38360610E+00</totfact>
</mgrwt>
</event>
<event>
 6    1  0.1762360E-005  0.5175042E+04  0.7818608E-02  0.7802058E-01
          1   -1    0    0  501    0  0.00000000000E+00  0.00000000000E+00  0.32623201856E+04  0.32623201856E+04  0.00000000000E+00 0. -1.
         -1   -1    0    0    0  501 -0.00000000000E+00 -0.00000000000E+00 -0.20523018552E+04  0.20523018552E+04  0.00000000000E+00 0.  1.
         23    2    1    2    0    0 -0.10214553547E+04 -0.19198492820E+04  0.20436500190E+04  0.29856449908E+04  0.91533075248E+02 0.  0.
         11    1    3    3    0    0 -0.27464444342E+03 -0.58745358947E+03  0.64383112368E+03  0.91381059629E+03  0.00000000000E+00 0. -1.
        -11    1    3    3    0    0 -0.74681091126E+03 -0.13323956926E+04  0.13998188953E+04  0.20718343945E+04  0.00000000000E+00 0.  1.
         22    1    1    2    0    0  0.10214553547E+04  0.19198492820E+04 -0.83363168853E+03  0.23289770500E+04  0.00000000000E+00 0.  1.
<mgrwt>
<rscale>  0 0.51750423E+04</rscale>
<asrwt>0</asrwt>
<pdfrwt beam="1">  1        1 0.50189541E+00 0.51750423E+04</pdfrwt>
<pdfrwt beam="2">  1       -1 0.31573875E+00 0.51750423E+04</pdfrwt>
<totfact> 0.70842313E-03</totfact>
</mgrwt>
</event>
<event>
 6    1  0.1762360E-005  0.5626764E+04  0.7818608E-02  0.7738483E-01
         -1   -1    0    0    0  501 -0.00000000000E+00  0.00000000000E+00  0.37680571821E+04  0.37680571821E+04  0.00000000000E+00 0.  1.
          1   -1    0    0  501    0  0.00000000000E+00 -0.00000000000E+00 -0.21005834433E+04  0.21005834433E+04  0.00000000000E+00 0. -1.
         23    2    1    2    0    0 -0.19399024768E+04 -0.19991948615E+04  0.12391461700E+04  0.30502250741E+04  0.91586345310E+02 0.  0.
         13    1    3    3    0    0 -0.59470296011E+03 -0.67414418103E+03  0.40352467529E+03  0.98538020639E+03  0.00000000000E+00 0.  1.
        -13    1    3    3    0    0 -0.13451995167E+04 -0.13250506805E+04  0.83562149472E+03  0.20648448678E+04  0.00000000000E+00 0. -1.
         22    1    1    2    0    0  0.19399024768E+04  0.19991948615E+04  0.42832756880E+03  0.28184155513E+04  0.00000000000E+00 0. -1.
<mgrwt>
<rscale>  0 0.56267641E+04</rscale>
<asrwt>0</asrwt>
<pdfrwt beam="1">  1        1 0.32316668E+00 0.56267641E+04</pdfrwt>
<pdfrwt beam="2">  1       -1 0.57970110E+00 0.56267641E+04</pdfrwt>
<totfact> 0.95563145E-04</totfact>
</mgrwt>
</event>
<event>
 6    1  0.1762360E-005  0.3480012E+04  0.7818608E-02  0.8118543E-01
          2   -1    0    0  501    0  0.00000000000E+00  0.00000000000E+00  0.27558730101E+04  0.27558730101E+04  0.00000000000E+00 0.  1.
         -2   -1    0    0    0  501 -0.00000000000E+00 -0.00000000000E+00 -0.10986066947E+04  0.10986066947E+04  0.00000000000E+00 0. -1.
         23    2    1    2    0    0  0.72527054271E+03 -0.16207371582E+02 -0.92128195842E+03  0.11758249604E+04  0.86740138447E+02 0.  0.
         13    1    3    3    0    0  0.36526949981E+03 -0.45730519027E+02 -0.43009545560E+03  0.56612294494E+03  0.00000000000E+00 0. -1.
        -13    1    3    3    0    0  0.36000104290E+03  0.29523147445E+02 -0.49118650282E+03  0.60970201547E+03  0.00000000000E+00 0.  1.
         22    1    1    2    0    0 -0.72527054271E+03  0.16207371582E+02  0.25785482738E+04  0.26786547444E+04  0.00000000000E+00 0.  1.
<mgrwt>
<rscale>  0 0.34800118E+04</rscale>
<asrwt>0</asrwt>
<pdfrwt beam="1">  1        2 0.42398046E+00 0.34800118E+04</pdfrwt>
<pdfrwt beam="2">  1       -2 0.16901642E+00 0.34800118E+04</pdfrwt>
<totfact> 0.43815341E-01</totfact>
</mgrwt>
</event>
<event>
 6    1  0.1762360E-005  0.2543761E+04  0.7818608E-02  0.8387559E-01
         -2   -1    0    0    0  501 -0.00000000000E+00  0.00000000000E+00  0.11141418570E+04  0.11141418570E+04  0.00000000000E+00 0.  1.
          2   -1    0    0  501    0  0.00000000000E+00 -0.00000000000E+00 -0.14519516738E+04  0.14519516738E+04  0.00000000000E+00 0. -1.
         23    2    1    2    0    0 -0.96291929614E+03  0.20955560165E+03 -0.97773595395E+03  0.13910903044E+04  0.89652207492E+02 0.  0.
         13    1    3    3    0    0 -0.42488385299E+03  0.12288051330E+03 -0.39153836877E+03  0.59070145023E+03  0.00000000000E+00 0. -1.
        -13    1    3    3    0    0 -0.53803544314E+03  0.86675088349E+02 -0.58619758518E+03  0.80038885417E+03  0.00000000000E+00 0.  1.
         22    1    1    2    0    0  0.96291929614E+03 -0.20955560165E+03  0.63992613711E+03  0.11750032264E+04  0.00000000000E+00 0.  1.
<mgrwt>
<rscale>  0 0.25437611E+04</rscale>
<asrwt>0</asrwt>
<pdfrwt beam="1">  1        2 0.22337718E+00 0.25437611E+04</pdfrwt>
<pdfrwt beam="2">  1       -2 0.17140644E+00 0.25437611E+04</pdfrwt>
<totfact> 0.25020521E+00</totfact>
</mgrwt>
</event>
<event>
 6    1  0.1762360E-005  0.2192358E+04  0.7818608E-02  0.8521616E-01
         -1   -1    0    0    0  501 -0.00000000000E+00  0.00000000000E+00  0.16388354825E+04  0.16388354825E+04  0.00000000000E+00 0.  1.
          1   -1    0    0  501    0  0.00000000000E+00 -0.00000000000E+00 -0.73320846585E+03  0.73320846585E+03  0.00000000000E+00 0. -1.
         23    2    1    2    0    0  0.10029785567E+04 -0.32397247521E+03  0.13545819631E+03  0.10666382023E+04  0.91891141567E+02 0.  0.
         13    1    3    3    0    0  0.59273613871E+03 -0.21747026189E+03  0.11892919092E+03  0.64247458890E+03  0.00000000000E+00 0. -1.
        -13    1    3    3    0    0  0.41024241797E+03 -0.10650221332E+03  0.16529005389E+02  0.42416361344E+03  0.00000000000E+00 0.  1.
         22    1    1    2    0    0 -0.10029785567E+04  0.32397247521E+03  0.77016882029E+03  0.13054057460E+04  0.00000000000E+00 0.  1.
<mgrwt>
<rscale>  0 0.21923577E+04</rscale>
<asrwt>0</asrwt>
<pdfrwt beam="1">  1        1 0.11280130E+00 0.21923577E+04</pdfrwt>
<pdfrwt beam="2">  1       -1 0.25212854E+00 0.21923577E+04</pdfrwt>
<totfact> 0.15628776E+00</totfact>
</mgrwt>
</event>
<event>
 6    1  0.1762360E-005  0.4536604E+04  0.7818608E-02  0.7904260E-01
          2   -1    0    0  501    0  0.00000000000E+00  0.00000000000E+00  0.20325718965E+04  0.20325718965E+04  0.00000000000E+00 0. -1.
         -2   -1    0    0    0  501 -0.00000000000E+00 -0.00000000000E+00 -0.25313715695E+04  0.25313715695E+04  0.00000000000E+00 0.  1.
         23    2    1    2    0    0  0.20218114269E+04 -0.10186497293E+04 -0.37536889243E+03  0.22966534813E+04  0.91360226823E+02 0.  0.
         13    1    3    3    0    0  0.14436853485E+04 -0.76786874801E+03 -0.25148414252E+03  0.16544165357E+04  0.00000000000E+00 0. -1.
        -13    1    3    3    0    0  0.57812607836E+03 -0.25078098127E+03 -0.12388474991E+03  0.64223694561E+03  0.00000000000E+00 0.  1.
         22    1    1    2    0    0 -0.20218114269E+04  0.10186497293E+04 -0.12343078059E+03  0.22672899846E+04  0.00000000000E+00 0. -1.
<mgrwt>
<rscale>  0 0.45366043E+04</rscale>
<asrwt>0</asrwt>
<pdfrwt beam="1">  1        2 0.31270337E+00 0.45366043E+04</pdfrwt>
<pdfrwt beam="2">  1       -2 0.38944178E+00 0.45366043E+04</pdfrwt>
<totfact> 0.42106905E-02</totfact>
</mgrwt>
</event>
<event>
 6    1  0.1762360E-005  0.3892730E+03  0.7818608E-02  0.1047559E+00
          3   -1    0    0  501    0  0.00000000000E+00  0.00000000000E+00  0.61623951062E+03  0.61623951062E+03  0.00000000000E+00 0. -1.
         -3   -1    0    0    0  501 -0.00000000000E+00 -0.00000000000E+00 -0.61475073513E+02  0.61475073513E+02  0.00000000000E+00 0.  1.
         23    2    1    2    0    0 -0.16997668416E+03 -0.82082485444E+01  0.16503532876E+03  0.25245204594E+03  0.86809718686E+02 0.  0.
         11    1    3    3    0    0 -0.70550784203E+02 -0.43611161203E+02  0.52456282753E+02  0.98137699858E+02  0.00000000000E+00 0. -1.
        -11    1    3    3    0    0 -0.99425899953E+02  0.35402912658E+02  0.11257904601E+03  0.15431434608E+03  0.00000000000E+00 0.  1.
         22    1    1    2    0    0  0.16997668416E+03  0.82082485444E+01  0.38972910834E+03  0.42526253819E+03  0.00000000000E+00 0. -1.
<mgrwt>
<rscale>  0 0.38927301E+03</rscale>
<asrwt>0</asrwt>
<pdfrwt beam="1">  1        3 0.94806074E-01 0.38927301E+03</pdfrwt>
<pdfrwt beam="2">  1       -3 0.94577040E-02 0.38927301E+03</pdfrwt>
<totfact> 0.21490923E+02</totfact>
</mgrwt>
</event>
<event>
 6    1  0.1762360E-005  0.3296718E+04  0.7818608E-02  0.8163731E-01
          1   -1    0    0  501    0  0.00000000000E+00  0.00000000000E+00  0.15140795598E+04  0.15140795598E+04  0.00000000000E+00 0.  1.
         -1   -1    0    0    0  501 -0.00000000000E+00 -0.00000000000E+00 -0.17945475496E+04  0.17945475496E+04  0.00000000000E+00 0. -1.
         23    2    1    2    0    0 -0.50748463026E+03 -0.63486987700E+03 -0.15782306973E+04  0.17773568995E+04  0.87091926850E+02 0.  0.
         13    1    3    3    0    0 -0.40611619394E+03 -0.55256009420E+03 -0.13581473430E+04  0.15214523410E+04  0.00000000000E+00 0.  1.
        -13    1    3    3    0    0 -0.10136843633E+03 -0.82309782804E+02 -0.22008335428E+03  0.25590455850E+03  0.00000000000E+00 0. -1.
         22    1    1    2    0    0  0.50748463026E+03  0.63486987700E+03  0.12977627075E+04  0.15312702099E+04  0.00000000000E+00 0.  1.
<mgrwt>
<rscale>  0 0.32967182E+04</rscale>
<asrwt>0</asrwt>
<pdfrwt beam="1">  1        1 0.23293532E+00 0.32967182E+04</pdfrwt>
<pdfrwt beam="2">  1       -1 0.27608424E+00 0.32967182E+04</pdfrwt>
<totfact> 0.25042956E-01</totfact>
</mgrwt>
</event>
<event>
 6    1  0.1762360E-005  0.1821714E+04  0.7818608E-02  0.8694837E-01
          2   -1    0    0  501    0  0.00000000000E+00  0.00000000000E+00  0.92925038533E+03  0.92925038533E+03  0.00000000000E+00 0. -1.
         -2   -1    0    0    0  501 -0.00000000000E+00 -0.00000000000E+00 -0.89282725595E+03  0.89282725595E+03  0.00000000000E+00 0.  1.
         23    2    1    2    0    0 -0.52690365679E+03  0.70987148323E+02 -0.71875721321E+03  0.89851714591E+03  0.89746817227E+02 0.  0.
         13    1    3    3    0    0 -0.40756099702E+03  0.63278489630E+02 -0.49075469661E+03  0.64105405840E+03  0.00000000000E+00 0.  1.
        -13    1    3    3    0    0 -0.11934265976E+03  0.77086586927E+01 -0.22800251660E+03  0.25746308752E+03  0.00000000000E+00 0. -1.
         22    1    1    2    0    0  0.52690365679E+03 -0.70987148323E+02  0.75518034259E+03  0.92356049537E+03  0.00000000000E+00 0. -1.
<mgrwt>
<rscale>  0 0.18217136E+04</rscale>
<asrwt>0</asrwt>
<pdfrwt beam="1">  1        2 0.14296160E+00 0.18217136E+04</pdfrwt>
<pdfrwt beam="2">  1       -2 0.13735804E+00 0.18217136E+04</pdfrwt>
<totfact> 0.99650078E+00</totfact>
</mgrwt>
</event>
<event>
 6    1  0.1762360E-005  0.1783168E+04  0.7818608E-02  0.8715302E-01
         -2   -1    0    0    0  501 -0.00000000000E+00  0.00000000000E+00  0.60719384272E+03  0.60719384272E+03  0.00000000000E+00 0.  1.
          2   -1    0    0  501    0  0.00000000000E+00 -0.00000000000E+00 -0.13091734976E+04  0.13091734976E+04  0.00000000000E+00 0. -1.
         23    2    1    2    0    0 -0.42404855359E+03  0.47640055447E+03 -0.10178370324E+04  0.12046507205E+04  0.91741319892E+02 0.  0.
         11    1    3    3    0    0 -0.17781499085E+03  0.23349175847E+03 -0.54234363230E+03  0.61666294501E+03  0.00000000000E+00 0.  1.
        -11    1    3    3    0    0 -0.24623356274E+03  0.24290879600E+03 -0.47549340009E+03  0.58798777549E+03  0.00000000000E+00 0. -1.
         22    1    1    2    0    0  0.42404855359E+03 -0.47640055447E+03  0.31585737746E+03  0.71171661987E+03  0.00000000000E+00 0.  1.
<mgrwt>
<rscale>  0 0.17831681E+04</rscale>
<asrwt>0</asrwt>
<pdfrwt beam="1">  1        2 0.20141131E+00 0.17831681E+04</pdfrwt>
<pdfrwt beam="2">  1       -2 0.93414437E-01 0.17831681E+04</pdfrwt>
<totfact> 0.14965306E+01</totfact>
</mgrwt>
</event>
<event>
 6    1  0.1762360E-005  0.3519063E+04  0.7818608E-02  0.8109287E-01
          2   -1    0    0  501    0  0.00000000000E+00  0.00000000000E+00  0.22701975367E+04  0.22701975367E+04  0.00000000000E+00 0.  1.
         -2   -1    0    0    0  501 -0.00000000000E+00 -0.00000000000E+00 -0.13637364624E+04  0.13637364624E+04  0.00000000000E+00 0. -1.
         23    2    1    2    0    0 -0.96499254881E+03 -0.41471939732E+02 -0.10635881190E+04  0.14398454947E+04  0.94893733635E+02 0.  0.
         13    1    3    3    0    0 -0.35158137293E+03  0.29540798675E+02 -0.40103912495E+03  0.53414838792E+03  0.00000000000E+00 0. -1.
        -13    1    3    3    0    0 -0.61341117588E+03 -0.71012738406E+02 -0.66254899409E+03  0.90569710681E+03  0.00000000000E+00 0.  1.
         22    1    1    2    0    0  0.96499254881E+03  0.41471939732E+02  0.19700491933E+04  0.21940885044E+04  0.00000000000E+00 0.  1.
<mgrwt>
<rscale>  0 0.35190630E+04</rscale>
<asrwt>0</asrwt>
<pdfrwt beam="1">  1        2 0.34926116E+00 0.35190630E+04</pdfrwt>
<pdfrwt beam="2">  1       -2 0.20980561E+00 0.35190630E+04</pdfrwt>
<totfact> 0.44410293E-01</totfact>
</mgrwt>
</event>
<event>
 6    1  0.1762360E-005  0.2390686E+04  0.7818608E-02  0.8442999E-01
         -2   -1    0    0    0  501 -0.00000000000E+00  0.00000000000E+00  0.91428528418E+03  0.91428528418E+03  0.00000000000E+00 0.  1.
          2   -1    0    0  501    0  0.00000000000E+00 -0.00000000000E+00 -0.15627997056E+04  0.15627997056E+04  0.00000000000E+00 0. -1.
         23    2    1    2    0    0  0.86197421727E+03 -0.60244724157E+03 -0.90989336874E+03  0.13934516643E+04  0.88653077269E+02 0.  0.
         13    1    3    3    0    0  0.41036593421E+03 -0.23394164678E+03 -0.39664535699E+03  0.61681150547E+03  0.00000000000E+00 0. -1.
        -13    1    3    3    0    0  0.45160828306E+03 -0.36850559479E+03 -0.51324801174E+03  0.77664015881E+03  0.00000000000E+00 0.  1.
         22    1    1    2    0    0 -0.86197421727E+03  0.60244724157E+03  0.26137894729E+03  0.10836333255E+04  0.00000000000E+00 0.  1.
<mgrwt>
<rscale>  0 0.23906859E+04</rscale>
<asrwt>0</asrwt>
<pdfrwt beam="1">  1        2 0.24043072E+00 0.23906859E+04</pdfrwt>
<pdfrwt beam="2">  1       -2 0.14065928E+00 0.23906859E+04</pdfrwt>
<totfact> 0.37365132E+00</totfact>
</mgrwt>
</event>
<event>
 6    1  0.1762360E-005  0.2173125E+04  0.7818608E-02  0.8529698E-01
          1   -1    0    0  501    0  0.00000000000E+00  0.00000000000E+00  0.29330394864E+04  0.29330394864E+04  0.00000000000E+00 0. -1.
         -1   -1    0    0    0  501 -0.00000000000E+00 -0.00000000000E+00 -0.40252361898E+03  0.40252361898E+03  0.00000000000E+00 0.  1.
         23    2    1    2    0    0  0.37948728260E+03 -0.41913422993E+03 -0.15290391410E+03  0.59322362526E+03  0.94077426964E+02 0.  0.
         13    1    3    3    0    0  0.74352643864E+02 -0.12495496878E+03 -0.69861522380E+02  0.16131550509E+03  0.00000000000E+00 0. -1.
        -13    1    3    3    0    0  0.30513463873E+03 -0.29417926115E+03 -0.83042391719E+02  0.43190812017E+03  0.00000000000E+00 0.  1.
         22    1    1    2    0    0 -0.37948728260E+03  0.41913422993E+03  0.26834197815E+04  0.27423394801E+04  0.00000000000E+00 0. -1.
<mgrwt>
<rscale>  0 0.21731246E+04</rscale>
<asrwt>0</asrwt>
<pdfrwt beam="1">  1        1 0.45123683E+00 0.21731246E+04</pdfrwt>
<pdfrwt beam="2">  1       -1 0.61926713E-01 0.21731246E+04</pdfrwt>
<totfact> 0.16176005E+00</totfact>
</mgrwt>
</event>
<event>
 6    1  0.1762360E-005  0.1799152E+04  0.7818608E-02  0.8706750E-01
         -2   -1    0    0    0  501 -0.00000000000E+00  0.00000000000E+00  0.50554945045E+03  0.50554945045E+03  0.00000000000E+00 0.  1.
          2   -1    0    0  501    0  0.00000000000E+00 -0.00000000000E+00 -0.16007081883E+04  0.16007081883E+04  0.00000000000E+00 0. -1.
         23    2    1    2    0    0  0.45914343324E+03  0.39246098763E+03 -0.13257484113E+04  0.14597207746E+04  0.91310298886E+02 0.  0.
         11    1    3    3    0    0  0.35391636849E+03  0.30327202125E+03 -0.11069525284E+04  0.12010722771E+04  0.00000000000E+00 0. -1.
        -11    1    3    3    0    0  0.10522706475E+03  0.89188966383E+02 -0.21879588295E+03  0.25864849753E+03  0.00000000000E+00 0.  1.
         22    1    1    2    0    0 -0.45914343324E+03 -0.39246098763E+03  0.23058967350E+03  0.64653686409E+03  0.00000000000E+00 0.  1.
<mgrwt>
<rscale>  0 0.17991522E+04</rscale>
<asrwt>0</asrwt>
<pdfrwt beam="1">  1        2 0.24626280E+00 0.17991522E+04</pdfrwt>
<pdfrwt beam="2">  1       -2 0.77776839E-01 0.17991522E+04</pdfrwt>
<totfact> 0.15489250E+01</totfact>
</mgrwt>
</event>
<event>
 6    1  0.1762360E-005  0.2834834E+04  0.7818608E-02  0.8292535E-01
         -1   -1    0    0    0  501 -0.00000000000E+00  0.00000000000E+00  0.61799003841E+03  0.61799003841E+03  0.00000000000E+00 0.  1.
          1   -1    0    0  501    0  0.00000000000E+00 -0.00000000000E+00 -0.32509761610E+04  0.32509761610E+04  0.00000000000E+00 0. -1.
         23    2    1    2    0    0  0.52471575086E+03  0.43480267419E+03 -0.30117813597E+04  0.30893087001E+04  0.92850963804E+02 0.  0.
         11    1    3    3    0    0  0.13388451062E+03  0.61822810471E+02 -0.65931258861E+03  0.67560359056E+03  0.00000000000E+00 0. -1.
        -11    1    3    3    0    0  0.39083124024E+03  0.37297986372E+03 -0.23524687711E+04  0.24137051096E+04  0.00000000000E+00 0.  1.
         22    1    1    2    0    0 -0.52471575086E+03 -0.43480267419E+03  0.37879523704E+03  0.77965749935E+03  0.00000000000E+00 0.  1.
<mgrwt>
<rscale>  0 0.28348340E+04</rscale>
<asrwt>0</asrwt>
<pdfrwt beam="1">  1        1 0.50015018E+00 0.28348340E+04</pdfrwt>
<pdfrwt beam="2">  1       -1 0.95075391E-01 0.28348340E+04</pdfrwt>
<totfact> 0.35876075E-01</totfact>
</mgrwt>
</event>
<event>
 6    1  0.1762360E-005  0.3345312E+04  0.7818608E-02  0.8151461E-01
          2   -1    0    0  501    0  0.00000000000E+00  0.00000000000E+00  0.14938958061E+04  0.14938958061E+04  0.00000000000E+00 0. -1.
         -2   -1    0    0    0  501 -0.00000000000E+00 -0.00000000000E+00 -0.18728066132E+04  0.18728066132E+04  0.00000000000E+00 0.  1.
         23    2    1    2    0    0 -0.12288745493E+04  0.94846345585E+03  0.43400751977E+03  0.16144034176E+04  0.90665773374E+02 0.  0.
         13    1    3    3    0    0 -0.74101501833E+03  0.62563830486E+03  0.28211282986E+03  0.10100070270E+04  0.00000000000E+00 0. -1.
        -13    1    3    3    0    0 -0.48785953097E+03  0.32282515099E+03  0.15189468992E+03  0.60439639054E+03  0.00000000000E+00 0.  1.
         22    1    1    2    0    0  0.12288745493E+04 -0.94846345585E+03 -0.81291832688E+03  0.17522990016E+04  0.00000000000E+00 0.  1.
<mgrwt>
<rscale>  0 0.33453119E+04</rscale>
<asrwt>0</asrwt>
<pdfrwt beam="1">  1        2 0.22983013E+00 0.33453119E+04</pdfrwt>
<pdfrwt beam="2">  1       -2 0.28812409E+00 0.33453119E+04</pdfrwt>
<totfact> 0.39997234E-01</totfact>
</mgrwt>
</event>
<event>
 6    1  0.1762360E-005  0.2588950E+04  0.7818608E-02  0.8371964E-01
          2   -1    0    0  501    0  0.00000000000E+00  0.00000000000E+00  0.22533222957E+04  0.22533222957E+04  0.00000000000E+00 0. -1.
         -2   -1    0    0    0  501 -0.00000000000E+00 -0.00000000000E+00 -0.74364237110E+03  0.74364237110E+03  0.00000000000E+00 0.  1.
         23    2    1    2    0    0  0.12758872199E+04  0.11700141111E+03  0.95575026175E+03  0.16011080841E+04  0.92255114332E+02 0.  0.
         13    1    3    3    0    0  0.10463091257E+04  0.85059827797E+02  0.73924742594E+03  0.12839332995E+04  0.00000000000E+00 0. -1.
        -13    1    3    3    0    0  0.22957809413E+03  0.31941583313E+02  0.21650283581E+03  0.31717478456E+03  0.00000000000E+00 0.  1.
         22    1    1    2    0    0 -0.12758872199E+04 -0.11700141111E+03  0.55392966286E+03  0.13958565827E+04  0.00000000000E+00 0.  1.
<mgrwt>
<rscale>  0 0.25889503E+04</rscale>
<asrwt>0</asrwt>
<pdfrwt beam="1">  1        2 0.34666497E+00 0.25889503E+04</pdfrwt>
<pdfrwt beam="2">  1       -2 0.11440652E+00 0.25889503E+04</pdfrwt>
<totfact> 0.25470585E+00</totfact>
</mgrwt>
</event>
<event>
 6    1  0.1762360E-005  0.1238544E+04  0.7818608E-02  0.9079773E-01
         -2   -1    0    0    0  501 -0.00000000000E+00  0.00000000000E+00  0.10445118953E+04  0.10445118953E+04  0.00000000000E+00 0.  1.
          2   -1    0    0  501    0  0.00000000000E+00 -0.00000000000E+00 -0.36715479152E+03  0.36715479152E+03  0.00000000000E+00 0. -1.
         23    2    1    2    0    0 -0.49961195911E+02 -0.61073860749E+03  0.27089155858E+03  0.67633546403E+03  0.92464347864E+02 0.  0.
         13    1    3    3    0    0 -0.39266756497E+02 -0.21971531740E+03  0.56372679546E+02  0.23020551224E+03  0.00000000000E+00 0. -1.
        -13    1    3    3    0    0 -0.10694439414E+02 -0.39102329009E+03  0.21451887904E+03  0.44612995179E+03  0.00000000000E+00 0.  1.
         22    1    1    2    0    0  0.49961195911E+02  0.61073860749E+03  0.40646554521E+03  0.73533122279E+03  0.00000000000E+00 0.  1.
<mgrwt>
<rscale>  0 0.12385436E+04</rscale>
<asrwt>0</asrwt>
<pdfrwt beam="1">  1        2 0.56485353E-01 0.12385436E+04</pdfrwt>
<pdfrwt beam="2">  1       -2 0.16069414E+00 0.12385436E+04</pdfrwt>
<totfact> 0.21432301E+01</totfact>
</mgrwt>
</event>
<event>
 6    1  0.1762360E-005  0.1467923E+04  0.7818608E-02  0.8906069E-01
         -1   -1    0    0    0  501 -0.00000000000E+00  0.00000000000E+00  0.32298289246E+03  0.32298289246E+03  0.00000000000E+00 0.  1.
          1   -1    0    0  501    0  0.00000000000E+00 -0.00000000000E+00 -0.16678882672E+04  0.16678882672E+04  0.00000000000E+00 0. -1.
         23    2    1    2    0    0 -0.21027013902E+03  0.48049773405E+03  0.15064494270E+02  0.53326708159E+03  0.95159011796E+02 0.  0.
         13    1    3    3    0    0 -0.21783134816E+03  0.45301106876E+03  0.24442867764E+02  0.50325637447E+03  0.00000000000E+00 0.  1.
        -13    1    3    3    0    0  0.75612091359E+01  0.27486665298E+02 -0.93783734937E+01  0.30010707125E+02  0.00000000000E+00 0. -1.
         22    1    1    2    0    0  0.21027013902E+03 -0.48049773405E+03 -0.13599698690E+04  0.14576040781E+04  0.00000000000E+00 0.  1.
<mgrwt>
<rscale>  0 0.14679229E+04</rscale>
<asrwt>0</asrwt>
<pdfrwt beam="1">  1        1 0.25659819E+00 0.14679229E+04</pdfrwt>
<pdfrwt beam="2">  1       -1 0.49689676E-01 0.14679229E+04</pdfrwt>
<totfact> 0.19748864E+01</totfact>
</mgrwt>
</event>
<event>
 6    1  0.1762360E-005  0.1685040E+04  0.7818608E-02  0.8769943E-01
          2   -1    0    0  501    0  0.00000000000E+00  0.00000000000E+00  0.36870733603E+04  0.36870733603E+04  0.00000000000E+00 0. -1.
         -2   -1    0    0    0  501 -0.00000000000E+00 -0.00000000000E+00 -0.19252119631E+03  0.19252119631E+03  0.00000000000E+00 0.  1.
         23    2    1    2    0    0  0.17105352774E+03 -0.63148482856E+03  0.53931681316E+03  0.85280609740E+03  0.91559907956E+02 0.  0.
         11    1    3    3    0    0  0.74987985816E+02 -0.32101038975E+03  0.21435646767E+03  0.39321694213E+03  0.00000000000E+00 0. -1.
        -11    1    3    3    0    0  0.96065541926E+02 -0.31047443882E+03  0.32496034549E+03  0.45958915527E+03  0.00000000000E+00 0.  1.
         22    1    1    2    0    0 -0.17105352774E+03  0.63148482856E+03  0.29552353508E+04  0.30267884592E+04  0.00000000000E+00 0. -1.
<mgrwt>
<rscale>  0 0.16850398E+04</rscale>
<asrwt>0</asrwt>
<pdfrwt beam="1">  1        2 0.56724200E+00 0.16850398E+04</pdfrwt>
<pdfrwt beam="2">  1       -2 0.29618648E-01 0.16850398E+04</pdfrwt>
<totfact> 0.60461990E+00</totfact>
</mgrwt>
</event>
<event>
 6    1  0.1762360E-005  0.2165274E+04  0.7818608E-02  0.8533022E-01
         -1   -1    0    0    0  501 -0.00000000000E+00  0.00000000000E+00  0.13538001253E+04  0.13538001253E+04  0.00000000000E+00 0.  1.
          1   -1    0    0  501    0  0.00000000000E+00 -0.00000000000E+00 -0.86578737632E+03  0.86578737632E+03  0.00000000000E+00 0. -1.
         23    2    1    2    0    0 -0.15060977476E+03 -0.57399461598E+03  0.11702969167E+04  0.13153393007E+04  0.91484857814E+02 0.  0.
         13    1    3    3    0    0 -0.95915828001E+02 -0.33147958344E+03  0.77517827944E+03  0.84851630816E+03  0.00000000000E+00 0. -1.
        -13    1    3    3    0    0 -0.54693946755E+02 -0.24251503255E+03  0.39511863726E+03  0.46682299251E+03  0.00000000000E+00 0.  1.
         22    1    1    2    0    0  0.15060977476E+03  0.57399461598E+03 -0.68228416771E+03  0.90424820096E+03  0.00000000000E+00 0. -1.
<mgrwt>
<rscale>  0 0.21652742E+04</rscale>
<asrwt>0</asrwt>
<pdfrwt beam="1">  1        1 0.13319806E+00 0.21652742E+04</pdfrwt>
<pdfrwt beam="2">  1       -1 0.20827694E+00 0.21652742E+04</pdfrwt>
<totfact> 0.23459108E+00</totfact>
</mgrwt>
</event>
<event>
 6    1  0.1762360E-005  0.2567213E+04  0.7818608E-02  0.8379424E-01
          2   -1    0    0  501    0  0.00000000000E+00  0.00000000000E+00  0.54199930002E+03  0.54199930002E+03  0.00000000000E+00 0. -1.
         -2   -1    0    0    0  501 -0.00000000000E+00 -0.00000000000E+00 -0.30399407605E+04  0.30399407605E+04  0.00000000000E+00 0.  1.
         23    2    1    2    0    0  0.80713587699E+03 -0.90410131971E+03 -0.18338025190E+04  0.21999313580E+04  0.89435904906E+02 0.  0.
         11    1    3    3    0    0  0.67372038546E+03 -0.70348751108E+03 -0.14511908460E+04  0.17477839419E+04  0.00000000000E+00 0.  1.
        -11    1    3    3    0    0  0.13341549153E+03 -0.20061380864E+03 -0.38261167304E+03  0.45214741616E+03  0.00000000000E+00 0. -1.
         22    1    1    2    0    0 -0.80713587699E+03  0.90410131971E+03 -0.66413894152E+03  0.13820087025E+04  0.00000000000E+00 0. -1.
<mgrwt>
<rscale>  0 0.25672131E+04</rscale>
<asrwt>0</asrwt>
<pdfrwt beam="1">  1        2 0.83384505E-01 0.25672131E+04</pdfrwt>
<pdfrwt beam="2">  1       -2 0.46768321E+00 0.25672131E+04</pdfrwt>
<totfact> 0.13167109E-01</totfact>
</mgrwt>
</event>
<event>
 6    1  0.1762360E-005  0.1420242E+04  0.7818608E-02  0.8939295E-01
         -1   -1    0    0    0  501 -0.00000000000E+00  0.00000000000E+00  0.80734120066E+03  0.80734120066E+03  0.00000000000E+00 0.  1.
          1   -1    0    0  501    0  0.00000000000E+00 -0.00000000000E+00 -0.62460827373E+03  0.62460827373E+03  0.00000000000E+00 0. -1.
         23    2    1    2    0    0 -0.57946273586E+03  0.34572351406E+03  0.30488697366E+03  0.74622108679E+03  0.92671642083E+02 0.  0.
         11    1    3    3    0    0 -0.51310634441E+03  0.31795228890E+03  0.24083146049E+03  0.64990120099E+03  0.00000000000E+00 0.  1.
        -11    1    3    3    0    0 -0.66356391448E+02  0.27771225153E+02  0.64055513172E+02  0.96319885799E+02  0.00000000000E+00 0. -1.
         22    1    1    2    0    0  0.57946273586E+03 -0.34572351406E+03 -0.12215404673E+03  0.68572838759E+03  0.00000000000E+00 0. -1.
<mgrwt>
<rscale>  0 0.14202422E+04</rscale>
<asrwt>0</asrwt>
<pdfrwt beam="1">  1        1 0.96093580E-01 0.14202422E+04</pdfrwt>
<pdfrwt beam="2">  1       -1 0.12420634E+00 0.14202422E+04</pdfrwt>
<totfact> 0.17884434E+01</totfact>
</mgrwt>
</event>
<event>
 6    1  0.1762360E-005  0.1256798E+04  0.7818608E-02  0.9064545E-01
         -1   -1    0    0    0  501 -0.00000000000E+00  0.00000000000E+00  0.15495193921E+04  0.15495193921E+04  0.00000000000E+00 0.  1.
          1   -1    0    0  501    0  0.00000000000E+00 -0.00000000000E+00 -0.25484357435E+03  0.25484357435E+03  0.00000000000E+00 0. -1.
         23    2    1    2    0    0  0.15725692352E+03 -0.59208244397E+03  0.82918595493E+03  0.10349656875E+04  0.91177113500E+02 0.  0.
         13    1    3    3    0    0  0.10791789930E+03 -0.28366570820E+03  0.35362747998E+03  0.46600955097E+03  0.00000000000E+00 0.  1.
        -13    1    3    3    0    0  0.49339024213E+02 -0.30841673577E+03  0.47555847495E+03  0.56895613654E+03  0.00000000000E+00 0. -1.
         22    1    1    2    0    0 -0.15725692352E+03  0.59208244397E+03  0.46548986285E+03  0.76939727896E+03  0.00000000000E+00 0. -1.
<mgrwt>
<rscale>  0 0.12567976E+04</rscale>
<asrwt>0</asrwt>
<pdfrwt beam="1">  1        1 0.39206705E-01 0.12567976E+04</pdfrwt>
<pdfrwt beam="2">  1       -1 0.23838759E+00 0.12567976E+04</pdfrwt>
<totfact> 0.88935853E+00</totfact>
</mgrwt>
</event>
<event>
 6    1  0.1762360E-005  0.2509368E+04  0.7818608E-02  0.8399656E-01
          2   -1    0    0  501    0  0.00000000000E+00  0.00000000000E+00  0.27547513768E+04  0.27547513768E+04  0.00000000000E+00 0. -1.
         -2   -1    0    0    0  501 -0.00000000000E+00 -0.00000000000E+00 -0.57146069951E+03  0.57146069951E+03  0.00000000000E+00 0.  1.
         23    2    1    2    0    0 -0.10860783917E+04  0.39037975396E+03  0.17398084954E+04  0.20898306340E+04  0.92172948919E+02 0.  0.
         11    1    3    3    0    0 -0.28946959412E+03  0.11434948144E+03  0.39971586851E+03  0.50659769577E+03  0.00000000000E+00 0.  1.
        -11    1    3    3    0    0 -0.79660879763E+03  0.27603027252E+03  0.13400926269E+04  0.15832329382E+04  0.00000000000E+00 0. -1.
         22    1    1    2    0    0  0.10860783917E+04 -0.39037975396E+03  0.44348218182E+03  0.12363814423E+04  0.00000000000E+00 0.  1.
<mgrwt>
<rscale>  0 0.25093682E+04</rscale>
<asrwt>0</asrwt>
<pdfrwt beam="1">  1        2 0.42380790E+00 0.25093682E+04</pdfrwt>
<pdfrwt beam="2">  1       -2 0.87917032E-01 0.25093682E+04</pdfrwt>
<totfact> 0.24474854E+00</totfact>
</mgrwt>
</event>
<event>
 6    1  0.1762360E-005  0.3244286E+04  0.7818608E-02  0.8177218E-01
          1   -1    0    0  501    0  0.00000000000E+00  0.00000000000E+00  0.12664121805E+04  0.12664121805E+04  0.00000000000E+00 0. -1.
         -1   -1    0    0    0  501 -0.00000000000E+00 -0.00000000000E+00 -0.20777971795E+04  0.20777971795E+04  0.00000000000E+00 0.  1.
         23    2    1    2    0    0 -0.12299995657E+04  0.57400685970E+03  0.50717303295E+03  0.14518621164E+04  0.91084099985E+02 0.  0.
         13    1    3    3    0    0 -0.98870112571E+03  0.49676809791E+03  0.39642909622E+03  0.11753571744E+04  0.00000000000E+00 0. -1.
        -13    1    3    3    0    0 -0.24129843997E+03  0.77238761784E+02  0.11074393673E+03  0.27650494204E+03  0.00000000000E+00 0.  1.
         22    1    1    2    0    0  0.12299995657E+04 -0.57400685970E+03 -0.13185580319E+04  0.18923472435E+04  0.00000000000E+00 0.  1.
<mgrwt>
<rscale>  0 0.32442858E+04</rscale>
<asrwt>0</asrwt>
<pdfrwt beam="1">  1        1 0.19483265E+00 0.32442858E+04</pdfrwt>
<pdfrwt beam="2">  1       -1 0.31966110E+00 0.32442858E+04</pdfrwt>
<totfact> 0.19602337E-01</totfact>
</mgrwt>
</event>
<event>
 6    1  0.1762360E-005  0.1113175E+04  0.7818608E-02  0.9192445E-01
          1   -1    0    0  501    0  0.00000000000E+00  0.00000000000E+00  0.43086307241E+03  0.43086307241E+03  0.00000000000E+00 0. -1.
         -1   -1    0    0    0  501 -0.00000000000E+00 -0.00000000000E+00 -0.71899774826E+03  0.71899774826E+03  0.00000000000E+00 0.  1.
         23    2    1    2    0    0  0.20770354155E+03  0.84735071116E+02  0.37674403630E+03  0.44815967679E+03  0.92683512923E+02 0.  0.
         11    1    3    3    0    0  0.41946614556E+02 -0.25657800088E+01  0.14049788509E+03  0.14664841429E+03  0.00000000000E+00 0. -1.
        -11    1    3    3    0    0  0.16575692700E+03  0.87300851124E+02  0.23624615120E+03  0.30151126250E+03  0.00000000000E+00 0.  1.
         22    1    1    2    0    0 -0.20770354155E+03 -0.84735071116E+02 -0.66487871215E+03  0.70170114388E+03  0.00000000000E+00 0.  1.
<mgrwt>
<rscale>  0 0.11131749E+04</rscale>
<asrwt>0</asrwt>
<pdfrwt beam="1">  1        1 0.66286627E-01 0.11131749E+04</pdfrwt>
<pdfrwt beam="2">  1       -1 0.11061504E+00 0.11131749E+04</pdfrwt>
<totfact> 0.40740732E+01</totfact>
</mgrwt>
</event>
<event>
 6    1  0.1762360E-005  0.1583065E+04  0.7818608E-02  0.8831020E-01
          2   -1    0    0  501    0  0.00000000000E+00  0.00000000000E+00  0.37210029328E+04  0.37210029328E+04  0.00000000000E+00 0. -1.
         -2   -1    0    0    0  501 -0.00000000000E+00 -0.00000000000E+00 -0.16837494377E+03  0.16837494377E+03  0.00000000000E+00 0.  1.
         23    2    1    2    0    0  0.77085510792E+03 -0.75145921170E+02  0.21508040139E+04  0.22878239549E+04  0.91192299178E+02 0.  0.
         11    1    3    3    0    0  0.46547367579E+03 -0.72680051430E+02  0.11993849287E+04  0.12885931630E+04  0.00000000000E+00 0.  1.
        -11    1    3    3    0    0  0.30538143212E+03 -0.24658697405E+01  0.95141908523E+03  0.99923079183E+03  0.00000000000E+00 0. -1.
         22    1    1    2    0    0 -0.77085510792E+03  0.75145921170E+02  0.14018239751E+04  0.16015539217E+04  0.00000000000E+00 0.  1.
<mgrwt>
<rscale>  0 0.15830650E+04</rscale>
<asrwt>0</asrwt>
<pdfrwt beam="1">  1        2 0.57246193E+00 0.15830650E+04</pdfrwt>
<pdfrwt beam="2">  1       -2 0.25903840E-01 0.15830650E+04</pdfrwt>
<totfact> 0.73863862E+00</totfact>
</mgrwt>
</event>
<event>
 6    1  0.1762360E-005  0.1905310E+04  0.7818608E-02  0.8652218E-01
          1   -1    0    0  501    0  0.00000000000E+00  0.00000000000E+00  0.89624953439E+03  0.89624953439E+03  0.00000000000E+00 0. -1.
         -1   -1    0    0    0  501 -0.00000000000E+00 -0.00000000000E+00 -0.10126102328E+04  0.10126102328E+04  0.00000000000E+00 0.  1.
         23    2    1    2    0    0  0.64153120411E+03 -0.69963022563E+03 -0.10663717410E+03  0.95957620295E+03  0.91489146385E+02 0.  0.
         11    1    3    3    0    0  0.17112095136E+03 -0.20479050580E+03  0.93673409489E+01  0.26703797171E+03  0.00000000000E+00 0.  1.
        -11    1    3    3    0    0  0.47041025274E+03 -0.49483971983E+03 -0.11600451505E+03  0.69253823123E+03  0.00000000000E+00 0. -1.
         22    1    1    2    0    0 -0.64153120411E+03  0.69963022563E+03 -0.97235243236E+01  0.94928356426E+03  0.00000000000E+00 0. -1.
<mgrwt>
<rscale>  0 0.19053099E+04</rscale>
<asrwt>0</asrwt>
<pdfrwt beam="1">  1        1 0.13788454E+00 0.19053099E+04</pdfrwt>
<pdfrwt beam="2">  1       -1 0.15578619E+00 0.19053099E+04</pdfrwt>
<totfact> 0.53940478E+00</totfact>
</mgrwt>
</event>
<event>
 6    1  0.1762360E-005  0.2628005E+04  0.7818608E-02  0.8358750E-01
         -1   -1    0    0    0  501 -0.00000000000E+00  0.00000000000E+00  0.16424990576E+04  0.16424990576E+04  0.00000000000E+00 0.  1.
          1   -1    0    0  501    0  0.00000000000E+00 -0.00000000000E+00 -0.10512048696E+04  0.10512048696E+04  0.00000000000E+00 0. -1.
         23    2    1    2    0    0 -0.11412672334E+04 -0.61737038841E+03  0.94467335060E+02  0.13042889365E+04  0.92781776372E+02 0.  0.
         11    1    3    3    0    0 -0.13493490045E+03 -0.55973395118E+02 -0.14571097309E+02  0.14680860055E+03  0.00000000000E+00 0.  1.
        -11    1    3    3    0    0 -0.10063323329E+04 -0.56139699330E+03  0.10903843237E+03  0.11574803359E+04  0.00000000000E+00 0. -1.
         22    1    1    2    0    0  0.11412672334E+04  0.61737038841E+03  0.49682685293E+03  0.13894149907E+04  0.00000000000E+00 0.  1.
<mgrwt>
<rscale>  0 0.26280053E+04</rscale>
<asrwt>0</asrwt>
<pdfrwt beam="1">  1        1 0.16172383E+00 0.26280053E+04</pdfrwt>
<pdfrwt beam="2">  1       -1 0.25269216E+00 0.26280053E+04</pdfrwt>
<totfact> 0.81231669E-01</totfact>
</mgrwt>
</event>
<event>
 6    1  0.1762360E-005  0.1182583E+04  0.7818608E-02  0.9128240E-01
         -2   -1    0    0    0  501 -0.00000000000E+00  0.00000000000E+00  0.12951846666E+03  0.12951846666E+03  0.00000000000E+00 0.  1.
          2   -1    0    0  501    0  0.00000000000E+00 -0.00000000000E+00 -0.26994274349E+04  0.26994274349E+04  0.00000000000E+00 0. -1.
         23    2    1    2    0    0  0.53120895536E+03 -0.25112056331E+03 -0.12615764633E+04  0.13947288904E+04  0.91918515055E+02 0.  0.
         13    1    3    3    0    0  0.33048634915E+03 -0.10717881073E+03 -0.71577892383E+03  0.79564313121E+03  0.00000000000E+00 0. -1.
        -13    1    3    3    0    0  0.20072260622E+03 -0.14394175259E+03 -0.54579753944E+03  0.59908575917E+03  0.00000000000E+00 0.  1.
         22    1    1    2    0    0 -0.53120895536E+03  0.25112056331E+03 -0.13083325050E+04  0.14342170112E+04  0.00000000000E+00 0.  1.
<mgrwt>
<rscale>  0 0.11825831E+04</rscale>
<asrwt>0</asrwt>
<pdfrwt beam="1">  1        2 0.41529654E+00 0.11825831E+04</pdfrwt>
<pdfrwt beam="2">  1       -2 0.19925918E-01 0.11825831E+04</pdfrwt>
<totfact> 0.57037318E+01</totfact>
</mgrwt>
</event>
<event>
 6    1  0.1762360E-005  0.2409544E+04  0.7818608E-02  0.8435939E-01
         -2   -1    0    0    0  501 -0.00000000000E+00  0.00000000000E+00  0.15254363790E+04  0.15254363790E+04  0.00000000000E+00 0.  1.
          2   -1    0    0  501    0  0.00000000000E+00 -0.00000000000E+00 -0.95151461951E+03  0.95151461951E+03  0.00000000000E+00 0. -1.
         23    2    1    2    0    0 -0.72816931624E+03  0.88608452568E+03  0.66074060754E+03  0.13267710769E+04  0.91471308793E+02 0.  0.
         11    1    3    3    0    0 -0.25793580306E+03  0.30296365162E+03  0.27941862595E+03  0.48620224314E+03  0.00000000000E+00 0. -1.
        -11    1    3    3    0    0 -0.47023351318E+03  0.58312087406E+03  0.38132198159E+03  0.84056883378E+03  0.00000000000E+00 0.  1.
         22    1    1    2    0    0  0.72816931624E+03 -0.88608452568E+03 -0.86818848005E+02  0.11501799216E+04  0.00000000000E+00 0.  1.
<mgrwt>
<rscale>  0 0.24095435E+04</rscale>
<asrwt>0</asrwt>
<pdfrwt beam="1">  1        2 0.14638686E+00 0.24095435E+04</pdfrwt>
<pdfrwt beam="2">  1       -2 0.23468252E+00 0.24095435E+04</pdfrwt>
<totfact> 0.19450349E+00</totfact>
</mgrwt>
</event>
<event>
 6    1  0.1762360E-005  0.2261913E+04  0.7818608E-02  0.8493091E-01
         -1   -1    0    0    0  501 -0.00000000000E+00  0.00000000000E+00  0.67161486194E+03  0.67161486194E+03  0.00000000000E+00 0.  1.
          1   -1    0    0  501    0  0.00000000000E+00 -0.00000000000E+00 -0.19044590461E+04  0.19044590461E+04  0.00000000000E+00 0. -1.
         23    2    1    2    0    0  0.33866968312E+01 -0.76391981386E+03  0.32921174045E+03  0.83722265985E+03  0.94744183962E+02 0.  0.
         11    1    3    3    0    0  0.37049999291E+02 -0.41400273913E+03  0.21246450427E+03  0.46681059974E+03  0.00000000000E+00 0. -1.
        -11    1    3    3    0    0 -0.33663302460E+02 -0.34991707474E+03  0.11674723618E+03  0.37041206012E+03  0.00000000000E+00 0.  1.
         22    1    1    2    0    0 -0.33866968312E+01  0.76391981386E+03 -0.15620559246E+04  0.17388512482E+04  0.00000000000E+00 0. -1.
<mgrwt>
<rscale>  0 0.22619133E+04</rscale>
<asrwt>0</asrwt>
<pdfrwt beam="1">  1        1 0.29299370E+00 0.22619133E+04</pdfrwt>
<pdfrwt beam="2">  1       -1 0.10332536E+00 0.22619133E+04</pdfrwt>
<totfact> 0.27726261E+00</totfact>
</mgrwt>
</event>
<event>
 6    1  0.1762360E-005  0.5255509E+04  0.7818608E-02  0.7790257E-01
         -1   -1    0    0    0  501 -0.00000000000E+00  0.00000000000E+00  0.20149675082E+04  0.20149675082E+04  0.00000000000E+00 0.  1.
          1   -1    0    0  501    0  0.00000000000E+00 -0.00000000000E+00 -0.34269005772E+04  0.34269005772E+04  0.00000000000E+00 0. -1.
         23    2    1    2    0    0  0.67764552071E+03  0.22910340968E+04 -0.18372601924E+04  0.30151534655E+04  0.87090305755E+02 0.  0.
         13    1    3    3    0    0  0.19121780530E+03  0.66832827144E+03 -0.48577708414E+03  0.84806031799E+03  0.00000000000E+00 0. -1.
        -13    1    3    3    0    0  0.48642771541E+03  0.16227058254E+04 -0.13514831083E+04  0.21670931475E+04  0.00000000000E+00 0.  1.
         22    1    1    2    0    0 -0.67764552071E+03 -0.22910340968E+04  0.42532712349E+03  0.24267146199E+04  0.00000000000E+00 0. -1.
<mgrwt>
<rscale>  0 0.52555088E+04</rscale>
<asrwt>0</asrwt>
<pdfrwt beam="1">  1        1 0.52721547E+00 0.52555088E+04</pdfrwt>
<pdfrwt beam="2">  1       -1 0.30999500E+00 0.52555088E+04</pdfrwt>
<totfact> 0.57327268E-03</totfact>
</mgrwt>
</event>
<event>
 6    1  0.1762360E-005  0.1700751E+04  0.7818608E-02  0.8760936E-01
         -1   -1    0    0    0  501 -0.00000000000E+00  0.00000000000E+00  0.93578256624E+03  0.93578256624E+03  0.00000000000E+00 0.  1.
          1   -1    0    0  501    0  0.00000000000E+00 -0.00000000000E+00 -0.77276328854E+03  0.77276328854E+03  0.00000000000E+00 0. -1.
         23    2    1    2    0    0 -0.22775275201E+03 -0.65831655998E+03 -0.40390324422E+03  0.81040713774E+03  0.91487097483E+02 0.  0.
         11    1    3    3    0    0 -0.43300975378E+02 -0.13951424465E+03 -0.12944081875E+03  0.19517716180E+03  0.00000000000E+00 0.  1.
        -11    1    3    3    0    0 -0.18445177663E+03 -0.51880231533E+03 -0.27446242547E+03  0.61522997594E+03  0.00000000000E+00 0. -1.
         22    1    1    2    0    0  0.22775275201E+03  0.65831655998E+03  0.56692252192E+03  0.89813871704E+03  0.00000000000E+00 0.  1.
<mgrwt>
<rscale>  0 0.17007509E+04</rscale>
<asrwt>0</asrwt>
<pdfrwt beam="1">  1        1 0.11888666E+00 0.17007509E+04</pdfrwt>
<pdfrwt beam="2">  1       -1 0.14396655E+00 0.17007509E+04</pdfrwt>
<totfact> 0.86594112E+00</totfact>
</mgrwt>
</event>
<event>
 6    1  0.1762360E-005  0.2256093E+04  0.7818608E-02  0.8495437E-01
          2   -1    0    0  501    0  0.00000000000E+00  0.00000000000E+00  0.20144734778E+04  0.20144734778E+04  0.00000000000E+00 0. -1.
         -2   -1    0    0    0  501 -0.00000000000E+00 -0.00000000000E+00 -0.63167305889E+03  0.63167305889E+03  0.00000000000E+00 0.  1.
         23    2    1    2    0    0 -0.87589001781E+03  0.70012376655E+03  0.81381843470E+03  0.13887296965E+04  0.94409286420E+02 0.  0.
         11    1    3    3    0    0 -0.46697216423E+03  0.33015123432E+03  0.37348182865E+03  0.68304576423E+03  0.00000000000E+00 0.  1.
        -11    1    3    3    0    0 -0.40891785358E+03  0.36997253223E+03  0.44033660604E+03  0.70568393223E+03  0.00000000000E+00 0. -1.
         22    1    1    2    0    0  0.87589001781E+03 -0.70012376655E+03  0.56898198424E+03  0.12574168403E+04  0.00000000000E+00 0.  1.
<mgrwt>
<rscale>  0 0.22560927E+04</rscale>
<asrwt>0</asrwt>
<pdfrwt beam="1">  1        2 0.30991899E+00 0.22560927E+04</pdfrwt>
<pdfrwt beam="2">  1       -2 0.97180472E-01 0.22560927E+04</pdfrwt>
<totfact> 0.52728134E+00</totfact>
</mgrwt>
</event>
<event>
 6    1  0.1762360E-005  0.1043531E+04  0.7818608E-02  0.9262048E-01
         -2   -1    0    0    0  501 -0.00000000000E+00  0.00000000000E+00  0.82232395835E+03  0.82232395835E+03  0.00000000000E+00 0.  1.
          2   -1    0    0  501    0  0.00000000000E+00 -0.00000000000E+00 -0.33106078298E+03  0.33106078298E+03  0.00000000000E+00 0. -1.
         23    2    1    2    0    0  0.40620540228E+03  0.32105825719E+03  0.22802541602E+03  0.57254452983E+03  0.87922778263E+02 0.  0.
         11    1    3    3    0    0  0.34112567988E+03  0.22616539491E+03  0.19105987882E+03  0.45168727304E+03  0.00000000000E+00 0. -1.
        -11    1    3    3    0    0  0.65079722395E+02  0.94892862275E+02  0.36965537192E+02  0.12085725679E+03  0.00000000000E+00 0.  1.
         22    1    1    2    0    0 -0.40620540228E+03 -0.32105825719E+03  0.26323775935E+03  0.58084021150E+03  0.00000000000E+00 0.  1.
<mgrwt>
<rscale>  0 0.10435310E+04</rscale>
<asrwt>0</asrwt>
<pdfrwt beam="1">  1        2 0.50932428E-01 0.10435310E+04</pdfrwt>
<pdfrwt beam="2">  1       -2 0.12651138E+00 0.10435310E+04</pdfrwt>
<totfact> 0.45545066E+01</totfact>
</mgrwt>
</event>
<event>
 6    1  0.1762360E-005  0.2202344E+04  0.7818608E-02  0.8517453E-01
         -1   -1    0    0    0  501 -0.00000000000E+00  0.00000000000E+00  0.76585164001E+03  0.76585164001E+03  0.00000000000E+00 0. -1.
          1   -1    0    0  501    0  0.00000000000E+00 -0.00000000000E+00 -0.15833093491E+04  0.15833093491E+04  0.00000000000E+00 0.  1.
         23    2    1    2    0    0  0.70303583687E+03  0.30423376394E+03  0.43164694249E+03  0.88386920872E+03  0.89933998752E+02 0.  0.
         13    1    3    3    0    0  0.23749455150E+03  0.57474665966E+02  0.13182344997E+03  0.27764081325E+03  0.00000000000E+00 0.  1.
        -13    1    3    3    0    0  0.46554128537E+03  0.24675909797E+03  0.29982349252E+03  0.60622839548E+03  0.00000000000E+00 0. -1.
         22    1    1    2    0    0 -0.70303583687E+03 -0.30423376394E+03 -0.12491046515E+04  0.14652917803E+04  0.00000000000E+00 0.  1.
<mgrwt>
<rscale>  0 0.22023443E+04</rscale>
<asrwt>0</asrwt>
<pdfrwt beam="1">  1        1 0.24358605E+00 0.22023443E+04</pdfrwt>
<pdfrwt beam="2">  1       -1 0.11782333E+00 0.22023443E+04</pdfrwt>
<totfact> 0.33809995E+00</totfact>
</mgrwt>
</event>
<event>
 6    1  0.1762360E-005  0.3548543E+04  0.7818608E-02  0.8102381E-01
          2   -1    0    0  501    0  0.00000000000E+00  0.00000000000E+00  0.23897816907E+04  0.23897816907E+04  0.00000000000E+00 0.  1.
         -2   -1    0    0    0  501 -0.00000000000E+00 -0.00000000000E+00 -0.13172912487E+04  0.13172912487E+04  0.00000000000E+00 0. -1.
         23    2    1    2    0    0 -0.10511597140E+04  0.75086083144E+03 -0.73218044135E+03  0.14877113804E+04  0.92022932526E+02 0.  0.
         13    1    3    3    0    0 -0.17063172859E+03  0.12078910139E+03 -0.80739057735E+02  0.22410709329E+03  0.00000000000E+00 0. -1.
        -13    1    3    3    0    0 -0.88052798538E+03  0.63007173004E+03 -0.65144138361E+03  0.12636042871E+04  0.00000000000E+00 0.  1.
         22    1    1    2    0    0  0.10511597140E+04 -0.75086083144E+03  0.18046708834E+04  0.22193615591E+04  0.00000000000E+00 0.  1.
<mgrwt>
<rscale>  0 0.35485425E+04</rscale>
<asrwt>0</asrwt>
<pdfrwt beam="1">  1        2 0.36765872E+00 0.35485425E+04</pdfrwt>
<pdfrwt beam="2">  1       -2 0.20266019E+00 0.35485425E+04</pdfrwt>
<totfact> 0.42135953E-01</totfact>
</mgrwt>
</event>
<event>
 6    1  0.1762360E-005  0.9850853E+03  0.7818608E-02  0.9325056E-01
         -1   -1    0    0    0  501 -0.00000000000E+00  0.00000000000E+00  0.35333685007E+03  0.35333685007E+03  0.00000000000E+00 0.  1.
          1   -1    0    0  501    0  0.00000000000E+00 -0.00000000000E+00 -0.68659197082E+03  0.68659197082E+03  0.00000000000E+00 0. -1.
         23    2    1    2    0    0 -0.28935936039E+03  0.24385326625E+03  0.15796565655E+03  0.41985535190E+03  0.90178228861E+02 0.  0.
         11    1    3    3    0    0 -0.12429542213E+03  0.15203045690E+03  0.10955024831E+03  0.22486411161E+03  0.00000000000E+00 0.  1.
        -11    1    3    3    0    0 -0.16506393826E+03  0.91822809351E+02  0.48415408236E+02  0.19499124028E+03  0.00000000000E+00 0. -1.
         22    1    1    2    0    0  0.28935936039E+03 -0.24385326625E+03 -0.49122077730E+03  0.62007346900E+03  0.00000000000E+00 0.  1.
<mgrwt>
<rscale>  0 0.98508526E+03</rscale>
<asrwt>0</asrwt>
<pdfrwt beam="1">  1        1 0.10562953E+00 0.98508526E+03</pdfrwt>
<pdfrwt beam="2">  1       -1 0.54359516E-01 0.98508526E+03</pdfrwt>
<totfact> 0.96215957E+01</totfact>
</mgrwt>
</event>
<event>
 6    1  0.1762360E-005  0.1549381E+04  0.7818608E-02  0.8852263E-01
          1   -1    0    0  501    0  0.00000000000E+00  0.00000000000E+00  0.90689070872E+03  0.90689070872E+03  0.00000000000E+00 0. -1.
         -1   -1    0    0    0  501 -0.00000000000E+00 -0.00000000000E+00 -0.66176163393E+03  0.66176163393E+03  0.00000000000E+00 0.  1.
         23    2    1    2    0    0 -0.55105229352E+03 -0.37163159453E+03 -0.27468060762E+03  0.72486873403E+03  0.90645314960E+02 0.  0.
         11    1    3    3    0    0 -0.14472543437E+03 -0.52129721513E+02 -0.58185075994E+02  0.16446416719E+03  0.00000000000E+00 0. -1.
        -11    1    3    3    0    0 -0.40632685915E+03 -0.31950187302E+03 -0.21649553162E+03  0.56040456685E+03  0.00000000000E+00 0.  1.
         22    1    1    2    0    0  0.55105229352E+03  0.37163159453E+03  0.51980968240E+03  0.84378360862E+03  0.00000000000E+00 0. -1.
<mgrwt>
<rscale>  0 0.15493811E+04</rscale>
<asrwt>0</asrwt>
<pdfrwt beam="1">  1        1 0.13952165E+00 0.15493811E+04</pdfrwt>
<pdfrwt beam="2">  1       -1 0.10180948E+00 0.15493811E+04</pdfrwt>
<totfact> 0.15832126E+01</totfact>
</mgrwt>
</event>
<event>
 6    1  0.1762360E-005  0.1353001E+04  0.7818608E-02  0.8988560E-01
         -1   -1    0    0    0  501 -0.00000000000E+00  0.00000000000E+00  0.22658046112E+03  0.22658046112E+03  0.00000000000E+00 0.  1.
          1   -1    0    0  501    0  0.00000000000E+00 -0.00000000000E+00 -0.20198251189E+04  0.20198251189E+04  0.00000000000E+00 0. -1.
         23    2    1    2    0    0  0.46751975470E+03 -0.69111531981E+02 -0.16972544675E+04  0.17641553944E+04  0.90666440381E+02 0.  0.
         11    1    3    3    0    0  0.26749827104E+03 -0.54252307449E+02 -0.81881833582E+03  0.86311187278E+03  0.00000000000E+00 0.  1.
        -11    1    3    3    0    0  0.20002148367E+03 -0.14859224532E+02 -0.87843613164E+03  0.90104352162E+03  0.00000000000E+00 0. -1.
         22    1    1    2    0    0 -0.46751975470E+03  0.69111531981E+02 -0.95990190335E+02  0.48225018562E+03  0.00000000000E+00 0.  1.
<mgrwt>
<rscale>  0 0.13530010E+04</rscale>
<asrwt>0</asrwt>
<pdfrwt beam="1">  1        1 0.31074232E+00 0.13530010E+04</pdfrwt>
<pdfrwt beam="2">  1       -1 0.34858533E-01 0.13530010E+04</pdfrwt>
<totfact> 0.22124586E+01</totfact>
</mgrwt>
</event>
<event>
 6    1  0.1762360E-005  0.2008060E+04  0.7818608E-02  0.8602861E-01
          2   -1    0    0  501    0  0.00000000000E+00  0.00000000000E+00  0.17782000251E+04  0.17782000251E+04  0.00000000000E+00 0. -1.
         -2   -1    0    0    0  501 -0.00000000000E+00 -0.00000000000E+00 -0.56690840959E+03  0.56690840959E+03  0.00000000000E+00 0.  1.
         23    2    1    2    0    0 -0.14241703199E+03 -0.84585512669E+03  0.20695406687E+01  0.86255269117E+03  0.90770896727E+02 0.  0.
         11    1    3    3    0    0 -0.42755923911E+02 -0.47894004480E+03  0.26374243252E+02  0.48156747840E+03  0.00000000000E+00 0. -1.
        -11    1    3    3    0    0 -0.99661108081E+02 -0.36691508189E+03 -0.24304702583E+02  0.38098521277E+03  0.00000000000E+00 0.  1.
         22    1    1    2    0    0  0.14241703199E+03  0.84585512669E+03  0.12092220748E+04  0.14825557435E+04  0.00000000000E+00 0. -1.
<mgrwt>
<rscale>  0 0.20080603E+04</rscale>
<asrwt>0</asrwt>
<pdfrwt beam="1">  1        2 0.27356923E+00 0.20080603E+04</pdfrwt>
<pdfrwt beam="2">  1       -2 0.87216679E-01 0.20080603E+04</pdfrwt>
<totfact> 0.93581795E+00</totfact>
</mgrwt>
</event>
<event>
 6    1  0.1762360E-005  0.2603666E+04  0.7818608E-02  0.8366957E-01
          1   -1    0    0  501    0  0.00000000000E+00  0.00000000000E+00  0.13013783080E+04  0.13013783080E+04  0.00000000000E+00 0. -1.
         -1   -1    0    0    0  501 -0.00000000000E+00 -0.00000000000E+00 -0.13022880538E+04  0.13022880538E+04  0.00000000000E+00 0.  1.
         23    2    1    2    0    0  0.62733178793E+03  0.98356765327E+03  0.57363098738E+03  0.13032635186E+04  0.92156326083E+02 0.  0.
         13    1    3    3    0    0  0.39188237565E+03  0.54852435202E+03  0.36258958465E+03  0.76545539909E+03  0.00000000000E+00 0. -1.
        -13    1    3    3    0    0  0.23544941228E+03  0.43504330125E+03  0.21104140273E+03  0.53780811947E+03  0.00000000000E+00 0.  1.
         22    1    1    2    0    0 -0.62733178793E+03 -0.98356765327E+03 -0.57454073310E+03  0.13004028432E+04  0.00000000000E+00 0.  1.
<mgrwt>
<rscale>  0 0.26036662E+04</rscale>
<asrwt>0</asrwt>
<pdfrwt beam="1">  1        1 0.20021205E+00 0.26036662E+04</pdfrwt>
<pdfrwt beam="2">  1       -1 0.20035201E+00 0.26036662E+04</pdfrwt>
<totfact> 0.11893167E+00</totfact>
</mgrwt>
</event>
<event>
 6    1  0.1762360E-005  0.2843221E+04  0.7818608E-02  0.8289974E-01
          2   -1    0    0  501    0  0.00000000000E+00  0.00000000000E+00  0.16724617544E+04  0.16724617544E+04  0.00000000000E+00 0. -1.
         -2   -1    0    0    0  501 -0.00000000000E+00 -0.00000000000E+00 -0.12083839753E+04  0.12083839753E+04  0.00000000000E+00 0.  1.
         23    2    1    2    0    0 -0.10286827930E+04 -0.88473115101E+03 -0.19249722543E+03  0.13735208694E+04  0.92557542439E+02 0.  0.
         11    1    3    3    0    0 -0.85519195875E+03 -0.77894195859E+03 -0.16378953311E+03  0.11683025603E+04  0.00000000000E+00 0. -1.
        -11    1    3    3    0    0 -0.17349083424E+03 -0.10578919242E+03 -0.28707692320E+02  0.20521830912E+03  0.00000000000E+00 0.  1.
         22    1    1    2    0    0  0.10286827930E+04  0.88473115101E+03  0.65657500453E+03  0.15073248604E+04  0.00000000000E+00 0. -1.
<mgrwt>
<rscale>  0 0.28432207E+04</rscale>
<asrwt>0</asrwt>
<pdfrwt beam="1">  1        2 0.25730181E+00 0.28432207E+04</pdfrwt>
<pdfrwt beam="2">  1       -2 0.18590523E+00 0.28432207E+04</pdfrwt>
<totfact> 0.14554150E+00</totfact>
</mgrwt>
</event>
<event>
 6    1  0.1762360E-005  0.4891730E+04  0.7818608E-02  0.7845429E-01
         -2   -1    0    0    0  501 -0.00000000000E+00  0.00000000000E+00  0.23125574807E+04  0.23125574807E+04  0.00000000000E+00 0.  1.
          2   -1    0    0  501    0  0.00000000000E+00 -0.00000000000E+00 -0.25868571050E+04  0.25868571050E+04  0.00000000000E+00 0. -1.
         23    2    1    2    0    0  0.57895218746E+03 -0.18594628395E+04  0.13436169405E+04  0.23675295770E+04  0.84274127153E+02 0.  0.
         11    1    3    3    0    0  0.32309957750E+03 -0.11234875249E+04  0.76664710493E+03  0.13979861727E+04  0.00000000000E+00 0. -1.
        -11    1    3    3    0    0  0.25585260996E+03 -0.73597531461E+03  0.57696983557E+03  0.96954340434E+03  0.00000000000E+00 0.  1.
         22    1    1    2    0    0 -0.57895218746E+03  0.18594628395E+04 -0.16179165647E+04  0.25318850087E+04  0.00000000000E+00 0. -1.
<mgrwt>
<rscale>  0 0.48917301E+04</rscale>
<asrwt>0</asrwt>
<pdfrwt beam="1">  1        2 0.39797802E+00 0.48917301E+04</pdfrwt>
<pdfrwt beam="2">  1       -2 0.35577807E+00 0.48917301E+04</pdfrwt>
<totfact> 0.32538398E-02</totfact>
</mgrwt>
</event>
<event>
 6    1  0.1762360E-005  0.3937959E+04  0.7818608E-02  0.8017181E-01
          2   -1    0    0  501    0  0.00000000000E+00  0.00000000000E+00  0.27546579502E+04  0.27546579502E+04  0.00000000000E+00 0. -1.
         -2   -1    0    0    0  501 -0.00000000000E+00 -0.00000000000E+00 -0.14073904753E+04  0.14073904753E+04  0.00000000000E+00 0.  1.
         23    2    1    2    0    0  0.10160409102E+03 -0.30944126739E+03  0.27252768933E+04  0.27460727030E+04  0.87771611159E+02 0.  0.
         11    1    3    3    0    0  0.33053048538E+02 -0.14583654863E+03  0.15906541713E+04  0.15976675172E+04  0.00000000000E+00 0.  1.
        -11    1    3    3    0    0  0.68551042477E+02 -0.16360471876E+03  0.11346227220E+04  0.11484051858E+04  0.00000000000E+00 0. -1.
         22    1    1    2    0    0 -0.10160409102E+03  0.30944126739E+03 -0.13780094184E+04  0.14159757225E+04  0.00000000000E+00 0.  1.
<mgrwt>
<rscale>  0 0.39379585E+04</rscale>
<asrwt>0</asrwt>
<pdfrwt beam="1">  1        2 0.42379353E+00 0.39379585E+04</pdfrwt>
<pdfrwt beam="2">  1       -2 0.21652161E+00 0.39379585E+04</pdfrwt>
<totfact> 0.20301717E-01</totfact>
</mgrwt>
</event>
<event>
 6    1  0.1762360E-005  0.1151876E+04  0.7818608E-02  0.9156055E-01
         -3   -1    0    0    0  501 -0.00000000000E+00  0.00000000000E+00  0.10036238940E+04  0.10036238940E+04  0.00000000000E+00 0.  1.
          3   -1    0    0  501    0  0.00000000000E+00 -0.00000000000E+00 -0.33050688997E+03  0.33050688997E+03  0.00000000000E+00 0. -1.
         23    2    1    2    0    0 -0.10795734535E+02 -0.26411150167E+03  0.92632445928E+03  0.96809055585E+03  0.96181532821E+02 0.  0.
         13    1    3    3    0    0  0.38678188155E+02 -0.17551482885E+03  0.60350068936E+03  0.62969400461E+03  0.00000000000E+00 0. -1.
        -13    1    3    3    0    0 -0.49473922689E+02 -0.88596672815E+02  0.32282376993E+03  0.33839655124E+03  0.00000000000E+00 0.  1.
         22    1    1    2    0    0  0.10795734535E+02  0.26411150167E+03 -0.25320745526E+03  0.36604022811E+03  0.00000000000E+00 0. -1.
<mgrwt>
<rscale>  0 0.11518761E+04</rscale>
<asrwt>0</asrwt>
<pdfrwt beam="1">  1        3 0.50847214E-01 0.11518761E+04</pdfrwt>
<pdfrwt beam="2">  1       -3 0.15440367E+00 0.11518761E+04</pdfrwt>
<totfact> 0.29739704E+00</totfact>
</mgrwt>
</event>
<event>
 6    1  0.1762360E-005  0.2535338E+04  0.7818608E-02  0.8390503E-01
         -2   -1    0    0    0  501 -0.00000000000E+00  0.00000000000E+00  0.15036050182E+04  0.15036050182E+04  0.00000000000E+00 0.  1.
          2   -1    0    0  501    0  0.00000000000E+00 -0.00000000000E+00 -0.10687544220E+04  0.10687544220E+04  0.00000000000E+00 0. -1.
         23    2    1    2    0    0 -0.55829576955E+03  0.98747897785E+03 -0.35219129342E+03  0.11916915461E+04  0.96338651704E+02 0.  0.
         11    1    3    3    0    0 -0.24603081306E+03  0.34169291736E+03 -0.12319061624E+03  0.43870393055E+03  0.00000000000E+00 0. -1.
        -11    1    3    3    0    0 -0.31226495649E+03  0.64578606050E+03 -0.22900067718E+03  0.75298761552E+03  0.00000000000E+00 0.  1.
         22    1    1    2    0    0  0.55829576955E+03 -0.98747897785E+03  0.78704188957E+03  0.13806678942E+04  0.00000000000E+00 0.  1.
<mgrwt>
<rscale>  0 0.25353379E+04</rscale>
<asrwt>0</asrwt>
<pdfrwt beam="1">  1        2 0.16442376E+00 0.25353379E+04</pdfrwt>
<pdfrwt beam="2">  1       -2 0.23132385E+00 0.25353379E+04</pdfrwt>
<totfact> 0.16992971E+00</totfact>
</mgrwt>
</event>
<event>
 6    1  0.1762360E-005  0.1023299E+04  0.7818608E-02  0.9283353E-01
         -1   -1    0    0    0  501 -0.00000000000E+00  0.00000000000E+00  0.68203742108E+03  0.68203742108E+03  0.00000000000E+00 0.  1.
          1   -1    0    0  501    0  0.00000000000E+00 -0.00000000000E+00 -0.38382858528E+03  0.38382858528E+03  0.00000000000E+00 0. -1.
         23    2    1    2    0    0  0.37265765182E+03  0.34333621626E+03  0.17937422072E+03  0.54540933323E+03  0.92426981256E+02 0.  0.
         13    1    3    3    0    0  0.23674363262E+03  0.20182081536E+03  0.15537041653E+03  0.34773431730E+03  0.00000000000E+00 0.  1.
        -13    1    3    3    0    0  0.13591401921E+03  0.14151540090E+03  0.24003804188E+02  0.19767501593E+03  0.00000000000E+00 0. -1.
         22    1    1    2    0    0 -0.37265765182E+03 -0.34333621626E+03  0.11883461509E+03  0.52045667312E+03  0.00000000000E+00 0. -1.
<mgrwt>
<rscale>  0 0.10232995E+04</rscale>
<asrwt>0</asrwt>
<pdfrwt beam="1">  1        1 0.59050552E-01 0.10232995E+04</pdfrwt>
<pdfrwt beam="2">  1       -1 0.10492883E+00 0.10232995E+04</pdfrwt>
<totfact> 0.54147741E+01</totfact>
</mgrwt>
</event>
<event>
 6    1  0.1762360E-005  0.1576363E+04  0.7818608E-02  0.8835202E-01
         -1   -1    0    0    0  501 -0.00000000000E+00  0.00000000000E+00  0.33962180257E+03  0.33962180257E+03  0.00000000000E+00 0.  1.
          1   -1    0    0  501    0  0.00000000000E+00 -0.00000000000E+00 -0.18291813483E+04  0.18291813483E+04  0.00000000000E+00 0. -1.
         23    2    1    2    0    0  0.21387216152E+03 -0.76750172526E+02 -0.17818803836E+04  0.17985554464E+04  0.89844875566E+02 0.  0.
         13    1    3    3    0    0  0.20216937753E+03 -0.41683810105E+02 -0.14491896052E+04  0.14638171023E+04  0.00000000000E+00 0. -1.
        -13    1    3    3    0    0  0.11702783996E+02 -0.35066362421E+02 -0.33269077841E+03  0.33473834404E+03  0.00000000000E+00 0.  1.
         22    1    1    2    0    0 -0.21387216152E+03  0.76750172526E+02  0.29232083787E+03  0.37024770453E+03  0.00000000000E+00 0.  1.
<mgrwt>
<rscale>  0 0.15763627E+04</rscale>
<asrwt>0</asrwt>
<pdfrwt beam="1">  1        1 0.28141252E+00 0.15763627E+04</pdfrwt>
<pdfrwt beam="2">  1       -1 0.52249508E-01 0.15763627E+04</pdfrwt>
<totfact> 0.13807691E+01</totfact>
</mgrwt>
</event>
<event>
 6    1  0.1762360E-005  0.2448089E+04  0.7818608E-02  0.8421716E-01
          1   -1    0    0  501    0  0.00000000000E+00  0.00000000000E+00  0.10010768436E+04  0.10010768436E+04  0.00000000000E+00 0. -1.
         -1   -1    0    0    0  501 -0.00000000000E+00 -0.00000000000E+00 -0.14966732950E+04  0.14966732950E+04  0.00000000000E+00 0.  1.
         23    2    1    2    0    0 -0.56474527121E+03 -0.14950607620E+03  0.84733053650E+03  0.10332563069E+04  0.91434508802E+02 0.  0.
         13    1    3    3    0    0 -0.46987732804E+03 -0.12780714413E+03  0.75931174404E+03  0.90203863228E+03  0.00000000000E+00 0.  1.
        -13    1    3    3    0    0 -0.94867943171E+02 -0.21698932070E+02  0.88018792465E+02  0.13121767458E+03  0.00000000000E+00 0. -1.
         22    1    1    2    0    0  0.56474527121E+03  0.14950607620E+03 -0.13429269880E+04  0.14644938317E+04  0.00000000000E+00 0.  1.
<mgrwt>
<rscale>  0 0.24480890E+04</rscale>
<asrwt>0</asrwt>
<pdfrwt beam="1">  1        1 0.15401182E+00 0.24480890E+04</pdfrwt>
<pdfrwt beam="2">  1       -1 0.23025743E+00 0.24480890E+04</pdfrwt>
<totfact> 0.12670503E+00</totfact>
</mgrwt>
</event>
<event>
 6    1  0.1762360E-005  0.1272868E+04  0.7818608E-02  0.9051362E-01
         -1   -1    0    0    0  501 -0.00000000000E+00  0.00000000000E+00  0.41785504325E+03  0.41785504325E+03  0.00000000000E+00 0.  1.
          1   -1    0    0  501    0  0.00000000000E+00 -0.00000000000E+00 -0.96935179494E+03  0.96935179494E+03  0.00000000000E+00 0. -1.
         23    2    1    2    0    0 -0.35165536218E+03 -0.54219327976E+02  0.29232208280E+03  0.47143860620E+03  0.10099965368E+03 0.  0.
         13    1    3    3    0    0 -0.10618540085E+03 -0.22243955020E+01  0.14739768264E+03  0.18167653711E+03  0.00000000000E+00 0.  1.
        -13    1    3    3    0    0 -0.24546996134E+03 -0.51994932474E+02  0.14492440016E+03  0.28976206909E+03  0.00000000000E+00 0. -1.
         22    1    1    2    0    0  0.35165536218E+03  0.54219327976E+02 -0.84381883449E+03  0.91576823199E+03  0.00000000000E+00 0. -1.
<mgrwt>
<rscale>  0 0.12728685E+04</rscale>
<asrwt>0</asrwt>
<pdfrwt beam="1">  1        1 0.14913104E+00 0.12728685E+04</pdfrwt>
<pdfrwt beam="2">  1       -1 0.64285392E-01 0.12728685E+04</pdfrwt>
<totfact> 0.38647718E+01</totfact>
</mgrwt>
</event>
<event>
 6    1  0.1762360E-005  0.3026733E+04  0.7818608E-02  0.8236138E-01
         -1   -1    0    0    0  501 -0.00000000000E+00  0.00000000000E+00  0.17145718305E+04  0.17145718305E+04  0.00000000000E+00 0.  1.
          1   -1    0    0  501    0  0.00000000000E+00 -0.00000000000E+00 -0.13357729170E+04  0.13357729170E+04  0.00000000000E+00 0. -1.
         23    2    1    2    0    0 -0.12595330615E+04  0.17061680978E+03  0.10150233992E+04  0.16289668156E+04  0.87901972786E+02 0.  0.
         11    1    3    3    0    0 -0.27362423886E+03  0.59812262582E+02  0.26089268513E+03  0.38276980550E+03  0.00000000000E+00 0.  1.
        -11    1    3    3    0    0 -0.98590882265E+03  0.11080454720E+03  0.75413071402E+03  0.12461970101E+04  0.00000000000E+00 0. -1.
         22    1    1    2    0    0  0.12595330615E+04 -0.17061680978E+03 -0.63622448565E+03  0.14213779318E+04  0.00000000000E+00 0. -1.
<mgrwt>
<rscale>  0 0.30267333E+04</rscale>
<asrwt>0</asrwt>
<pdfrwt beam="1">  1        1 0.20550352E+00 0.30267333E+04</pdfrwt>
<pdfrwt beam="2">  1       -1 0.26378028E+00 0.30267333E+04</pdfrwt>
<totfact> 0.41065416E-01</totfact>
</mgrwt>
</event>
<event>
 6    1  0.1762360E-005  0.3176172E+04  0.7818608E-02  0.8195139E-01
         -2   -1    0    0    0  501 -0.00000000000E+00  0.00000000000E+00  0.68553275059E+03  0.68553275059E+03  0.00000000000E+00 0.  1.
          2   -1    0    0  501    0  0.00000000000E+00 -0.00000000000E+00 -0.36789147543E+04  0.36789147543E+04  0.00000000000E+00 0. -1.
         23    2    1    2    0    0 -0.10939269175E+04  0.10961612341E+04 -0.10223151819E+04  0.18577863854E+04  0.89422428623E+02 0.  0.
         11    1    3    3    0    0 -0.39031547242E+03  0.34241708208E+03 -0.31329258763E+03  0.60642218922E+03  0.00000000000E+00 0.  1.
        -11    1    3    3    0    0 -0.70361144503E+03  0.75374415205E+03 -0.70902259431E+03  0.12513641962E+04  0.00000000000E+00 0. -1.
         22    1    1    2    0    0  0.10939269175E+04 -0.10961612341E+04 -0.19710668218E+04  0.25066611195E+04  0.00000000000E+00 0. -1.
<mgrwt>
<rscale>  0 0.31761716E+04</rscale>
<asrwt>0</asrwt>
<pdfrwt beam="1">  1        2 0.56598689E+00 0.31761716E+04</pdfrwt>
<pdfrwt beam="2">  1       -2 0.10546658E+00 0.31761716E+04</pdfrwt>
<totfact> 0.37071328E-01</totfact>
</mgrwt>
</event>
<event>
 6    1  0.1762360E-005  0.3278295E+04  0.7818608E-02  0.8168440E-01
          2   -1    0    0  501    0  0.00000000000E+00  0.00000000000E+00  0.37203398219E+04  0.37203398219E+04  0.00000000000E+00 0. -1.
         -2   -1    0    0    0  501 -0.00000000000E+00 -0.00000000000E+00 -0.72219336914E+03  0.72219336914E+03  0.00000000000E+00 0.  1.
         23    2    1    2    0    0 -0.12550703976E+04 -0.21081292645E+03  0.10573875827E+03  0.12825227379E+04  0.11849090779E+03 0.  0.
         13    1    3    3    0    0 -0.10558454373E+04 -0.14215027592E+03  0.61104838764E+02  0.10671223406E+04  0.00000000000E+00 0. -1.
        -13    1    3    3    0    0 -0.19922496033E+03 -0.68662650529E+02  0.44633919504E+02  0.21540039732E+03  0.00000000000E+00 0.  1.
         22    1    1    2    0    0  0.12550703976E+04  0.21081292645E+03  0.28924076944E+04  0.31600104531E+04  0.00000000000E+00 0. -1.
<mgrwt>
<rscale>  0 0.32782951E+04</rscale>
<asrwt>0</asrwt>
<pdfrwt beam="1">  1        2 0.57235996E+00 0.32782951E+04</pdfrwt>
<pdfrwt beam="2">  1       -2 0.11110668E+00 0.32782951E+04</pdfrwt>
<totfact> 0.30197626E-01</totfact>
</mgrwt>
</event>
<event>
 6    1  0.1762360E-005  0.2943974E+04  0.7818608E-02  0.8259913E-01
          2   -1    0    0  501    0  0.00000000000E+00  0.00000000000E+00  0.19659288925E+04  0.19659288925E+04  0.00000000000E+00 0. -1.
         -2   -1    0    0    0  501 -0.00000000000E+00 -0.00000000000E+00 -0.11021485463E+04  0.11021485463E+04  0.00000000000E+00 0.  1.
         23    2    1    2    0    0  0.13437638415E+04 -0.51628702303E+03  0.11920659391E+03  0.14473851100E+04  0.91977675512E+02 0.  0.
         11    1    3    3    0    0  0.13114906945E+04 -0.49090158519E+03  0.12498065459E+03  0.14059204715E+04  0.00000000000E+00 0.  1.
        -11    1    3    3    0    0  0.32273146950E+02 -0.25385437845E+02 -0.57740606761E+01  0.41464638493E+02  0.00000000000E+00 0. -1.
         22    1    1    2    0    0 -0.13437638415E+04  0.51628702303E+03  0.74457375238E+03  0.16206923288E+04  0.00000000000E+00 0. -1.
<mgrwt>
<rscale>  0 0.29439740E+04</rscale>
<asrwt>0</asrwt>
<pdfrwt beam="1">  1        2 0.30245060E+00 0.29439740E+04</pdfrwt>
<pdfrwt beam="2">  1       -2 0.16956132E+00 0.29439740E+04</pdfrwt>
<totfact> 0.12885633E+00</totfact>
</mgrwt>
</event>
<event>
 6    1  0.1762360E-005  0.2890415E+04  0.7818608E-02  0.8275735E-01
          1   -1    0    0  501    0  0.00000000000E+00  0.00000000000E+00  0.38369742750E+04  0.38369742750E+04  0.00000000000E+00 0. -1.
         -1   -1    0    0    0  501 -0.00000000000E+00 -0.00000000000E+00 -0.54434172072E+03  0.54434172072E+03  0.00000000000E+00 0.  1.
         23    2    1    2    0    0  0.96606370365E+03  0.62876718363E+03  0.29657707434E+04  0.31832066960E+04  0.91550619601E+02 0.  0.
         13    1    3    3    0    0  0.46560944070E+03  0.25166272961E+03  0.13994539529E+04  0.14961943881E+04  0.00000000000E+00 0.  1.
        -13    1    3    3    0    0  0.50045426295E+03  0.37710445402E+03  0.15663167906E+04  0.16870123079E+04  0.00000000000E+00 0. -1.
         22    1    1    2    0    0 -0.96606370365E+03 -0.62876718363E+03  0.32686181082E+03  0.11981092997E+04  0.00000000000E+00 0.  1.
<mgrwt>
<rscale>  0 0.28904153E+04</rscale>
<asrwt>0</asrwt>
<pdfrwt beam="1">  1        1 0.59030372E+00 0.28904153E+04</pdfrwt>
<pdfrwt beam="2">  1       -1 0.83744882E-01 0.28904153E+04</pdfrwt>
<totfact> 0.16108437E-01</totfact>
</mgrwt>
</event>
<event>
 6    1  0.1762360E-005  0.1726480E+04  0.7818608E-02  0.8746404E-01
         -1   -1    0    0    0  501 -0.00000000000E+00  0.00000000000E+00  0.51923067129E+03  0.51923067129E+03  0.00000000000E+00 0.  1.
          1   -1    0    0  501    0  0.00000000000E+00 -0.00000000000E+00 -0.14351677538E+04  0.14351677538E+04  0.00000000000E+00 0. -1.
         23    2    1    2    0    0  0.69588109434E+03  0.50283911387E+03 -0.53158325691E+03  0.10137467706E+04  0.89465546083E+02 0.  0.
         13    1    3    3    0    0  0.35665294088E+03  0.24997603601E+03 -0.32160945958E+03  0.54140740973E+03  0.00000000000E+00 0.  1.
        -13    1    3    3    0    0  0.33922815346E+03  0.25286307785E+03 -0.20997379733E+03  0.47233936085E+03  0.00000000000E+00 0. -1.
         22    1    1    2    0    0 -0.69588109434E+03 -0.50283911387E+03 -0.38435382562E+03  0.94065165453E+03  0.00000000000E+00 0. -1.
<mgrwt>
<rscale>  0 0.17264798E+04</rscale>
<asrwt>0</asrwt>
<pdfrwt beam="1">  1        1 0.22079504E+00 0.17264798E+04</pdfrwt>
<pdfrwt beam="2">  1       -1 0.79881643E-01 0.17264798E+04</pdfrwt>
<totfact> 0.10784758E+01</totfact>
</mgrwt>
</event>
<event>
 6    1  0.1762360E-005  0.2442094E+04  0.7818608E-02  0.8423910E-01
         -2   -1    0    0    0  501 -0.00000000000E+00  0.00000000000E+00  0.57259772704E+03  0.57259772704E+03  0.00000000000E+00 0.  1.
          2   -1    0    0  501    0  0.00000000000E+00 -0.00000000000E+00 -0.26038445064E+04  0.26038445064E+04  0.00000000000E+00 0. -1.
         23    2    1    2    0    0 -0.38618294449E+03 -0.11355570574E+04 -0.13025641256E+04  0.17730158880E+04  0.91021648161E+02 0.  0.
         11    1    3    3    0    0 -0.16179904764E+03 -0.47558593217E+03 -0.47996001238E+03  0.69478235742E+03  0.00000000000E+00 0.  1.
        -11    1    3    3    0    0 -0.22438389685E+03 -0.65997112526E+03 -0.82260411320E+03  0.10782335305E+04  0.00000000000E+00 0. -1.
         22    1    1    2    0    0  0.38618294449E+03  0.11355570574E+04 -0.72868265380E+03  0.14034263455E+04  0.00000000000E+00 0.  1.
<mgrwt>
<rscale>  0 0.24420937E+04</rscale>
<asrwt>0</asrwt>
<pdfrwt beam="1">  1        2 0.40059146E+00 0.24420937E+04</pdfrwt>
<pdfrwt beam="2">  1       -2 0.88091959E-01 0.24420937E+04</pdfrwt>
<totfact> 0.30119087E+00</totfact>
</mgrwt>
</event>
<event>
 6    1  0.1762360E-005  0.2147856E+04  0.7818608E-02  0.8540451E-01
          1   -1    0    0  501    0  0.00000000000E+00  0.00000000000E+00  0.13934405690E+04  0.13934405690E+04  0.00000000000E+00 0. -1.
         -1   -1    0    0    0  501 -0.00000000000E+00 -0.00000000000E+00 -0.82767887431E+03  0.82767887431E+03  0.00000000000E+00 0.  1.
         23    2    1    2    0    0 -0.68361518600E+03 -0.63973111582E+03  0.82336375255E+03  0.12500661784E+04  0.90288196436E+02 0.  0.
         11    1    3    3    0    0 -0.44833090893E+03 -0.45834173414E+03  0.60311246876E+03  0.88023996678E+03  0.00000000000E+00 0. -1.
        -11    1    3    3    0    0 -0.23528427707E+03 -0.18138938169E+03  0.22025128379E+03  0.36982621167E+03  0.00000000000E+00 0.  1.
         22    1    1    2    0    0  0.68361518600E+03  0.63973111582E+03 -0.25760205782E+03  0.97105326490E+03  0.00000000000E+00 0.  1.
<mgrwt>
<rscale>  0 0.21478560E+04</rscale>
<asrwt>0</asrwt>
<pdfrwt beam="1">  1        1 0.21437547E+00 0.21478560E+04</pdfrwt>
<pdfrwt beam="2">  1       -1 0.12733521E+00 0.21478560E+04</pdfrwt>
<totfact> 0.37999968E+00</totfact>
</mgrwt>
</event>
<event>
 6    1  0.1762360E-005  0.2767428E+04  0.7818608E-02  0.8313453E-01
         -1   -1    0    0    0  501 -0.00000000000E+00  0.00000000000E+00  0.57770794053E+03  0.57770794053E+03  0.00000000000E+00 0.  1.
          1   -1    0    0  501    0  0.00000000000E+00 -0.00000000000E+00 -0.33142422162E+04  0.33142422162E+04  0.00000000000E+00 0. -1.
         23    2    1    2    0    0  0.11119830068E+04 -0.71528735454E+03 -0.80298565266E+03  0.15495683594E+04  0.90741033185E+02 0.  0.
         11    1    3    3    0    0  0.98959473654E+03 -0.60722981994E+03 -0.72309076024E+03  0.13678033647E+04  0.00000000000E+00 0.  1.
        -11    1    3    3    0    0  0.12238827024E+03 -0.10805753459E+03 -0.79894892423E+02  0.18176499473E+03  0.00000000000E+00 0. -1.
         22    1    1    2    0    0 -0.11119830068E+04  0.71528735454E+03 -0.19335486230E+04  0.23423817973E+04  0.00000000000E+00 0.  1.
<mgrwt>
<rscale>  0 0.27674277E+04</rscale>
<asrwt>0</asrwt>
<pdfrwt beam="1">  1        1 0.50988342E+00 0.27674277E+04</pdfrwt>
<pdfrwt beam="2">  1       -1 0.88878145E-01 0.27674277E+04</pdfrwt>
<totfact> 0.37534332E-01</totfact>
</mgrwt>
</event>
<event>
 6    1  0.1762360E-005  0.1693463E+04  0.7818608E-02  0.8765101E-01
          2   -1    0    0  501    0  0.00000000000E+00  0.00000000000E+00  0.14428241772E+04  0.14428241772E+04  0.00000000000E+00 0. -1.
         -2   -1    0    0    0  501 -0.00000000000E+00 -0.00000000000E+00 -0.49691059577E+03  0.49691059577E+03  0.00000000000E+00 0.  1.
         23    2    1    2    0    0 -0.31144161305E+03 -0.23633514001E+03 -0.38321382674E+03  0.55429987956E+03  0.86863932331E+02 0.  0.
         13    1    3    3    0    0 -0.27623402030E+03 -0.18124894397E+03 -0.28505826828E+03  0.43636524836E+03  0.00000000000E+00 0.  1.
        -13    1    3    3    0    0 -0.35207592749E+02 -0.55086196037E+02 -0.98155558457E+02  0.11793463120E+03  0.00000000000E+00 0. -1.
         22    1    1    2    0    0  0.31144161305E+03  0.23633514001E+03  0.13291274081E+04  0.13854348934E+04  0.00000000000E+00 0. -1.
<mgrwt>
<rscale>  0 0.16934635E+04</rscale>
<asrwt>0</asrwt>
<pdfrwt beam="1">  1        2 0.22197295E+00 0.16934635E+04</pdfrwt>
<pdfrwt beam="2">  1       -2 0.76447785E-01 0.16934635E+04</pdfrwt>
<totfact> 0.19927870E+01</totfact>
</mgrwt>
</event>
<event>
 6    1  0.1762360E-005  0.1274242E+04  0.7818608E-02  0.9050245E-01
          4   -1    0    0  501    0  0.00000000000E+00  0.00000000000E+00  0.23932408706E+03  0.23932408706E+03  0.00000000000E+00 0. -1.
         -4   -1    0    0    0  501 -0.00000000000E+00 -0.00000000000E+00 -0.16961235266E+04  0.16961235266E+04  0.00000000000E+00 0.  1.
         23    2    1    2    0    0 -0.22729423754E+03 -0.46101384367E+03 -0.12955096240E+04  0.13967354093E+04  0.91258880683E+02 0.  0.
         11    1    3    3    0    0 -0.14515429819E+03 -0.37888757050E+03 -0.10206457425E+04  0.10983366028E+04  0.00000000000E+00 0. -1.
        -11    1    3    3    0    0 -0.82139939352E+02 -0.82126273162E+02 -0.27486388146E+03  0.29839880649E+03  0.00000000000E+00 0.  1.
         22    1    1    2    0    0  0.22729423754E+03  0.46101384367E+03 -0.16128981550E+03  0.53871220429E+03  0.00000000000E+00 0. -1.
<mgrwt>
<rscale>  0 0.12742421E+04</rscale>
<asrwt>0</asrwt>
<pdfrwt beam="1">  1        4 0.36819090E-01 0.12742421E+04</pdfrwt>
<pdfrwt beam="2">  1       -4 0.26094208E+00 0.12742421E+04</pdfrwt>
<totfact> 0.76706036E-01</totfact>
</mgrwt>
</event>
<event>
 6    1  0.1762360E-005  0.1870855E+04  0.7818608E-02  0.8669501E-01
         -1   -1    0    0    0  501 -0.00000000000E+00  0.00000000000E+00  0.54356492022E+03  0.54356492022E+03  0.00000000000E+00 0.  1.
          1   -1    0    0  501    0  0.00000000000E+00 -0.00000000000E+00 -0.16097887338E+04  0.16097887338E+04  0.00000000000E+00 0. -1.
         23    2    1    2    0    0  0.61942111783E+03 -0.48928412621E+03  0.38964648558E+02  0.79522147555E+03  0.88189987907E+02 0.  0.
         13    1    3    3    0    0  0.37568669146E+03 -0.28428624527E+03  0.65406641284E+02  0.47564397202E+03  0.00000000000E+00 0.  1.
        -13    1    3    3    0    0  0.24373442637E+03 -0.20499788094E+03 -0.26441992726E+02  0.31957750354E+03  0.00000000000E+00 0. -1.
         22    1    1    2    0    0 -0.61942111783E+03  0.48928412621E+03 -0.11051884622E+04  0.13581321785E+04  0.00000000000E+00 0. -1.
<mgrwt>
<rscale>  0 0.18708551E+04</rscale>
<asrwt>0</asrwt>
<pdfrwt beam="1">  1        1 0.24765980E+00 0.18708551E+04</pdfrwt>
<pdfrwt beam="2">  1       -1 0.83625373E-01 0.18708551E+04</pdfrwt>
<totfact> 0.73085318E+00</totfact>
</mgrwt>
</event>
<event>
 6    1  0.1762360E-005  0.1381758E+04  0.7818608E-02  0.8967130E-01
          2   -1    0    0  501    0  0.00000000000E+00  0.00000000000E+00  0.70810035424E+03  0.70810035424E+03  0.00000000000E+00 0. -1.
         -2   -1    0    0    0  501 -0.00000000000E+00 -0.00000000000E+00 -0.67407605520E+03  0.67407605520E+03  0.00000000000E+00 0.  1.
         23    2    1    2    0    0 -0.51143528236E+03 -0.22508216224E+02 -0.44394270094E+03  0.68180142351E+03  0.75467817916E+02 0.  0.
         13    1    3    3    0    0 -0.20860518686E+03 -0.35037085878E+02 -0.21805706042E+03  0.30379697657E+03  0.00000000000E+00 0.  1.
        -13    1    3    3    0    0 -0.30283009550E+03  0.12528869653E+02 -0.22588564052E+03  0.37800444694E+03  0.00000000000E+00 0. -1.
         22    1    1    2    0    0  0.51143528236E+03  0.22508216224E+02  0.47796699998E+03  0.70037498592E+03  0.00000000000E+00 0. -1.
<mgrwt>
<rscale>  0 0.13817576E+04</rscale>
<asrwt>0</asrwt>
<pdfrwt beam="1">  1        2 0.10893852E+00 0.13817576E+04</pdfrwt>
<pdfrwt beam="2">  1       -2 0.10370401E+00 0.13817576E+04</pdfrwt>
<totfact> 0.29807135E+01</totfact>
</mgrwt>
</event>
<event>
 6    1  0.1762360E-005  0.1359856E+04  0.7818608E-02  0.8983400E-01
         -2   -1    0    0    0  501 -0.00000000000E+00  0.00000000000E+00  0.14631074400E+03  0.14631074400E+03  0.00000000000E+00 0.  1.
          2   -1    0    0  501    0  0.00000000000E+00 -0.00000000000E+00 -0.31597292411E+04  0.31597292411E+04  0.00000000000E+00 0. -1.
         23    2    1    2    0    0 -0.19386743562E+03  0.57807341641E+03 -0.22285780671E+04  0.23121949479E+04  0.89060758286E+02 0.  0.
         11    1    3    3    0    0 -0.11697838484E+03  0.23655167613E+03 -0.86191070501E+03  0.90140484878E+03  0.00000000000E+00 0.  1.
        -11    1    3    3    0    0 -0.76889050773E+02  0.34152174029E+03 -0.13666673621E+04  0.14107900992E+04  0.00000000000E+00 0. -1.
         22    1    1    2    0    0  0.19386743562E+03 -0.57807341641E+03 -0.78484042999E+03  0.99384503717E+03  0.00000000000E+00 0.  1.
<mgrwt>
<rscale>  0 0.13598564E+04</rscale>
<asrwt>0</asrwt>
<pdfrwt beam="1">  1        2 0.48611211E+00 0.13598564E+04</pdfrwt>
<pdfrwt beam="2">  1       -2 0.22509349E-01 0.13598564E+04</pdfrwt>
<totfact> 0.23594575E+01</totfact>
</mgrwt>
</event>
<event>
 6    1  0.1762360E-005  0.1010269E+04  0.7818608E-02  0.9297353E-01
         -2   -1    0    0    0  501 -0.00000000000E+00  0.00000000000E+00  0.32557954515E+03  0.32557954515E+03  0.00000000000E+00 0. -1.
          2   -1    0    0  501    0  0.00000000000E+00 -0.00000000000E+00 -0.78371235919E+03  0.78371235919E+03  0.00000000000E+00 0.  1.
         23    2    1    2    0    0 -0.49105719535E+03 -0.55882724831E+02 -0.14139977805E+03  0.52228265047E+03  0.92332127241E+02 0.  0.
         13    1    3    3    0    0 -0.16466590568E+03  0.23915576663E+02 -0.37318047555E+02  0.17052698312E+03  0.00000000000E+00 0. -1.
        -13    1    3    3    0    0 -0.32639128967E+03 -0.79798301494E+02 -0.10408173049E+03  0.35175566735E+03  0.00000000000E+00 0.  1.
         22    1    1    2    0    0  0.49105719535E+03  0.55882724831E+02 -0.31673303599E+03  0.58700925387E+03  0.00000000000E+00 0. -1.
<mgrwt>
<rscale>  0 0.10102687E+04</rscale>
<asrwt>0</asrwt>
<pdfrwt beam="1">  1        2 0.12057113E+00 0.10102687E+04</pdfrwt>
<pdfrwt beam="2">  1       -2 0.50089161E-01 0.10102687E+04</pdfrwt>
<totfact> 0.13319017E+02</totfact>
</mgrwt>
</event>
<event>
 6    1  0.1762360E-005  0.4223332E+04  0.7818608E-02  0.7960949E-01
          1   -1    0    0  501    0  0.00000000000E+00  0.00000000000E+00  0.29074318364E+04  0.29074318364E+04  0.00000000000E+00 0. -1.
         -1   -1    0    0    0  501 -0.00000000000E+00 -0.00000000000E+00 -0.15337017713E+04  0.15337017713E+04  0.00000000000E+00 0.  1.
         23    2    1    2    0    0  0.33600143831E+03 -0.13794707906E+04  0.23295385852E+04  0.27295826865E+04  0.89638126782E+02 0.  0.
         11    1    3    3    0    0  0.24234361943E+03 -0.10279506109E+04  0.18041559073E+04  0.20905481162E+04  0.00000000000E+00 0.  1.
        -11    1    3    3    0    0  0.93657818874E+02 -0.35152017974E+03  0.52538267789E+03  0.63903457029E+03  0.00000000000E+00 0. -1.
         22    1    1    2    0    0 -0.33600143831E+03  0.13794707906E+04 -0.95580852014E+03  0.17115509212E+04  0.00000000000E+00 0. -1.
<mgrwt>
<rscale>  0 0.42233320E+04</rscale>
<asrwt>0</asrwt>
<pdfrwt beam="1">  1        1 0.44729720E+00 0.42233320E+04</pdfrwt>
<pdfrwt beam="2">  1       -1 0.23595412E+00 0.42233320E+04</pdfrwt>
<totfact> 0.46218173E-02</totfact>
</mgrwt>
</event>
<event>
 6    1  0.1762360E-005  0.1705877E+04  0.7818608E-02  0.8758019E-01
         -1   -1    0    0    0  501 -0.00000000000E+00  0.00000000000E+00  0.45993486410E+03  0.45993486410E+03  0.00000000000E+00 0. -1.
          1   -1    0    0  501    0  0.00000000000E+00 -0.00000000000E+00 -0.15817553307E+04  0.15817553307E+04  0.00000000000E+00 0.  1.
         23    2    1    2    0    0  0.71162647464E+03  0.41245196003E+03 -0.82433083089E+03  0.11670308657E+04  0.76882142978E+02 0.  0.
         13    1    3    3    0    0  0.27217190815E+03  0.19808796179E+03 -0.31579099126E+03  0.46156293000E+03  0.00000000000E+00 0. -1.
        -13    1    3    3    0    0  0.43945456649E+03  0.21436399824E+03 -0.50853983962E+03  0.70546793566E+03  0.00000000000E+00 0.  1.
         22    1    1    2    0    0 -0.71162647464E+03 -0.41245196003E+03 -0.29748963574E+03  0.87465932917E+03  0.00000000000E+00 0.  1.
<mgrwt>
<rscale>  0 0.17058774E+04</rscale>
<asrwt>0</asrwt>
<pdfrwt beam="1">  1        1 0.24334698E+00 0.17058774E+04</pdfrwt>
<pdfrwt beam="2">  1       -1 0.70759209E-01 0.17058774E+04</pdfrwt>
<totfact> 0.11023344E+01</totfact>
</mgrwt>
</event>
<event>
 6    1  0.1762360E-005  0.3048974E+04  0.7818608E-02  0.8229883E-01
          1   -1    0    0  501    0  0.00000000000E+00  0.00000000000E+00  0.20727926115E+04  0.20727926115E+04  0.00000000000E+00 0. -1.
         -1   -1    0    0    0  501 -0.00000000000E+00 -0.00000000000E+00 -0.11212217359E+04  0.11212217359E+04  0.00000000000E+00 0.  1.
         23    2    1    2    0    0  0.96233828473E+03  0.73257290921E+03  0.14462261176E+04  0.18873231635E+04  0.87525416961E+02 0.  0.
         13    1    3    3    0    0  0.38030737794E+03  0.24969632855E+03  0.58747612701E+03  0.74304115499E+03  0.00000000000E+00 0.  1.
        -13    1    3    3    0    0  0.58203090679E+03  0.48287658066E+03  0.85874999060E+03  0.11442820085E+04  0.00000000000E+00 0. -1.
         22    1    1    2    0    0 -0.96233828473E+03 -0.73257290921E+03 -0.49465524197E+03  0.13066911839E+04  0.00000000000E+00 0.  1.
<mgrwt>
<rscale>  0 0.30489737E+04</rscale>
<asrwt>0</asrwt>
<pdfrwt beam="1">  1        1 0.31889117E+00 0.30489737E+04</pdfrwt>
<pdfrwt beam="2">  1       -1 0.17249565E+00 0.30489737E+04</pdfrwt>
<totfact> 0.53166980E-01</totfact>
</mgrwt>
</event>
<event>
 6    1  0.1762360E-005  0.2556890E+04  0.7818608E-02  0.8382994E-01
          1   -1    0    0  501    0  0.00000000000E+00  0.00000000000E+00  0.15226738242E+04  0.15226738242E+04  0.00000000000E+00 0. -1.
         -1   -1    0    0    0  501 -0.00000000000E+00 -0.00000000000E+00 -0.10733894107E+04  0.10733894107E+04  0.00000000000E+00 0.  1.
         23    2    1    2    0    0  0.37522777321E+03  0.20784120242E+03 -0.99699556939E+03  0.10875143839E+04  0.68509288275E+02 0.  0.
         11    1    3    3    0    0  0.10047371933E+03  0.54108926893E+02 -0.19504739404E+03  0.22597838429E+03  0.00000000000E+00 0. -1.
        -11    1    3    3    0    0  0.27475405388E+03  0.15373227553E+03 -0.80194817535E+03  0.86153599961E+03  0.00000000000E+00 0.  1.
         22    1    1    2    0    0 -0.37522777321E+03 -0.20784120242E+03  0.14462799828E+04  0.15085488510E+04  0.00000000000E+00 0. -1.
<mgrwt>
<rscale>  0 0.25568903E+04</rscale>
<asrwt>0</asrwt>
<pdfrwt beam="1">  1        1 0.23425751E+00 0.25568903E+04</pdfrwt>
<pdfrwt beam="2">  1       -1 0.16513683E+00 0.25568903E+04</pdfrwt>
<totfact> 0.14912680E+00</totfact>
</mgrwt>
</event>
<event>
 6    1  0.1762360E-005  0.2298958E+04  0.7818608E-02  0.8478332E-01
          2   -1    0    0  501    0  0.00000000000E+00  0.00000000000E+00  0.92908034194E+03  0.92908034194E+03  0.00000000000E+00 0. -1.
         -2   -1    0    0    0  501 -0.00000000000E+00 -0.00000000000E+00 -0.14221607814E+04  0.14221607814E+04  0.00000000000E+00 0.  1.
         23    2    1    2    0    0 -0.63583196762E+03  0.46307526582E+03 -0.11016930035E+04  0.13566908501E+04  0.90341551263E+02 0.  0.
         13    1    3    3    0    0 -0.35160097271E+03  0.20098395564E+03 -0.57650034808E+03  0.70453562420E+03  0.00000000000E+00 0.  1.
        -13    1    3    3    0    0 -0.28423099491E+03  0.26209131018E+03 -0.52519265547E+03  0.65215522592E+03  0.00000000000E+00 0. -1.
         22    1    1    2    0    0  0.63583196762E+03 -0.46307526582E+03  0.60861256406E+03  0.99455027324E+03  0.00000000000E+00 0. -1.
<mgrwt>
<rscale>  0 0.22989577E+04</rscale>
<asrwt>0</asrwt>
<pdfrwt beam="1">  1        2 0.14293544E+00 0.22989577E+04</pdfrwt>
<pdfrwt beam="2">  1       -2 0.21879397E+00 0.22989577E+04</pdfrwt>
<totfact> 0.25559038E+00</totfact>
</mgrwt>
</event>
<event>
 6    1  0.1762360E-005  0.1874169E+04  0.7818608E-02  0.8667822E-01
          1   -1    0    0  501    0  0.00000000000E+00  0.00000000000E+00  0.24052615758E+04  0.24052615758E+04  0.00000000000E+00 0. -1.
         -1   -1    0    0    0  501 -0.00000000000E+00 -0.00000000000E+00 -0.36508593268E+03  0.36508593268E+03  0.00000000000E+00 0.  1.
         23    2    1    2    0    0  0.74937009856E+03  0.31742431111E+03  0.17025212203E+04  0.18892548646E+04  0.91606222364E+02 0.  0.
         13    1    3    3    0    0  0.24838102089E+03  0.14530592899E+03  0.65430920465E+03  0.71479191366E+03  0.00000000000E+00 0.  1.
        -13    1    3    3    0    0  0.50098907766E+03  0.17211838212E+03  0.10482120156E+04  0.11744629509E+04  0.00000000000E+00 0. -1.
         22    1    1    2    0    0 -0.74937009856E+03 -0.31742431111E+03  0.33765442287E+03  0.88109264392E+03  0.00000000000E+00 0.  1.
<mgrwt>
<rscale>  0 0.18741688E+04</rscale>
<asrwt>0</asrwt>
<pdfrwt beam="1">  1        1 0.37004023E+00 0.18741688E+04</pdfrwt>
<pdfrwt beam="2">  1       -1 0.56167068E-01 0.18741688E+04</pdfrwt>
<totfact> 0.47408204E+00</totfact>
</mgrwt>
</event>
<event>
 6    1  0.1762360E-005  0.5170248E+04  0.7818608E-02  0.7802768E-01
         -1   -1    0    0    0  501 -0.00000000000E+00  0.00000000000E+00  0.15981344263E+04  0.15981344263E+04  0.00000000000E+00 0.  1.
          1   -1    0    0  501    0  0.00000000000E+00 -0.00000000000E+00 -0.41816669654E+04  0.41816669654E+04  0.00000000000E+00 0. -1.
         23    2    1    2    0    0 -0.10869288428E+04 -0.13826894549E+04  0.82450940171E+03  0.19447010920E+04  0.93819751412E+02 0.  0.
         13    1    3    3    0    0 -0.91161982141E+03 -0.11632360712E+04  0.72995778689E+03  0.16483346828E+04  0.00000000000E+00 0. -1.
        -13    1    3    3    0    0 -0.17530902135E+03 -0.21945338374E+03  0.94551614818E+02  0.29636640914E+03  0.00000000000E+00 0.  1.
         22    1    1    2    0    0  0.10869288428E+04  0.13826894549E+04 -0.34080419409E+04  0.38351002997E+04  0.00000000000E+00 0. -1.
<mgrwt>
<rscale>  0 0.51702479E+04</rscale>
<asrwt>0</asrwt>
<pdfrwt beam="1">  1        1 0.64333336E+00 0.51702479E+04</pdfrwt>
<pdfrwt beam="2">  1       -1 0.24586684E+00 0.51702479E+04</pdfrwt>
<totfact> 0.34598878E-03</totfact>
</mgrwt>
</event>
<event>
 6    1  0.1762360E-005  0.1228056E+04  0.7818608E-02  0.9088647E-01
          2   -1    0    0  501    0  0.00000000000E+00  0.00000000000E+00  0.36115268086E+04  0.36115268086E+04  0.00000000000E+00 0. -1.
         -2   -1    0    0    0  501 -0.00000000000E+00 -0.00000000000E+00 -0.10439644303E+03  0.10439644303E+03  0.00000000000E+00 0.  1.
         23    2    1    2    0    0 -0.50534133308E+03 -0.86206144164E+02  0.27675252589E+04  0.28160248818E+04  0.89435530315E+02 0.  0.
         11    1    3    3    0    0 -0.20994274266E+03  0.86229418536E+01  0.11291131743E+04  0.11484976581E+04  0.00000000000E+00 0.  1.
        -11    1    3    3    0    0 -0.29539859042E+03 -0.94829086018E+02  0.16384120846E+04  0.16675272237E+04  0.00000000000E+00 0. -1.
         22    1    1    2    0    0  0.50534133308E+03  0.86206144164E+02  0.73960510664E+03  0.89989836981E+03  0.00000000000E+00 0.  1.
<mgrwt>
<rscale>  0 0.12280563E+04</rscale>
<asrwt>0</asrwt>
<pdfrwt beam="1">  1        2 0.55561941E+00 0.12280563E+04</pdfrwt>
<pdfrwt beam="2">  1       -2 0.16060994E-01 0.12280563E+04</pdfrwt>
<totfact> 0.21426374E+01</totfact>
</mgrwt>
</event>
<event>
 6    1  0.1762360E-005  0.1754657E+04  0.7818608E-02  0.8730791E-01
         -1   -1    0    0    0  501 -0.00000000000E+00  0.00000000000E+00  0.44422355722E+03  0.44422355722E+03  0.00000000000E+00 0. -1.
          1   -1    0    0  501    0  0.00000000000E+00 -0.00000000000E+00 -0.17326985999E+04  0.17326985999E+04  0.00000000000E+00 0.  1.
         23    2    1    2    0    0 -0.71125098409E+03 -0.18311107765E+03 -0.56204176856E+02  0.74238421205E+03  0.92562301534E+02 0.  0.
         11    1    3    3    0    0 -0.44732241154E+03 -0.14039027239E+03 -0.73040218858E+02  0.47449092933E+03  0.00000000000E+00 0. -1.
        -11    1    3    3    0    0 -0.26392857255E+03 -0.42720805260E+02  0.16836042002E+02  0.26789328271E+03  0.00000000000E+00 0.  1.
         22    1    1    2    0    0  0.71125098409E+03  0.18311107765E+03 -0.12322708659E+04  0.14345379451E+04  0.00000000000E+00 0.  1.
<mgrwt>
<rscale>  0 0.17546573E+04</rscale>
<asrwt>0</asrwt>
<pdfrwt beam="1">  1        1 0.26656902E+00 0.17546573E+04</pdfrwt>
<pdfrwt beam="2">  1       -1 0.68342084E-01 0.17546573E+04</pdfrwt>
<totfact> 0.92937579E+00</totfact>
</mgrwt>
</event>
<event>
 6    1  0.1762360E-005  0.3286409E+04  0.7818608E-02  0.8166362E-01
         -1   -1    0    0    0  501 -0.00000000000E+00  0.00000000000E+00  0.12358011389E+04  0.12358011389E+04  0.00000000000E+00 0.  1.
          1   -1    0    0  501    0  0.00000000000E+00 -0.00000000000E+00 -0.21849148615E+04  0.21849148615E+04  0.00000000000E+00 0. -1.
         23    2    1    2    0    0  0.10755183652E+04 -0.92761986543E+03 -0.13324100665E+04  0.19496162567E+04  0.92024966979E+02 0.  0.
         13    1    3    3    0    0  0.68763093809E+03 -0.53505873505E+03 -0.80343669254E+03  0.11851728464E+04  0.00000000000E+00 0.  1.
        -13    1    3    3    0    0  0.38788742709E+03 -0.39256113039E+03 -0.52897337399E+03  0.76444341031E+03  0.00000000000E+00 0. -1.
         22    1    1    2    0    0 -0.10755183652E+04  0.92761986543E+03  0.38329634397E+03  0.14710997437E+04  0.00000000000E+00 0.  1.
<mgrwt>
<rscale>  0 0.32864085E+04</rscale>
<asrwt>0</asrwt>
<pdfrwt beam="1">  1        1 0.33614074E+00 0.32864085E+04</pdfrwt>
<pdfrwt beam="2">  1       -1 0.19012325E+00 0.32864085E+04</pdfrwt>
<totfact> 0.32672880E-01</totfact>
</mgrwt>
</event>
<event>
 6    1  0.1762360E-005  0.1916510E+04  0.7818608E-02  0.8646682E-01
          2   -1    0    0  501    0  0.00000000000E+00  0.00000000000E+00  0.12994285914E+04  0.12994285914E+04  0.00000000000E+00 0. -1.
         -2   -1    0    0    0  501 -0.00000000000E+00 -0.00000000000E+00 -0.70665878196E+03  0.70665878196E+03  0.00000000000E+00 0.  1.
         23    2    1    2    0    0 -0.35710217172E+03 -0.67758062020E+03  0.89606738166E+03  0.11822992482E+04  0.90869697114E+02 0.  0.
         11    1    3    3    0    0 -0.12041423864E+03 -0.15784573597E+03  0.26614061093E+03  0.33203266408E+03  0.00000000000E+00 0. -1.
        -11    1    3    3    0    0 -0.23668793307E+03 -0.51973488423E+03  0.62992677074E+03  0.85026658410E+03  0.00000000000E+00 0.  1.
         22    1    1    2    0    0  0.35710217172E+03  0.67758062020E+03 -0.30329757220E+03  0.82378812520E+03  0.00000000000E+00 0.  1.
<mgrwt>
<rscale>  0 0.19165100E+04</rscale>
<asrwt>0</asrwt>
<pdfrwt beam="1">  1        2 0.19991209E+00 0.19165100E+04</pdfrwt>
<pdfrwt beam="2">  1       -2 0.10871674E+00 0.19165100E+04</pdfrwt>
<totfact> 0.10461652E+01</totfact>
</mgrwt>
</event>
<event>
 6    1  0.1762360E-005  0.8788731E+03  0.7818608E-02  0.9452383E-01
          2   -1    0    0  501    0  0.00000000000E+00  0.00000000000E+00  0.17019095909E+04  0.17019095909E+04  0.00000000000E+00 0.  1.
         -2   -1    0    0    0  501 -0.00000000000E+00 -0.00000000000E+00 -0.11346341440E+03  0.11346341440E+03  0.00000000000E+00 0. -1.
         23    2    1    2    0    0  0.31300283896E+03 -0.27301967738E+03  0.10660994730E+04  0.11480225726E+04  0.94218996440E+02 0.  0.
         11    1    3    3    0    0  0.15868378102E+03 -0.77353574887E+02  0.42640230738E+03  0.46150086202E+03  0.00000000000E+00 0. -1.
        -11    1    3    3    0    0  0.15431905794E+03 -0.19566610249E+03  0.63969716567E+03  0.68652171056E+03  0.00000000000E+00 0.  1.
         22    1    1    2    0    0 -0.31300283896E+03  0.27301967738E+03  0.52234670343E+03  0.66735043269E+03  0.00000000000E+00 0. -1.
<mgrwt>
<rscale>  0 0.87887308E+03</rscale>
<asrwt>0</asrwt>
<pdfrwt beam="1">  1        2 0.26183223E+00 0.87887308E+03</pdfrwt>
<pdfrwt beam="2">  1       -2 0.17455911E-01 0.87887308E+03</pdfrwt>
<totfact> 0.26666449E+02</totfact>
</mgrwt>
</event>
<event>
 6    1  0.1762360E-005  0.4511047E+04  0.7818608E-02  0.7908706E-01
         -2   -1    0    0    0  501 -0.00000000000E+00  0.00000000000E+00  0.17343365007E+04  0.17343365007E+04  0.00000000000E+00 0.  1.
          2   -1    0    0  501    0  0.00000000000E+00 -0.00000000000E+00 -0.29333329658E+04  0.29333329658E+04  0.00000000000E+00 0. -1.
         23    2    1    2    0    0 -0.18851350872E+04  0.12366821000E+04 -0.61179152562E+03  0.23378783697E+04  0.90936720620E+02 0.  0.
         11    1    3    3    0    0 -0.73284483760E+03  0.49204099822E+03 -0.28455914960E+03  0.92743722675E+03  0.00000000000E+00 0.  1.
        -11    1    3    3    0    0 -0.11522902496E+04  0.74464110180E+03 -0.32723237602E+03  0.14104411429E+04  0.00000000000E+00 0. -1.
         22    1    1    2    0    0  0.18851350872E+04 -0.12366821000E+04 -0.58720493952E+03  0.23297910967E+04  0.00000000000E+00 0.  1.
<mgrwt>
<rscale>  0 0.45110471E+04</rscale>
<asrwt>0</asrwt>
<pdfrwt beam="1">  1        2 0.45128199E+00 0.45110471E+04</pdfrwt>
<pdfrwt beam="2">  1       -2 0.26682100E+00 0.45110471E+04</pdfrwt>
<totfact> 0.73486536E-02</totfact>
</mgrwt>
</event>
<event>
 6    1  0.1762360E-005  0.2735122E+04  0.7818608E-02  0.8323698E-01
         -1   -1    0    0    0  501 -0.00000000000E+00  0.00000000000E+00  0.88796104336E+03  0.88796104336E+03  0.00000000000E+00 0.  1.
          1   -1    0    0  501    0  0.00000000000E+00 -0.00000000000E+00 -0.21061998388E+04  0.21061998388E+04  0.00000000000E+00 0. -1.
         23    2    1    2    0    0 -0.13475124937E+04 -0.16883609673E+03 -0.44879427401E+03  0.14332827896E+04  0.92669879298E+02 0.  0.
         11    1    3    3    0    0 -0.64945727144E+03 -0.11304051599E+03 -0.18181063140E+03  0.68383332134E+03  0.00000000000E+00 0.  1.
        -11    1    3    3    0    0 -0.69805522223E+03 -0.55795580744E+02 -0.26698364261E+03  0.74944946831E+03  0.00000000000E+00 0. -1.
         22    1    1    2    0    0  0.13475124937E+04  0.16883609673E+03 -0.76944452146E+03  0.15608780925E+04  0.00000000000E+00 0. -1.
<mgrwt>
<rscale>  0 0.27351222E+04</rscale>
<asrwt>0</asrwt>
<pdfrwt beam="1">  1        1 0.32403074E+00 0.27351222E+04</pdfrwt>
<pdfrwt beam="2">  1       -1 0.13660939E+00 0.27351222E+04</pdfrwt>
<totfact> 0.98148628E-01</totfact>
</mgrwt>
</event>
<event>
 6    1  0.1762360E-005  0.1286616E+04  0.7818608E-02  0.9040247E-01
         -1   -1    0    0    0  501 -0.00000000000E+00  0.00000000000E+00  0.19233433505E+03  0.19233433505E+03  0.00000000000E+00 0.  1.
          1   -1    0    0  501    0  0.00000000000E+00 -0.00000000000E+00 -0.21516954404E+04  0.21516954404E+04  0.00000000000E+00 0. -1.
         23    2    1    2    0    0  0.19751152634E+03  0.41118938644E+03 -0.16688358079E+03  0.49441814307E+03  0.92258636999E+02 0.  0.
         11    1    3    3    0    0  0.18287896237E+03  0.28841210696E+03 -0.12964194519E+03  0.36528522044E+03  0.00000000000E+00 0. -1.
        -11    1    3    3    0    0  0.14632563969E+02  0.12277727948E+03 -0.37241635603E+02  0.12913292263E+03  0.00000000000E+00 0.  1.
         22    1    1    2    0    0 -0.19751152634E+03 -0.41118938644E+03 -0.17924775245E+04  0.18496116324E+04  0.00000000000E+00 0. -1.
<mgrwt>
<rscale>  0 0.12866156E+04</rscale>
<asrwt>0</asrwt>
<pdfrwt beam="1">  1        1 0.33103007E+00 0.12866156E+04</pdfrwt>
<pdfrwt beam="2">  1       -1 0.29589897E-01 0.12866156E+04</pdfrwt>
<totfact> 0.24215137E+01</totfact>
</mgrwt>
</event>
<event>
 6    1  0.1762360E-005  0.3179748E+04  0.7818608E-02  0.8194186E-01
          1   -1    0    0  501    0  0.00000000000E+00  0.00000000000E+00  0.32447468430E+04  0.32447468430E+04  0.00000000000E+00 0. -1.
         -1   -1    0    0    0  501 -0.00000000000E+00 -0.00000000000E+00 -0.77901278932E+03  0.77901278932E+03  0.00000000000E+00 0.  1.
         23    2    1    2    0    0  0.79398479312E+03 -0.26627444643E+03 -0.47582878454E+03  0.96531135523E+03  0.64023806537E+02 0.  0.
         13    1    3    3    0    0  0.47489874777E+02 -0.26398452183E+02 -0.17446897062E+02  0.57066283400E+02  0.00000000000E+00 0. -1.
        -13    1    3    3    0    0  0.74649491835E+03 -0.23987599425E+03 -0.45838188747E+03  0.90824507183E+03  0.00000000000E+00 0.  1.
         22    1    1    2    0    0 -0.79398479312E+03  0.26627444643E+03  0.29415628383E+04  0.30584482771E+04  0.00000000000E+00 0.  1.
<mgrwt>
<rscale>  0 0.31797480E+04</rscale>
<asrwt>0</asrwt>
<pdfrwt beam="1">  1        1 0.49919182E+00 0.31797480E+04</pdfrwt>
<pdfrwt beam="2">  1       -1 0.11984812E+00 0.31797480E+04</pdfrwt>
<totfact> 0.20450493E-01</totfact>
</mgrwt>
</event>
<event>
 6    1  0.1762360E-005  0.2721651E+04  0.7818608E-02  0.8328014E-01
          2   -1    0    0  501    0  0.00000000000E+00  0.00000000000E+00  0.14894661301E+04  0.14894661301E+04  0.00000000000E+00 0. -1.
         -2   -1    0    0    0  501 -0.00000000000E+00 -0.00000000000E+00 -0.12432956216E+04  0.12432956216E+04  0.00000000000E+00 0.  1.
         23    2    1    2    0    0  0.10728958220E+03  0.13485763845E+04  0.25635497080E+03  0.13798859102E+04  0.90542448310E+02 0.  0.
         13    1    3    3    0    0  0.29000881264E+02  0.89216325878E+03  0.15902662116E+03  0.90668947147E+03  0.00000000000E+00 0. -1.
        -13    1    3    3    0    0  0.78288700941E+02  0.45641312570E+03  0.97328349634E+02  0.47319643875E+03  0.00000000000E+00 0.  1.
         22    1    1    2    0    0 -0.10728958220E+03 -0.13485763845E+04 -0.10184462316E+02  0.13528758415E+04  0.00000000000E+00 0. -1.
<mgrwt>
<rscale>  0 0.27216515E+04</rscale>
<asrwt>0</asrwt>
<pdfrwt beam="1">  1        2 0.22914864E+00 0.27216515E+04</pdfrwt>
<pdfrwt beam="2">  1       -2 0.19127625E+00 0.27216515E+04</pdfrwt>
<totfact> 0.17130037E+00</totfact>
</mgrwt>
</event>
<event>
 6    1  0.1762360E-005  0.3278963E+04  0.7818608E-02  0.8168269E-01
          2   -1    0    0  501    0  0.00000000000E+00  0.00000000000E+00  0.36569275752E+04  0.36569275752E+04  0.00000000000E+00 0. -1.
         -2   -1    0    0    0  501 -0.00000000000E+00 -0.00000000000E+00 -0.73501575835E+03  0.73501575835E+03  0.00000000000E+00 0.  1.
         23    2    1    2    0    0 -0.23319961605E+03  0.44583975038E+03  0.35503687320E+04  0.35868885292E+04  0.86579696433E+02 0.  0.
         11    1    3    3    0    0 -0.17315866013E+03  0.35846008629E+03  0.25452649328E+04  0.25762086743E+04  0.00000000000E+00 0. -1.
        -11    1    3    3    0    0 -0.60040955919E+02  0.87379664083E+02  0.10051037991E+04  0.10106798549E+04  0.00000000000E+00 0.  1.
         22    1    1    2    0    0  0.23319961605E+03 -0.44583975038E+03 -0.62845691510E+03  0.80505480439E+03  0.00000000000E+00 0.  1.
<mgrwt>
<rscale>  0 0.32789629E+04</rscale>
<asrwt>0</asrwt>
<pdfrwt beam="1">  1        2 0.56260423E+00 0.32789629E+04</pdfrwt>
<pdfrwt beam="2">  1       -2 0.11307935E+00 0.32789629E+04</pdfrwt>
<totfact> 0.32219784E-01</totfact>
</mgrwt>
</event>
<event>
 6    1  0.1762360E-005  0.4611177E+04  0.7818608E-02  0.7891457E-01
         -1   -1    0    0    0  501 -0.00000000000E+00  0.00000000000E+00  0.16191176922E+04  0.16191176922E+04  0.00000000000E+00 0.  1.
          1   -1    0    0  501    0  0.00000000000E+00 -0.00000000000E+00 -0.32831074763E+04  0.32831074763E+04  0.00000000000E+00 0. -1.
         23    2    1    2    0    0 -0.52875912227E+03  0.22093645165E+04 -0.12450267917E+04  0.25921585537E+04  0.91194733150E+02 0.  0.
         13    1    3    3    0    0 -0.36030636993E+03  0.16148096043E+04 -0.94223062590E+03  0.19040034902E+04  0.00000000000E+00 0.  1.
        -13    1    3    3    0    0 -0.16845275235E+03  0.59455491222E+03 -0.30279616581E+03  0.68815506352E+03  0.00000000000E+00 0. -1.
         22    1    1    2    0    0  0.52875912227E+03 -0.22093645165E+04 -0.41896299239E+03  0.23100666149E+04  0.00000000000E+00 0.  1.
<mgrwt>
<rscale>  0 0.46111766E+04</rscale>
<asrwt>0</asrwt>
<pdfrwt beam="1">  1        1 0.50509345E+00 0.46111766E+04</pdfrwt>
<pdfrwt beam="2">  1       -1 0.24909503E+00 0.46111766E+04</pdfrwt>
<totfact> 0.19346938E-02</totfact>
</mgrwt>
</event>
<event>
 6    1  0.1762360E-005  0.3744483E+03  0.7818608E-02  0.1053005E+00
          2   -1    0    0  501    0  0.00000000000E+00  0.00000000000E+00  0.95012919880E+03  0.95012919880E+03  0.00000000000E+00 0. -1.
         -2   -1    0    0    0  501 -0.00000000000E+00 -0.00000000000E+00 -0.36892745606E+02  0.36892745606E+02  0.00000000000E+00 0.  1.
         23    2    1    2    0    0  0.13699646204E+03  0.45671452210E+02  0.74768259039E+03  0.76733581911E+03  0.94451528059E+02 0.  0.
         13    1    3    3    0    0  0.64714572416E+01  0.38734537555E+02  0.23468185968E+03  0.23794499243E+03  0.00000000000E+00 0. -1.
        -13    1    3    3    0    0  0.13052500480E+03  0.69369146554E+01  0.51300073071E+03  0.52939082668E+03  0.00000000000E+00 0.  1.
         22    1    1    2    0    0 -0.13699646204E+03 -0.45671452210E+02  0.16555386280E+03  0.21968612530E+03  0.00000000000E+00 0.  1.
<mgrwt>
<rscale>  0 0.37444826E+03</rscale>
<asrwt>0</asrwt>
<pdfrwt beam="1">  1        2 0.14617370E+00 0.37444826E+03</pdfrwt>
<pdfrwt beam="2">  1       -2 0.56758077E-02 0.37444826E+03</pdfrwt>
<totfact> 0.45688964E+03</totfact>
</mgrwt>
</event>
<event>
 6    1  0.1762360E-005  0.7634446E+03  0.7818608E-02  0.9614491E-01
         -2   -1    0    0    0  501 -0.00000000000E+00  0.00000000000E+00  0.90485543195E+02  0.90485543195E+02  0.00000000000E+00 0.  1.
          2   -1    0    0  501    0  0.00000000000E+00 -0.00000000000E+00 -0.16103335276E+04  0.16103335276E+04  0.00000000000E+00 0. -1.
         23    2    1    2    0    0 -0.20941386642E+03 -0.30482163709E+03 -0.61427433047E+03  0.72264012981E+03  0.90030029692E+02 0.  0.
         11    1    3    3    0    0 -0.10973955551E+03 -0.15636155448E+03 -0.40205441301E+03  0.44512858455E+03  0.00000000000E+00 0.  1.
        -11    1    3    3    0    0 -0.99674310904E+02 -0.14846008261E+03 -0.21221991746E+03  0.27751154525E+03  0.00000000000E+00 0. -1.
         22    1    1    2    0    0  0.20941386642E+03  0.30482163709E+03 -0.90557365392E+03  0.97817894097E+03  0.00000000000E+00 0. -1.
<mgrwt>
<rscale>  0 0.76344457E+03</rscale>
<asrwt>0</asrwt>
<pdfrwt beam="1">  1        2 0.24774360E+00 0.76344457E+03</pdfrwt>
<pdfrwt beam="2">  1       -2 0.13920854E-01 0.76344457E+03</pdfrwt>
<totfact> 0.44330552E+02</totfact>
</mgrwt>
</event>
<event>
 6    1  0.1762360E-005  0.3577424E+03  0.7818608E-02  0.1059481E+00
         -1   -1    0    0    0  501 -0.00000000000E+00  0.00000000000E+00  0.89819202205E+02  0.89819202205E+02  0.00000000000E+00 0.  1.
          1   -1    0    0  501    0  0.00000000000E+00 -0.00000000000E+00 -0.35621458250E+03  0.35621458250E+03  0.00000000000E+00 0. -1.
         23    2    1    2    0    0  0.29862919402E+02 -0.16331336010E+03 -0.16879523378E+03  0.25344916397E+03  0.90452198582E+02 0.  0.
         11    1    3    3    0    0 -0.15299674971E+02 -0.26914174680E+02  0.10562011471E+01  0.30976901295E+02  0.00000000000E+00 0.  1.
        -11    1    3    3    0    0  0.45162594374E+02 -0.13639918542E+03 -0.16985143492E+03  0.22247226267E+03  0.00000000000E+00 0. -1.
         22    1    1    2    0    0 -0.29862919402E+02  0.16331336010E+03 -0.97600146519E+02  0.19258462073E+03  0.00000000000E+00 0. -1.
<mgrwt>
<rscale>  0 0.35774242E+03</rscale>
<asrwt>0</asrwt>
<pdfrwt beam="1">  1        1 0.54802245E-01 0.35774242E+03</pdfrwt>
<pdfrwt beam="2">  1       -1 0.13818339E-01 0.35774242E+03</pdfrwt>
<totfact> 0.25866358E+03</totfact>
</mgrwt>
</event>
<event>
 6    1  0.1762360E-005  0.2104081E+04  0.7818608E-02  0.8559448E-01
         -2   -1    0    0    0  501 -0.00000000000E+00  0.00000000000E+00  0.61893606293E+03  0.61893606293E+03  0.00000000000E+00 0.  1.
          2   -1    0    0  501    0  0.00000000000E+00 -0.00000000000E+00 -0.17882129582E+04  0.17882129582E+04  0.00000000000E+00 0. -1.
         23    2    1    2    0    0  0.72124216022E+03  0.10773845913E+03 -0.14503575392E+04  0.16256094139E+04  0.85271012461E+02 0.  0.
         11    1    3    3    0    0  0.39766791379E+03  0.89852423165E+02 -0.87344403134E+03  0.96390751812E+03  0.00000000000E+00 0.  1.
        -11    1    3    3    0    0  0.32357424644E+03  0.17886035969E+02 -0.57691350790E+03  0.66170189575E+03  0.00000000000E+00 0. -1.
         22    1    1    2    0    0 -0.72124216022E+03 -0.10773845913E+03  0.28108064399E+03  0.78153960724E+03  0.00000000000E+00 0.  1.
<mgrwt>
<rscale>  0 0.21040813E+04</rscale>
<asrwt>0</asrwt>
<pdfrwt beam="1">  1        2 0.27510968E+00 0.21040813E+04</pdfrwt>
<pdfrwt beam="2">  1       -2 0.95220934E-01 0.21040813E+04</pdfrwt>
<totfact> 0.74803943E+00</totfact>
</mgrwt>
</event>
<event>
 6    1  0.1762360E-005  0.2025872E+04  0.7818608E-02  0.8594619E-01
          2   -1    0    0  501    0  0.00000000000E+00  0.00000000000E+00  0.14907827235E+04  0.14907827235E+04  0.00000000000E+00 0. -1.
         -2   -1    0    0    0  501 -0.00000000000E+00 -0.00000000000E+00 -0.68825550445E+03  0.68825550445E+03  0.00000000000E+00 0.  1.
         23    2    1    2    0    0 -0.88874399314E+03 -0.32048991790E+01 -0.11639259094E+03  0.90064479324E+03  0.87963922325E+02 0.  0.
         11    1    3    3    0    0 -0.18327182163E+03  0.33043816533E+01  0.11426011181E+02  0.18365738013E+03  0.00000000000E+00 0. -1.
        -11    1    3    3    0    0 -0.70547217151E+03 -0.65092808323E+01 -0.12781860212E+03  0.71698741311E+03  0.00000000000E+00 0.  1.
         22    1    1    2    0    0  0.88874399314E+03  0.32048991790E+01  0.91891980994E+03  0.12783934347E+04  0.00000000000E+00 0. -1.
<mgrwt>
<rscale>  0 0.20258721E+04</rscale>
<asrwt>0</asrwt>
<pdfrwt beam="1">  1        2 0.22935119E+00 0.20258721E+04</pdfrwt>
<pdfrwt beam="2">  1       -2 0.10588546E+00 0.20258721E+04</pdfrwt>
<totfact> 0.85815245E+00</totfact>
</mgrwt>
</event>
<event>
 6    1  0.1762360E-005  0.1247704E+04  0.7818608E-02  0.9072096E-01
          1   -1    0    0  501    0  0.00000000000E+00  0.00000000000E+00  0.44136060519E+03  0.44136060519E+03  0.00000000000E+00 0. -1.
         -1   -1    0    0    0  501 -0.00000000000E+00 -0.00000000000E+00 -0.88179903556E+03  0.88179903556E+03  0.00000000000E+00 0.  1.
         23    2    1    2    0    0  0.55540966390E+03 -0.39434780512E+02 -0.51205177189E+03  0.76176542334E+03  0.89747124909E+02 0.  0.
         11    1    3    3    0    0  0.10024803319E+03  0.16352945428E+02 -0.12948529284E+03  0.16457073873E+03  0.00000000000E+00 0. -1.
        -11    1    3    3    0    0  0.45516163071E+03 -0.55787725940E+02 -0.38256647905E+03  0.59719468461E+03  0.00000000000E+00 0.  1.
         22    1    1    2    0    0 -0.55540966390E+03  0.39434780512E+02  0.71613341518E+02  0.56139421742E+03  0.00000000000E+00 0. -1.
<mgrwt>
<rscale>  0 0.12477041E+04</rscale>
<asrwt>0</asrwt>
<pdfrwt beam="1">  1        1 0.67901632E-01 0.12477041E+04</pdfrwt>
<pdfrwt beam="2">  1       -1 0.13566139E+00 0.12477041E+04</pdfrwt>
<totfact> 0.23590198E+01</totfact>
</mgrwt>
</event>
<event>
 6    1  0.1762360E-005  0.1017791E+04  0.7818608E-02  0.9289245E-01
          1   -1    0    0  501    0  0.00000000000E+00  0.00000000000E+00  0.39696491054E+03  0.39696491054E+03  0.00000000000E+00 0. -1.
         -1   -1    0    0    0  501 -0.00000000000E+00 -0.00000000000E+00 -0.65238633725E+03  0.65238633725E+03  0.00000000000E+00 0.  1.
         23    2    1    2    0    0 -0.44380402816E+03 -0.22161867581E+03 -0.32522041857E+02  0.50551212760E+03  0.91695011175E+02 0.  0.
         11    1    3    3    0    0 -0.33113539859E+03 -0.19258014665E+03  0.55104127581E+01  0.38310328859E+03  0.00000000000E+00 0. -1.
        -11    1    3    3    0    0 -0.11266862957E+03 -0.29038529161E+02 -0.38032454615E+02  0.12240883901E+03  0.00000000000E+00 0.  1.
         22    1    1    2    0    0  0.44380402816E+03  0.22161867581E+03 -0.22289938486E+03  0.54383912019E+03  0.00000000000E+00 0. -1.
<mgrwt>
<rscale>  0 0.10177907E+04</rscale>
<asrwt>0</asrwt>
<pdfrwt beam="1">  1        1 0.61071526E-01 0.10177907E+04</pdfrwt>
<pdfrwt beam="2">  1       -1 0.10036713E+00 0.10177907E+04</pdfrwt>
<totfact> 0.57408217E+01</totfact>
</mgrwt>
</event>
<event>
 6    1  0.1762360E-005  0.8494001E+03  0.7818608E-02  0.9491142E-01
         -2   -1    0    0    0  501 -0.00000000000E+00  0.00000000000E+00  0.73384562633E+02  0.73384562633E+02  0.00000000000E+00 0.  1.
          2   -1    0    0  501    0  0.00000000000E+00 -0.00000000000E+00 -0.24578756278E+04  0.24578756278E+04  0.00000000000E+00 0. -1.
         23    2    1    2    0    0 -0.14532349218E+03  0.33747407667E+03 -0.18118488469E+04  0.18508729625E+04  0.89032631478E+02 0.  0.
         13    1    3    3    0    0 -0.50801316195E+02  0.18834374032E+03 -0.11192730490E+04  0.11361453677E+04  0.00000000000E+00 0.  1.
        -13    1    3    3    0    0 -0.94522175983E+02  0.14913033635E+03 -0.69257579788E+03  0.71472759481E+03  0.00000000000E+00 0. -1.
         22    1    1    2    0    0  0.14532349218E+03 -0.33747407667E+03 -0.57264221827E+03  0.68038722795E+03  0.00000000000E+00 0.  1.
<mgrwt>
<rscale>  0 0.84940009E+03</rscale>
<asrwt>0</asrwt>
<pdfrwt beam="1">  1        2 0.37813471E+00 0.84940009E+03</pdfrwt>
<pdfrwt beam="2">  1       -2 0.11289933E-01 0.84940009E+03</pdfrwt>
<totfact> 0.21281605E+02</totfact>
</mgrwt>
</event>
<event>
 6    1  0.1762360E-005  0.1016746E+04  0.7818608E-02  0.9290366E-01
          1   -1    0    0  501    0  0.00000000000E+00  0.00000000000E+00  0.53043422994E+03  0.53043422994E+03  0.00000000000E+00 0. -1.
         -1   -1    0    0    0  501 -0.00000000000E+00 -0.00000000000E+00 -0.48722925379E+03  0.48722925379E+03  0.00000000000E+00 0.  1.
         23    2    1    2    0    0 -0.14686085518E+03 -0.47602006586E+03 -0.57388509196E+02  0.50944870317E+03  0.89896197331E+02 0.  0.
         11    1    3    3    0    0 -0.14283350450E+03 -0.33886550968E+03 -0.57683947962E+02  0.37223471294E+03  0.00000000000E+00 0.  1.
        -11    1    3    3    0    0 -0.40273506728E+01 -0.13715455617E+03  0.29543876557E+00  0.13721399024E+03  0.00000000000E+00 0. -1.
         22    1    1    2    0    0  0.14686085518E+03  0.47602006586E+03  0.10059348535E+03  0.50821478056E+03  0.00000000000E+00 0. -1.
<mgrwt>
<rscale>  0 0.10167459E+04</rscale>
<asrwt>0</asrwt>
<pdfrwt beam="1">  1        1 0.81605265E-01 0.10167459E+04</pdfrwt>
<pdfrwt beam="2">  1       -1 0.74958347E-01 0.10167459E+04</pdfrwt>
<totfact> 0.73228825E+01</totfact>
</mgrwt>
</event>
<event>
 6    1  0.1762360E-005  0.2569095E+04  0.7818608E-02  0.8378775E-01
          2   -1    0    0  501    0  0.00000000000E+00  0.00000000000E+00  0.12226526542E+04  0.12226526542E+04  0.00000000000E+00 0. -1.
         -2   -1    0    0    0  501 -0.00000000000E+00 -0.00000000000E+00 -0.13495756088E+04  0.13495756088E+04  0.00000000000E+00 0.  1.
         23    2    1    2    0    0  0.89972793381E+03  0.17302821679E+03 -0.96258554760E+03  0.13321552458E+04  0.92830726053E+02 0.  0.
         11    1    3    3    0    0  0.55034764766E+03  0.81686370584E+02 -0.63888828483E+03  0.84719149956E+03  0.00000000000E+00 0.  1.
        -11    1    3    3    0    0  0.34938028615E+03  0.91341846203E+02 -0.32369726277E+03  0.48496374622E+03  0.00000000000E+00 0. -1.
         22    1    1    2    0    0 -0.89972793381E+03 -0.17302821679E+03  0.83566259295E+03  0.12400730172E+04  0.00000000000E+00 0. -1.
<mgrwt>
<rscale>  0 0.25690949E+04</rscale>
<asrwt>0</asrwt>
<pdfrwt beam="1">  1        2 0.18810041E+00 0.25690949E+04</pdfrwt>
<pdfrwt beam="2">  1       -2 0.20762702E+00 0.25690949E+04</pdfrwt>
<totfact> 0.19313284E+00</totfact>
</mgrwt>
</event>
<event>
 6    1  0.1762360E-005  0.2106681E+04  0.7818608E-02  0.8558306E-01
          1   -1    0    0  501    0  0.00000000000E+00  0.00000000000E+00  0.10595596430E+04  0.10595596430E+04  0.00000000000E+00 0. -1.
         -1   -1    0    0    0  501 -0.00000000000E+00 -0.00000000000E+00 -0.10471577328E+04  0.10471577328E+04  0.00000000000E+00 0.  1.
         23    2    1    2    0    0 -0.57235048303E+03  0.87972831556E+03  0.68071069997E+02  0.10557149781E+04  0.91615827470E+02 0.  0.
         11    1    3    3    0    0 -0.18532987379E+03  0.33448683972E+03  0.59676155358E+02  0.38702693909E+03  0.00000000000E+00 0. -1.
        -11    1    3    3    0    0 -0.38702060924E+03  0.54524147584E+03  0.83949146388E+01  0.66868803904E+03  0.00000000000E+00 0.  1.
         22    1    1    2    0    0  0.57235048303E+03 -0.87972831556E+03 -0.55669159793E+02  0.10510023977E+04  0.00000000000E+00 0.  1.
<mgrwt>
<rscale>  0 0.21066809E+04</rscale>
<asrwt>0</asrwt>
<pdfrwt beam="1">  1        1 0.16300918E+00 0.21066809E+04</pdfrwt>
<pdfrwt beam="2">  1       -1 0.16110119E+00 0.21066809E+04</pdfrwt>
<totfact> 0.35859197E+00</totfact>
</mgrwt>
</event>
<event>
 6    1  0.1762360E-005  0.7803195E+03  0.7818608E-02  0.9588949E-01
         -2   -1    0    0    0  501 -0.00000000000E+00  0.00000000000E+00  0.78507437477E+02  0.78507437477E+02  0.00000000000E+00 0.  1.
          2   -1    0    0  501    0  0.00000000000E+00 -0.00000000000E+00 -0.19389833862E+04  0.19389833862E+04  0.00000000000E+00 0. -1.
         23    2    1    2    0    0 -0.10390834510E+03 -0.30223019047E+03 -0.14972261719E+04  0.15336618946E+04  0.91063521976E+02 0.  0.
         13    1    3    3    0    0 -0.45930972171E+01 -0.15264176264E+03 -0.67521912582E+03  0.69227268624E+03  0.00000000000E+00 0.  1.
        -13    1    3    3    0    0 -0.99315247882E+02 -0.14958842783E+03 -0.82200704603E+03  0.84138920835E+03  0.00000000000E+00 0. -1.
         22    1    1    2    0    0  0.10390834510E+03  0.30223019047E+03 -0.36324977683E+03  0.48382892904E+03  0.00000000000E+00 0.  1.
<mgrwt>
<rscale>  0 0.78031947E+03</rscale>
<asrwt>0</asrwt>
<pdfrwt beam="1">  1        2 0.29830510E+00 0.78031947E+03</pdfrwt>
<pdfrwt beam="2">  1       -2 0.12078069E-01 0.78031947E+03</pdfrwt>
<totfact> 0.37094212E+02</totfact>
</mgrwt>
</event>
<event>
 6    1  0.1762360E-005  0.1105778E+04  0.7818608E-02  0.9199579E-01
          1   -1    0    0  501    0  0.00000000000E+00  0.00000000000E+00  0.23999362634E+03  0.23999362634E+03  0.00000000000E+00 0. -1.
         -1   -1    0    0    0  501 -0.00000000000E+00 -0.00000000000E+00 -0.12737263733E+04  0.12737263733E+04  0.00000000000E+00 0.  1.
         23    2    1    2    0    0  0.70996153640E+02 -0.31990039862E+03  0.82884870590E+02  0.35001401327E+03  0.90902083814E+02 0.  0.
         13    1    3    3    0    0  0.83985130063E+02 -0.21522476344E+03  0.80021503664E+02  0.24449671146E+03  0.00000000000E+00 0. -1.
        -13    1    3    3    0    0 -0.12988976423E+02 -0.10467563519E+03  0.28633669259E+01  0.10551730181E+03  0.00000000000E+00 0.  1.
         22    1    1    2    0    0 -0.70996153640E+02  0.31990039862E+03 -0.11166176176E+04  0.11637059864E+04  0.00000000000E+00 0.  1.
<mgrwt>
<rscale>  0 0.11057779E+04</rscale>
<asrwt>0</asrwt>
<pdfrwt beam="1">  1        1 0.36922096E-01 0.11057779E+04</pdfrwt>
<pdfrwt beam="2">  1       -1 0.19595790E+00 0.11057779E+04</pdfrwt>
<totfact> 0.18768433E+01</totfact>
</mgrwt>
</event>
<event>
 6    1  0.1762360E-005  0.1765567E+04  0.7818608E-02  0.8724828E-01
          2   -1    0    0  501    0  0.00000000000E+00  0.00000000000E+00  0.35656135825E+04  0.35656135825E+04  0.00000000000E+00 0. -1.
         -2   -1    0    0    0  501 -0.00000000000E+00 -0.00000000000E+00 -0.21856176282E+03  0.21856176282E+03  0.00000000000E+00 0.  1.
         23    2    1    2    0    0 -0.18489486531E+03 -0.85965414580E+03  0.17934700533E+04  0.19990121409E+04  0.79519468102E+02 0.  0.
         11    1    3    3    0    0 -0.12300992617E+03 -0.41201403415E+03  0.92249327458E+03  0.10177823185E+04  0.00000000000E+00 0.  1.
        -11    1    3    3    0    0 -0.61884939144E+02 -0.44764011164E+03  0.87097677869E+03  0.98122982235E+03  0.00000000000E+00 0. -1.
         22    1    1    2    0    0  0.18489486531E+03  0.85965414580E+03  0.15535817664E+04  0.17851632045E+04  0.00000000000E+00 0.  1.
<mgrwt>
<rscale>  0 0.17655671E+04</rscale>
<asrwt>0</asrwt>
<pdfrwt beam="1">  1        2 0.54855589E+00 0.17655671E+04</pdfrwt>
<pdfrwt beam="2">  1       -2 0.33624889E-01 0.17655671E+04</pdfrwt>
<totfact> 0.57752980E+00</totfact>
</mgrwt>
</event>
<event>
 6    1  0.2933796E-005  0.3696330E+04  0.7818608E-02  0.8068776E-01
          2   -1    0    0  501    0  0.00000000000E+00  0.00000000000E+00  0.17799947119E+04  0.17799947119E+04  0.00000000000E+00 0. -1.
         -2   -1    0    0    0  501 -0.00000000000E+00 -0.00000000000E+00 -0.19189465663E+04  0.19189465663E+04  0.00000000000E+00 0.  1.
         23    2    1    2    0    0 -0.65006444367E+03  0.52780897195E+03  0.15781070208E+04  0.17885860044E+04  0.86325165210E+02 0.  0.
         11    1    3    3    0    0 -0.26804804875E+03  0.24988981921E+03  0.61628334445E+03  0.71700755842E+03  0.00000000000E+00 0.  1.
        -11    1    3    3    0    0 -0.38201639492E+03  0.27791915274E+03  0.96182367633E+03  0.10715784459E+04  0.00000000000E+00 0. -1.
         22    1    1    2    0    0  0.65006444367E+03 -0.52780897195E+03 -0.17170588751E+04  0.19103552738E+04  0.00000000000E+00 0.  1.
<mgrwt>
<rscale>  0 0.36963305E+04</rscale>
<asrwt>0</asrwt>
<pdfrwt beam="1">  1        2 0.27384534E+00 0.36963305E+04</pdfrwt>
<pdfrwt beam="2">  1       -2 0.29522255E+00 0.36963305E+04</pdfrwt>
<totfact> 0.24335455E-01</totfact>
</mgrwt>
</event>
<event>
 6    1  0.1762360E-005  0.3610643E+04  0.7818608E-02  0.8088058E-01
          1   -1    0    0  501    0  0.00000000000E+00  0.00000000000E+00  0.21189017799E+04  0.21189017799E+04  0.00000000000E+00 0. -1.
         -1   -1    0    0    0  501 -0.00000000000E+00 -0.00000000000E+00 -0.15381484630E+04  0.15381484630E+04  0.00000000000E+00 0.  1.
         23    2    1    2    0    0  0.11823278702E+04  0.60212538226E+03  0.15287679737E+04  0.20263491795E+04  0.92224244669E+02 0.  0.
         11    1    3    3    0    0  0.74722241151E+03  0.33978063612E+03  0.98398933543E+03  0.12814161015E+04  0.00000000000E+00 0.  1.
        -11    1    3    3    0    0  0.43510545867E+03  0.26234474614E+03  0.54477863831E+03  0.74493307804E+03  0.00000000000E+00 0. -1.
         22    1    1    2    0    0 -0.11823278702E+04 -0.60212538226E+03 -0.94801465686E+03  0.16307010634E+04  0.00000000000E+00 0.  1.
<mgrwt>
<rscale>  0 0.36106429E+04</rscale>
<asrwt>0</asrwt>
<pdfrwt beam="1">  1        1 0.32598489E+00 0.36106429E+04</pdfrwt>
<pdfrwt beam="2">  1       -1 0.23663823E+00 0.36106429E+04</pdfrwt>
<totfact> 0.17063246E-01</totfact>
</mgrwt>
</event>
<event>
 6    1  0.1762360E-005  0.2145260E+04  0.7818608E-02  0.8541564E-01
         -2   -1    0    0    0  501 -0.00000000000E+00  0.00000000000E+00  0.62564808886E+03  0.62564808886E+03  0.00000000000E+00 0.  1.
          2   -1    0    0  501    0  0.00000000000E+00 -0.00000000000E+00 -0.18389496305E+04  0.18389496305E+04  0.00000000000E+00 0. -1.
         23    2    1    2    0    0 -0.68524925202E+03 -0.15690944307E+03  0.31994689252E+03  0.77787371361E+03  0.92381759917E+02 0.  0.
         13    1    3    3    0    0 -0.18425483707E+03 -0.64108746888E+01  0.61123475818E+02  0.19423445522E+03  0.00000000000E+00 0.  1.
        -13    1    3    3    0    0 -0.50099441495E+03 -0.15049856838E+03  0.25882341671E+03  0.58363925839E+03  0.00000000000E+00 0. -1.
         22    1    1    2    0    0  0.68524925202E+03  0.15690944307E+03 -0.15332484342E+04  0.16867240058E+04  0.00000000000E+00 0. -1.
<mgrwt>
<rscale>  0 0.21452602E+04</rscale>
<asrwt>0</asrwt>
<pdfrwt beam="1">  1        2 0.28291532E+00 0.21452602E+04</pdfrwt>
<pdfrwt beam="2">  1       -2 0.96253555E-01 0.21452602E+04</pdfrwt>
<totfact> 0.68126115E+00</totfact>
</mgrwt>
</event>
<event>
 6    1  0.1762360E-005  0.3363468E+04  0.7818608E-02  0.8146931E-01
         -2   -1    0    0    0  501 -0.00000000000E+00  0.00000000000E+00  0.27325169926E+04  0.27325169926E+04  0.00000000000E+00 0.  1.
          2   -1    0    0  501    0  0.00000000000E+00 -0.00000000000E+00 -0.10350268400E+04  0.10350268400E+04  0.00000000000E+00 0. -1.
         23    2    1    2    0    0  0.11303925014E+04  0.11431658348E+04  0.13968197804E+04  0.21319956046E+04  0.98409480617E+02 0.  0.
         13    1    3    3    0    0  0.10000644170E+04  0.98756918852E+03  0.11819106448E+04  0.18363917100E+04  0.00000000000E+00 0. -1.
        -13    1    3    3    0    0  0.13032808445E+03  0.15559664632E+03  0.21490913564E+03  0.29560389464E+03  0.00000000000E+00 0.  1.
         22    1    1    2    0    0 -0.11303925014E+04 -0.11431658348E+04  0.30067037212E+03  0.16355482279E+04  0.00000000000E+00 0. -1.
<mgrwt>
<rscale>  0 0.33634675E+04</rscale>
<asrwt>0</asrwt>
<pdfrwt beam="1">  1        2 0.15923490E+00 0.33634675E+04</pdfrwt>
<pdfrwt beam="2">  1       -2 0.42038723E+00 0.33634675E+04</pdfrwt>
<totfact> 0.10823631E-01</totfact>
</mgrwt>
</event>
<event>
 6    1  0.1762360E-005  0.1075201E+04  0.7818608E-02  0.9229705E-01
         -2   -1    0    0    0  501 -0.00000000000E+00  0.00000000000E+00  0.15887568193E+03  0.15887568193E+03  0.00000000000E+00 0.  1.
          2   -1    0    0  501    0  0.00000000000E+00 -0.00000000000E+00 -0.18191227305E+04  0.18191227305E+04  0.00000000000E+00 0. -1.
         23    2    1    2    0    0  0.23081931988E+03  0.13475843207E+03 -0.16861509865E+04  0.17094683257E+04  0.87973939421E+02 0.  0.
         13    1    3    3    0    0  0.14483137921E+03  0.35869054339E+02 -0.82087714793E+03  0.83432727958E+03  0.00000000000E+00 0. -1.
        -13    1    3    3    0    0  0.85987940669E+02  0.98889377733E+02 -0.86527383854E+03  0.87514104614E+03  0.00000000000E+00 0.  1.
         22    1    1    2    0    0 -0.23081931988E+03 -0.13475843207E+03  0.25903937952E+02  0.26853008667E+03  0.00000000000E+00 0.  1.
<mgrwt>
<rscale>  0 0.10752011E+04</rscale>
<asrwt>0</asrwt>
<pdfrwt beam="1">  1        2 0.27986504E+00 0.10752011E+04</pdfrwt>
<pdfrwt beam="2">  1       -2 0.24442412E-01 0.10752011E+04</pdfrwt>
<totfact> 0.12522877E+02</totfact>
</mgrwt>
</event>
<event>
 6    1  0.1762360E-005  0.1059281E+04  0.7818608E-02  0.9245814E-01
         -2   -1    0    0    0  501 -0.00000000000E+00  0.00000000000E+00  0.96473816697E+02  0.96473816697E+02  0.00000000000E+00 0. -1.
          2   -1    0    0  501    0  0.00000000000E+00 -0.00000000000E+00 -0.29077204018E+04  0.29077204018E+04  0.00000000000E+00 0.  1.
         23    2    1    2    0    0 -0.28588118328E+03  0.79389105713E+02 -0.26469569068E+04  0.26650456088E+04  0.89758283863E+02 0.  0.
         13    1    3    3    0    0 -0.26288309915E+02  0.25768504015E+02 -0.16966416750E+03  0.17361169538E+03  0.00000000000E+00 0.  1.
        -13    1    3    3    0    0 -0.25959287337E+03  0.53620601698E+02 -0.24772927393E+04  0.24914339134E+04  0.00000000000E+00 0. -1.
         22    1    1    2    0    0  0.28588118328E+03 -0.79389105713E+02 -0.16428967832E+03  0.33914860970E+03  0.00000000000E+00 0. -1.
<mgrwt>
<rscale>  0 0.10592807E+04</rscale>
<asrwt>0</asrwt>
<pdfrwt beam="1">  1        2 0.44734159E+00 0.10592807E+04</pdfrwt>
<pdfrwt beam="2">  1       -2 0.14842126E-01 0.10592807E+04</pdfrwt>
<totfact> 0.72027464E+01</totfact>
</mgrwt>
</event>
<event>
 6    1  0.1762360E-005  0.2835009E+04  0.7818608E-02  0.8292481E-01
         -1   -1    0    0    0  501 -0.00000000000E+00  0.00000000000E+00  0.12173838204E+04  0.12173838204E+04  0.00000000000E+00 0.  1.
          1   -1    0    0  501    0  0.00000000000E+00 -0.00000000000E+00 -0.16505224204E+04  0.16505224204E+04  0.00000000000E+00 0. -1.
         23    2    1    2    0    0 -0.37897523641E+03 -0.39646851981E+02  0.11629102445E+04  0.12270022166E+04  0.89331406117E+02 0.  0.
         13    1    3    3    0    0 -0.25573878080E+03 -0.15834139501E+02  0.64338094748E+03  0.69252587501E+03  0.00000000000E+00 0. -1.
        -13    1    3    3    0    0 -0.12323645561E+03 -0.23812712480E+02  0.51952929704E+03  0.53447634162E+03  0.00000000000E+00 0.  1.
         22    1    1    2    0    0  0.37897523641E+03  0.39646851981E+02 -0.15960488445E+04  0.16409040243E+04  0.00000000000E+00 0. -1.
<mgrwt>
<rscale>  0 0.28350092E+04</rscale>
<asrwt>0</asrwt>
<pdfrwt beam="1">  1        1 0.25392653E+00 0.28350092E+04</pdfrwt>
<pdfrwt beam="2">  1       -1 0.18728982E+00 0.28350092E+04</pdfrwt>
<totfact> 0.82114445E-01</totfact>
</mgrwt>
</event>
<event>
 6    1  0.1762360E-005  0.3910695E+04  0.7818608E-02  0.8022809E-01
          2   -1    0    0  501    0  0.00000000000E+00  0.00000000000E+00  0.21535221585E+04  0.21535221585E+04  0.00000000000E+00 0. -1.
         -2   -1    0    0    0  501 -0.00000000000E+00 -0.00000000000E+00 -0.17754093416E+04  0.17754093416E+04  0.00000000000E+00 0.  1.
         23    2    1    2    0    0 -0.20248164995E+02 -0.61228137369E+03 -0.16752814388E+04  0.17861000932E+04  0.91033922747E+02 0.  0.
         13    1    3    3    0    0 -0.53222657319E+01 -0.52954227805E+03 -0.13506416202E+04  0.14507501980E+04  0.00000000000E+00 0. -1.
        -13    1    3    3    0    0 -0.14925899263E+02 -0.82739095645E+02 -0.32463981858E+03  0.33534989522E+03  0.00000000000E+00 0.  1.
         22    1    1    2    0    0  0.20248164995E+02  0.61228137369E+03  0.20533942557E+04  0.21428314068E+04  0.00000000000E+00 0. -1.
<mgrwt>
<rscale>  0 0.39106948E+04</rscale>
<asrwt>0</asrwt>
<pdfrwt beam="1">  1        2 0.33131110E+00 0.39106948E+04</pdfrwt>
<pdfrwt beam="2">  1       -2 0.27313990E+00 0.39106948E+04</pdfrwt>
<totfact> 0.20208509E-01</totfact>
</mgrwt>
</event>
<event>
 6    1  0.1762360E-005  0.5874813E+04  0.7818608E-02  0.7706120E-01
         -1   -1    0    0    0  501 -0.00000000000E+00  0.00000000000E+00  0.22030080337E+04  0.22030080337E+04  0.00000000000E+00 0.  1.
          1   -1    0    0  501    0  0.00000000000E+00 -0.00000000000E+00 -0.39166249551E+04  0.39166249551E+04  0.00000000000E+00 0. -1.
         23    2    1    2    0    0 -0.13407542500E+04 -0.24993658057E+04 -0.62356789346E+02  0.28376958454E+04  0.64637080427E+02 0.  0.
         11    1    3    3    0    0 -0.90854568491E+03 -0.16607303662E+04 -0.15431409567E+02  0.18930712452E+04  0.00000000000E+00 0.  1.
        -11    1    3    3    0    0 -0.43220856510E+03 -0.83863543950E+03 -0.46925379779E+02  0.94462460025E+03  0.00000000000E+00 0. -1.
         22    1    1    2    0    0  0.13407542500E+04  0.24993658057E+04 -0.16512601320E+04  0.32819371434E+04  0.00000000000E+00 0. -1.
<mgrwt>
<rscale>  0 0.58748128E+04</rscale>
<asrwt>0</asrwt>
<pdfrwt beam="1">  1        1 0.60255769E+00 0.58748128E+04</pdfrwt>
<pdfrwt beam="2">  1       -1 0.33892431E+00 0.58748128E+04</pdfrwt>
<totfact> 0.14024937E-03</totfact>
</mgrwt>
</event>
<event>
 6    1  0.1813879E-005  0.3007924E+04  0.7818608E-02  0.8241472E-01
         -2   -1    0    0    0  501 -0.00000000000E+00  0.00000000000E+00  0.11108436499E+04  0.11108436499E+04  0.00000000000E+00 0.  1.
          2   -1    0    0  501    0  0.00000000000E+00 -0.00000000000E+00 -0.20362015976E+04  0.20362015976E+04  0.00000000000E+00 0. -1.
         23    2    1    2    0    0 -0.10518302389E+04  0.56486775329E+03 -0.14175897320E+04  0.18556450153E+04  0.91844131568E+02 0.  0.
         11    1    3    3    0    0 -0.54041467298E+03  0.25047701742E+03 -0.65998159803E+03  0.88902332071E+03  0.00000000000E+00 0. -1.
        -11    1    3    3    0    0 -0.51141556590E+03  0.31439073587E+03 -0.75760813396E+03  0.96662169461E+03  0.00000000000E+00 0.  1.
         22    1    1    2    0    0  0.10518302389E+04 -0.56486775329E+03  0.49223178425E+03  0.12914002321E+04  0.00000000000E+00 0.  1.
<mgrwt>
<rscale>  0 0.30079239E+04</rscale>
<asrwt>0</asrwt>
<pdfrwt beam="1">  1        2 0.31326178E+00 0.30079239E+04</pdfrwt>
<pdfrwt beam="2">  1       -2 0.17089903E+00 0.30079239E+04</pdfrwt>
<totfact> 0.11459896E+00</totfact>
</mgrwt>
</event>
<event>
 6    1  0.1762360E-005  0.2007646E+04  0.7818608E-02  0.8603054E-01
         -2   -1    0    0    0  501 -0.00000000000E+00  0.00000000000E+00  0.17849578231E+04  0.17849578231E+04  0.00000000000E+00 0. -1.
          2   -1    0    0  501    0  0.00000000000E+00 -0.00000000000E+00 -0.56452884465E+03  0.56452884465E+03  0.00000000000E+00 0.  1.
         23    2    1    2    0    0 -0.72370580459E+03  0.52460683116E+03  0.83304735701E+02  0.90310706256E+03  0.98489941415E+02 0.  0.
         13    1    3    3    0    0 -0.34180374663E+03  0.29914973334E+03  0.15688840087E+02  0.45449587883E+03  0.00000000000E+00 0. -1.
        -13    1    3    3    0    0 -0.38190205796E+03  0.22545709782E+03  0.67615895614E+02  0.44861118373E+03  0.00000000000E+00 0.  1.
         22    1    1    2    0    0  0.72370580459E+03 -0.52460683116E+03  0.11371242427E+04  0.14463796052E+04  0.00000000000E+00 0. -1.
<mgrwt>
<rscale>  0 0.20076456E+04</rscale>
<asrwt>0</asrwt>
<pdfrwt beam="1">  1        2 0.86850592E-01 0.20076456E+04</pdfrwt>
<pdfrwt beam="2">  1       -2 0.27460889E+00 0.20076456E+04</pdfrwt>
<totfact> 0.22517104E+00</totfact>
</mgrwt>
</event>
<event>
 6    1  0.1762360E-005  0.1442505E+04  0.7818608E-02  0.8923613E-01
         -2   -1    0    0    0  501 -0.00000000000E+00  0.00000000000E+00  0.44915551532E+03  0.44915551532E+03  0.00000000000E+00 0.  1.
          2   -1    0    0  501    0  0.00000000000E+00 -0.00000000000E+00 -0.11581849121E+04  0.11581849121E+04  0.00000000000E+00 0. -1.
         23    2    1    2    0    0 -0.15363515588E+03  0.38200478623E+03  0.29980553420E+03  0.51771694393E+03  0.92822722775E+02 0.  0.
         13    1    3    3    0    0 -0.96254745481E+02  0.19456832101E+03  0.21025804555E+03  0.30220895633E+03  0.00000000000E+00 0.  1.
        -13    1    3    3    0    0 -0.57380410398E+02  0.18743646523E+03  0.89547488648E+02  0.21550798759E+03  0.00000000000E+00 0. -1.
         22    1    1    2    0    0  0.15363515588E+03 -0.38200478623E+03 -0.10088349310E+04  0.10896234835E+04  0.00000000000E+00 0. -1.
<mgrwt>
<rscale>  0 0.14425050E+04</rscale>
<asrwt>0</asrwt>
<pdfrwt beam="1">  1        2 0.17818229E+00 0.14425050E+04</pdfrwt>
<pdfrwt beam="2">  1       -2 0.69100849E-01 0.14425050E+04</pdfrwt>
<totfact> 0.37244310E+01</totfact>
</mgrwt>
</event>
<event>
 6    1  0.1762360E-005  0.1748433E+04  0.7818608E-02  0.8734213E-01
         -1   -1    0    0    0  501 -0.00000000000E+00  0.00000000000E+00  0.23628401820E+03  0.23628401820E+03  0.00000000000E+00 0.  1.
          1   -1    0    0  501    0  0.00000000000E+00 -0.00000000000E+00 -0.32344755946E+04  0.32344755946E+04  0.00000000000E+00 0. -1.
         23    2    1    2    0    0 -0.48901786398E+03  0.77908759548E+00 -0.69932742779E+02  0.50194859239E+03  0.89009677122E+02 0.  0.
         13    1    3    3    0    0 -0.32128618361E+03  0.37697010671E+02 -0.66015699414E+02  0.33015746086E+03  0.00000000000E+00 0. -1.
        -13    1    3    3    0    0 -0.16773168037E+03 -0.36917923076E+02 -0.39170433652E+01  0.17179113153E+03  0.00000000000E+00 0.  1.
         22    1    1    2    0    0  0.48901786398E+03 -0.77908759548E+00 -0.29282588336E+04  0.29688110204E+04  0.00000000000E+00 0. -1.
<mgrwt>
<rscale>  0 0.17484335E+04</rscale>
<asrwt>0</asrwt>
<pdfrwt beam="1">  1        1 0.49761160E+00 0.17484335E+04</pdfrwt>
<pdfrwt beam="2">  1       -1 0.36351390E-01 0.17484335E+04</pdfrwt>
<totfact> 0.27648083E+00</totfact>
</mgrwt>
</event>
<event>
 6    1  0.1762360E-005  0.2043187E+04  0.7818608E-02  0.8586691E-01
          1   -1    0    0  501    0  0.00000000000E+00  0.00000000000E+00  0.13546166560E+04  0.13546166560E+04  0.00000000000E+00 0. -1.
         -1   -1    0    0    0  501 -0.00000000000E+00 -0.00000000000E+00 -0.77044173389E+03  0.77044173389E+03  0.00000000000E+00 0.  1.
         23    2    1    2    0    0  0.50624791891E+03 -0.15756480297E+03  0.11973755023E+04  0.13144237162E+04  0.11352528143E+03 0.  0.
         11    1    3    3    0    0  0.36625890023E+03 -0.16223646898E+03  0.84167357628E+03  0.93213768450E+03  0.00000000000E+00 0.  1.
        -11    1    3    3    0    0  0.13998901868E+03  0.46716660081E+01  0.35570192605E+03  0.38228603167E+03  0.00000000000E+00 0. -1.
         22    1    1    2    0    0 -0.50624791891E+03  0.15756480297E+03 -0.61320058026E+03  0.81063467368E+03  0.00000000000E+00 0.  1.
<mgrwt>
<rscale>  0 0.20431869E+04</rscale>
<asrwt>0</asrwt>
<pdfrwt beam="1">  1        1 0.20840256E+00 0.20431869E+04</pdfrwt>
<pdfrwt beam="2">  1       -1 0.11852950E+00 0.20431869E+04</pdfrwt>
<totfact> 0.48775281E+00</totfact>
</mgrwt>
</event>
<event>
 6    1  0.1762360E-005  0.1737605E+04  0.7818608E-02  0.8740203E-01
         -2   -1    0    0    0  501 -0.00000000000E+00  0.00000000000E+00  0.36330171045E+03  0.36330171045E+03  0.00000000000E+00 0. -1.
          2   -1    0    0  501    0  0.00000000000E+00 -0.00000000000E+00 -0.20776602927E+04  0.20776602927E+04  0.00000000000E+00 0.  1.
         23    2    1    2    0    0 -0.58820015495E+03 -0.63608152314E+03 -0.84501484134E+03  0.12136325175E+04  0.90965263651E+02 0.  0.
         11    1    3    3    0    0 -0.66720114925E+01 -0.19053663403E+02 -0.38306467148E+02  0.43300614913E+02  0.00000000000E+00 0.  1.
        -11    1    3    3    0    0 -0.58152814346E+03 -0.61702785974E+03 -0.80670837419E+03  0.11703319026E+04  0.00000000000E+00 0. -1.
         22    1    1    2    0    0  0.58820015495E+03  0.63608152314E+03 -0.86934374090E+03  0.12273294856E+04  0.00000000000E+00 0. -1.
<mgrwt>
<rscale>  0 0.17376047E+04</rscale>
<asrwt>0</asrwt>
<pdfrwt beam="1">  1        2 0.31964004E+00 0.17376047E+04</pdfrwt>
<pdfrwt beam="2">  1       -2 0.55892572E-01 0.17376047E+04</pdfrwt>
<totfact> 0.17251407E+01</totfact>
</mgrwt>
</event>
<event>
 6    1  0.1762360E-005  0.2769605E+04  0.7818608E-02  0.8312767E-01
          1   -1    0    0  501    0  0.00000000000E+00  0.00000000000E+00  0.17247174481E+04  0.17247174481E+04  0.00000000000E+00 0. -1.
         -1   -1    0    0    0  501 -0.00000000000E+00 -0.00000000000E+00 -0.11118794177E+04  0.11118794177E+04  0.00000000000E+00 0.  1.
         23    2    1    2    0    0  0.30431172696E+03  0.12346399667E+04  0.86493257383E+03  0.15402585098E+04  0.85711407491E+02 0.  0.
         13    1    3    3    0    0  0.10010230763E+03  0.25926612734E+03  0.18398300716E+03  0.33330038059E+03  0.00000000000E+00 0.  1.
        -13    1    3    3    0    0  0.20420941933E+03  0.97537383931E+03  0.68094956667E+03  0.12069581292E+04  0.00000000000E+00 0. -1.
         22    1    1    2    0    0 -0.30431172696E+03 -0.12346399667E+04 -0.25209454335E+03  0.12963383560E+04  0.00000000000E+00 0.  1.
<mgrwt>
<rscale>  0 0.27696049E+04</rscale>
<asrwt>0</asrwt>
<pdfrwt beam="1">  1        1 0.26534115E+00 0.27696049E+04</pdfrwt>
<pdfrwt beam="2">  1       -1 0.17105837E+00 0.27696049E+04</pdfrwt>
<totfact> 0.96177882E-01</totfact>
</mgrwt>
</event>
<event>
 6    1  0.1762360E-005  0.3159981E+04  0.7818608E-02  0.8199467E-01
         -1   -1    0    0    0  501 -0.00000000000E+00  0.00000000000E+00  0.14321414266E+04  0.14321414266E+04  0.00000000000E+00 0.  1.
          1   -1    0    0  501    0  0.00000000000E+00 -0.00000000000E+00 -0.17431033007E+04  0.17431033007E+04  0.00000000000E+00 0. -1.
         23    2    1    2    0    0 -0.88979831400E+03 -0.12566840444E+04  0.19380499696E+03  0.15548171846E+04  0.94341261878E+02 0.  0.
         13    1    3    3    0    0 -0.51915376473E+03 -0.68733284986E+03  0.69401262633E+02  0.86415485487E+03  0.00000000000E+00 0. -1.
        -13    1    3    3    0    0 -0.37064454927E+03 -0.56935119452E+03  0.12440373433E+03  0.69066232974E+03  0.00000000000E+00 0.  1.
         22    1    1    2    0    0  0.88979831400E+03  0.12566840444E+04 -0.50476687109E+03  0.16204275427E+04  0.00000000000E+00 0. -1.
<mgrwt>
<rscale>  0 0.31599813E+04</rscale>
<asrwt>0</asrwt>
<pdfrwt beam="1">  1        1 0.26816974E+00 0.31599813E+04</pdfrwt>
<pdfrwt beam="2">  1       -1 0.22032945E+00 0.31599813E+04</pdfrwt>
<totfact> 0.40944108E-01</totfact>
</mgrwt>
</event>
<event>
 6    1  0.1762360E-005  0.1330556E+04  0.7818608E-02  0.9005679E-01
          1   -1    0    0  501    0  0.00000000000E+00  0.00000000000E+00  0.29943699493E+04  0.29943699493E+04  0.00000000000E+00 0. -1.
         -1   -1    0    0    0  501 -0.00000000000E+00 -0.00000000000E+00 -0.14780908770E+03  0.14780908770E+03  0.00000000000E+00 0.  1.
         23    2    1    2    0    0  0.57316040797E+03 -0.32739168276E+03  0.13076091203E+04  0.14676430925E+04  0.91850249806E+02 0.  0.
         13    1    3    3    0    0  0.15362521305E+03 -0.42926565894E+02  0.32003302785E+03  0.35758150827E+03  0.00000000000E+00 0. -1.
        -13    1    3    3    0    0  0.41953519492E+03 -0.28446511687E+03  0.98757609245E+03  0.11100615843E+04  0.00000000000E+00 0.  1.
         22    1    1    2    0    0 -0.57316040797E+03  0.32739168276E+03  0.15389517413E+04  0.16745359444E+04  0.00000000000E+00 0. -1.
<mgrwt>
<rscale>  0 0.13305564E+04</rscale>
<asrwt>0</asrwt>
<pdfrwt beam="1">  1        1 0.46067226E+00 0.13305564E+04</pdfrwt>
<pdfrwt beam="2">  1       -1 0.22739862E-01 0.13305564E+04</pdfrwt>
<totfact> 0.98330433E+00</totfact>
</mgrwt>
</event>
<event>
 6    1  0.1762360E-005  0.3716649E+03  0.7818608E-02  0.1054058E+00
         -2   -1    0    0    0  501 -0.00000000000E+00  0.00000000000E+00  0.66274340581E+02  0.66274340581E+02  0.00000000000E+00 0.  1.
          2   -1    0    0  501    0  0.00000000000E+00 -0.00000000000E+00 -0.52107199941E+03  0.52107199941E+03  0.00000000000E+00 0. -1.
         23    2    1    2    0    0 -0.61748334401E+02  0.14041382884E+03 -0.37695385799E+03  0.41533309206E+03  0.82936518986E+02 0.  0.
         13    1    3    3    0    0 -0.60623759807E+02  0.15091103862E+03 -0.33989295147E+03  0.37679782415E+03  0.00000000000E+00 0. -1.
        -13    1    3    3    0    0 -0.11245745944E+01 -0.10497209773E+02 -0.37060906518E+02  0.38535267911E+02  0.00000000000E+00 0.  1.
         22    1    1    2    0    0  0.61748334401E+02 -0.14041382884E+03 -0.77843800841E+02  0.17201324792E+03  0.00000000000E+00 0.  1.
<mgrwt>
<rscale>  0 0.37166492E+03</rscale>
<asrwt>0</asrwt>
<pdfrwt beam="1">  1        2 0.80164923E-01 0.37166492E+03</pdfrwt>
<pdfrwt beam="2">  1       -2 0.10196052E-01 0.37166492E+03</pdfrwt>
<totfact> 0.38397444E+03</totfact>
</mgrwt>
</event>
<event>
 6    1  0.1762360E-005  0.4667091E+03  0.7818608E-02  0.1022853E+00
          1   -1    0    0  501    0  0.00000000000E+00  0.00000000000E+00  0.83856454980E+03  0.83856454980E+03  0.00000000000E+00 0. -1.
         -1   -1    0    0    0  501 -0.00000000000E+00 -0.00000000000E+00 -0.64937572151E+02  0.64937572151E+02  0.00000000000E+00 0.  1.
         23    2    1    2    0    0  0.17586275250E+03  0.52309854654E+02  0.15040892483E+03  0.25383700054E+03  0.90257130278E+02 0.  0.
         11    1    3    3    0    0  0.21763301368E+02 -0.95482802938E+01 -0.72656175120E+01  0.24851562141E+02  0.00000000000E+00 0.  1.
        -11    1    3    3    0    0  0.15409945113E+03  0.61858134948E+02  0.15767454234E+03  0.22898543840E+03  0.00000000000E+00 0. -1.
         22    1    1    2    0    0 -0.17586275250E+03 -0.52309854654E+02  0.62321805282E+03  0.64966512141E+03  0.00000000000E+00 0.  1.
<mgrwt>
<rscale>  0 0.46670910E+03</rscale>
<asrwt>0</asrwt>
<pdfrwt beam="1">  1        1 0.12900992E+00 0.46670910E+03</pdfrwt>
<pdfrwt beam="2">  1       -1 0.99903963E-02 0.46670910E+03</pdfrwt>
<totfact> 0.13053595E+03</totfact>
</mgrwt>
</event>
<event>
 6    1  0.1762360E-005  0.1771307E+04  0.7818608E-02  0.8721709E-01
          1   -1    0    0  501    0  0.00000000000E+00  0.00000000000E+00  0.14051475419E+04  0.14051475419E+04  0.00000000000E+00 0. -1.
         -1   -1    0    0    0  501 -0.00000000000E+00 -0.00000000000E+00 -0.55822044408E+03  0.55822044408E+03  0.00000000000E+00 0.  1.
         23    2    1    2    0    0 -0.24875074662E+03 -0.81692102875E+03  0.67280518318E+03  0.10918432633E+04  0.10108410297E+03 0.  0.
         11    1    3    3    0    0 -0.16688189978E+03 -0.68173623850E+03  0.55103248518E+03  0.89232878866E+03  0.00000000000E+00 0. -1.
        -11    1    3    3    0    0 -0.81868846840E+02 -0.13518479025E+03  0.12177269800E+03  0.19951447460E+03  0.00000000000E+00 0.  1.
         22    1    1    2    0    0  0.24875074662E+03  0.81692102875E+03  0.17412191463E+03  0.87152472272E+03  0.00000000000E+00 0.  1.
<mgrwt>
<rscale>  0 0.17713070E+04</rscale>
<asrwt>0</asrwt>
<pdfrwt beam="1">  1        1 0.21617654E+00 0.17713070E+04</pdfrwt>
<pdfrwt beam="2">  1       -1 0.85880069E-01 0.17713070E+04</pdfrwt>
<totfact> 0.96483813E+00</totfact>
</mgrwt>
</event>
<event>
 6    1  0.1762360E-005  0.4242008E+04  0.7818608E-02  0.7957429E-01
          1   -1    0    0  501    0  0.00000000000E+00  0.00000000000E+00  0.34687317382E+04  0.34687317382E+04  0.00000000000E+00 0. -1.
         -1   -1    0    0    0  501 -0.00000000000E+00 -0.00000000000E+00 -0.12969170913E+04  0.12969170913E+04  0.00000000000E+00 0.  1.
         23    2    1    2    0    0  0.19952342527E+04 -0.99790941819E+02  0.18834603616E+04  0.27472172232E+04  0.94135981086E+02 0.  0.
         11    1    3    3    0    0  0.12056526257E+04 -0.47276890055E+02  0.10763951429E+04  0.16169291456E+04  0.00000000000E+00 0. -1.
        -11    1    3    3    0    0  0.78958162698E+03 -0.52514051764E+02  0.80706521871E+03  0.11302880777E+04  0.00000000000E+00 0.  1.
         22    1    1    2    0    0 -0.19952342527E+04  0.99790941819E+02  0.28835428540E+03  0.20184316062E+04  0.00000000000E+00 0.  1.
<mgrwt>
<rscale>  0 0.42420078E+04</rscale>
<asrwt>0</asrwt>
<pdfrwt beam="1">  1        1 0.53365103E+00 0.42420078E+04</pdfrwt>
<pdfrwt beam="2">  1       -1 0.19952571E+00 0.42420078E+04</pdfrwt>
<totfact> 0.30730939E-02</totfact>
</mgrwt>
</event>
<event>
 6    1  0.1762360E-005  0.5722153E+04  0.7818608E-02  0.7725839E-01
          1   -1    0    0  501    0  0.00000000000E+00  0.00000000000E+00  0.36814194590E+04  0.36814194590E+04  0.00000000000E+00 0. -1.
         -1   -1    0    0    0  501 -0.00000000000E+00 -0.00000000000E+00 -0.22235329871E+04  0.22235329871E+04  0.00000000000E+00 0.  1.
         23    2    1    2    0    0  0.69115268219E+03 -0.82637257462E+03 -0.20052192370E+04  0.22781515398E+04  0.92122677211E+02 0.  0.
         11    1    3    3    0    0  0.32325513425E+03 -0.31873858026E+03 -0.81422821860E+03  0.93223160016E+03  0.00000000000E+00 0.  1.
        -11    1    3    3    0    0  0.36789754794E+03 -0.50763399436E+03 -0.11909910184E+04  0.13459199397E+04  0.00000000000E+00 0. -1.
         22    1    1    2    0    0 -0.69115268219E+03  0.82637257462E+03  0.34631057089E+04  0.36268009062E+04  0.00000000000E+00 0. -1.
<mgrwt>
<rscale>  0 0.57221526E+04</rscale>
<asrwt>0</asrwt>
<pdfrwt beam="1">  1        1 0.56637222E+00 0.57221526E+04</pdfrwt>
<pdfrwt beam="2">  1       -1 0.34208200E+00 0.57221526E+04</pdfrwt>
<totfact> 0.21333870E-03</totfact>
</mgrwt>
</event>
<event>
 6    1  0.1762360E-005  0.1877430E+04  0.7818608E-02  0.8666173E-01
          1   -1    0    0  501    0  0.00000000000E+00  0.00000000000E+00  0.24027387052E+04  0.24027387052E+04  0.00000000000E+00 0. -1.
         -1   -1    0    0    0  501 -0.00000000000E+00 -0.00000000000E+00 -0.36674244806E+03  0.36674244806E+03  0.00000000000E+00 0.  1.
         23    2    1    2    0    0 -0.24830575000E+03  0.49349956979E+03  0.21358793093E+04  0.22080773815E+04  0.91802656855E+02 0.  0.
         13    1    3    3    0    0 -0.81806859458E+02  0.25628735881E+03  0.11000475788E+04  0.11324664446E+04  0.00000000000E+00 0.  1.
        -13    1    3    3    0    0 -0.16649889054E+03  0.23721221098E+03  0.10358317305E+04  0.10756109369E+04  0.00000000000E+00 0. -1.
         22    1    1    2    0    0  0.24830575000E+03 -0.49349956979E+03 -0.99883052171E+02  0.56140377178E+03  0.00000000000E+00 0.  1.
<mgrwt>
<rscale>  0 0.18774305E+04</rscale>
<asrwt>0</asrwt>
<pdfrwt beam="1">  1        1 0.36965210E+00 0.18774305E+04</pdfrwt>
<pdfrwt beam="2">  1       -1 0.56421917E-01 0.18774305E+04</pdfrwt>
<totfact> 0.47165827E+00</totfact>
</mgrwt>
</event>
<event>
 6    1  0.1762360E-005  0.1093811E+04  0.7818608E-02  0.9211245E-01
         -1   -1    0    0    0  501 -0.00000000000E+00  0.00000000000E+00  0.38486297755E+03  0.38486297755E+03  0.00000000000E+00 0. -1.
          1   -1    0    0  501    0  0.00000000000E+00 -0.00000000000E+00 -0.77717502986E+03  0.77717502986E+03  0.00000000000E+00 0.  1.
         23    2    1    2    0    0 -0.50425529821E+03  0.19518085350E+03 -0.25320328202E+03  0.60371890393E+03  0.89418351561E+02 0.  0.
         13    1    3    3    0    0 -0.24075653760E+03  0.13667619579E+03 -0.14892084303E+03  0.31435888786E+03  0.00000000000E+00 0.  1.
        -13    1    3    3    0    0 -0.26349876061E+03  0.58504657711E+02 -0.10428243899E+03  0.28936001607E+03  0.00000000000E+00 0. -1.
         22    1    1    2    0    0  0.50425529821E+03 -0.19518085350E+03 -0.13910877029E+03  0.55831910348E+03  0.00000000000E+00 0.  1.
<mgrwt>
<rscale>  0 0.10938115E+04</rscale>
<asrwt>0</asrwt>
<pdfrwt beam="1">  1        1 0.11956539E+00 0.10938115E+04</pdfrwt>
<pdfrwt beam="2">  1       -1 0.59209689E-01 0.10938115E+04</pdfrwt>
<totfact> 0.66751296E+01</totfact>
</mgrwt>
</event>
<event>
 6    1  0.1762360E-005  0.3058911E+04  0.7818608E-02  0.8227106E-01
          2   -1    0    0  501    0  0.00000000000E+00  0.00000000000E+00  0.21644617422E+04  0.21644617422E+04  0.00000000000E+00 0. -1.
         -2   -1    0    0    0  501 -0.00000000000E+00 -0.00000000000E+00 -0.10807461686E+04  0.10807461686E+04  0.00000000000E+00 0.  1.
         23    2    1    2    0    0  0.56334299354E+02 -0.66250682464E+03 -0.91739855306E+03  0.11365242945E+04  0.89322565951E+02 0.  0.
         13    1    3    3    0    0  0.79612217480E+00 -0.16547260812E+03 -0.29328496793E+03  0.33674603229E+03  0.00000000000E+00 0. -1.
        -13    1    3    3    0    0  0.55538177179E+02 -0.49703421652E+03 -0.62411358513E+03  0.79977826218E+03  0.00000000000E+00 0.  1.
         22    1    1    2    0    0 -0.56334299354E+02  0.66250682464E+03  0.20011141266E+04  0.21086836163E+04  0.00000000000E+00 0. -1.
<mgrwt>
<rscale>  0 0.30589107E+04</rscale>
<asrwt>0</asrwt>
<pdfrwt beam="1">  1        2 0.33299411E+00 0.30589107E+04</pdfrwt>
<pdfrwt beam="2">  1       -2 0.16626864E+00 0.30589107E+04</pdfrwt>
<totfact> 0.10440983E+00</totfact>
</mgrwt>
</event>
<event>
 6    1  0.2524397E-005  0.3074087E+04  0.7818608E-02  0.8222886E-01
          2   -1    0    0  501    0  0.00000000000E+00  0.00000000000E+00  0.18366243511E+04  0.18366243511E+04  0.00000000000E+00 0. -1.
         -2   -1    0    0    0  501 -0.00000000000E+00 -0.00000000000E+00 -0.12863289640E+04  0.12863289640E+04  0.00000000000E+00 0.  1.
         23    2    1    2    0    0  0.57043616535E+03 -0.75564608617E+03  0.15037643413E+04  0.17792638148E+04  0.89856008252E+02 0.  0.
         13    1    3    3    0    0  0.34616450062E+03 -0.44724800080E+03  0.97837445715E+03  0.11300784106E+04  0.00000000000E+00 0.  1.
        -13    1    3    3    0    0  0.22427166473E+03 -0.30839808536E+03  0.52538988419E+03  0.64918540423E+03  0.00000000000E+00 0. -1.
         22    1    1    2    0    0 -0.57043616535E+03  0.75564608617E+03 -0.95346895427E+03  0.13436895002E+04  0.00000000000E+00 0.  1.
<mgrwt>
<rscale>  0 0.30740872E+04</rscale>
<asrwt>0</asrwt>
<pdfrwt beam="1">  1        2 0.28255759E+00 0.30740872E+04</pdfrwt>
<pdfrwt beam="2">  1       -2 0.19789676E+00 0.30740872E+04</pdfrwt>
<totfact> 0.96208725E-01</totfact>
</mgrwt>
</event>
<event>
 6    1  0.1762360E-005  0.2364679E+04  0.7818608E-02  0.8452847E-01
          2   -1    0    0  501    0  0.00000000000E+00  0.00000000000E+00  0.82559602743E+03  0.82559602743E+03  0.00000000000E+00 0. -1.
         -2   -1    0    0    0  501 -0.00000000000E+00 -0.00000000000E+00 -0.16932338718E+04  0.16932338718E+04  0.00000000000E+00 0.  1.
         23    2    1    2    0    0  0.65055214648E+02  0.11226271713E+04 -0.81733226910E+03  0.13931947019E+04  0.91844936823E+02 0.  0.
         11    1    3    3    0    0 -0.13090617337E+02  0.50665885929E+03 -0.34629585114E+03  0.61383660731E+03  0.00000000000E+00 0.  1.
        -11    1    3    3    0    0  0.78145831985E+02  0.61596831203E+03 -0.47103641797E+03  0.77935809454E+03  0.00000000000E+00 0. -1.
         22    1    1    2    0    0 -0.65055214648E+02 -0.11226271713E+04 -0.50305575298E+02  0.11256351974E+04  0.00000000000E+00 0. -1.
<mgrwt>
<rscale>  0 0.23646794E+04</rscale>
<asrwt>0</asrwt>
<pdfrwt beam="1">  1        2 0.12701477E+00 0.23646794E+04</pdfrwt>
<pdfrwt beam="2">  1       -2 0.26049752E+00 0.23646794E+04</pdfrwt>
<totfact> 0.16497054E+00</totfact>
</mgrwt>
</event>
<event>
 6    1  0.1762360E-005  0.2996598E+04  0.7818608E-02  0.8244703E-01
         -1   -1    0    0    0  501 -0.00000000000E+00  0.00000000000E+00  0.76645620364E+03  0.76645620364E+03  0.00000000000E+00 0.  1.
          1   -1    0    0  501    0  0.00000000000E+00 -0.00000000000E+00 -0.29289342437E+04  0.29289342437E+04  0.00000000000E+00 0. -1.
         23    2    1    2    0    0 -0.93232657845E+03  0.11253356238E+04 -0.14819175017E+04  0.20833185626E+04  0.92323541637E+02 0.  0.
         11    1    3    3    0    0 -0.21755659240E+03  0.30182288553E+03 -0.33309804245E+03  0.49938184889E+03  0.00000000000E+00 0.  1.
        -11    1    3    3    0    0 -0.71476998606E+03  0.82351273832E+03 -0.11488194592E+04  0.15839367137E+04  0.00000000000E+00 0. -1.
         22    1    1    2    0    0  0.93232657845E+03 -0.11253356238E+04 -0.68056053841E+03  0.16120718848E+04  0.00000000000E+00 0.  1.
<mgrwt>
<rscale>  0 0.29965980E+04</rscale>
<asrwt>0</asrwt>
<pdfrwt beam="1">  1        1 0.45060526E+00 0.29965980E+04</pdfrwt>
<pdfrwt beam="2">  1       -1 0.11791634E+00 0.29965980E+04</pdfrwt>
<totfact> 0.37008523E-01</totfact>
</mgrwt>
</event>
<event>
 6    1  0.1762360E-005  0.1769194E+04  0.7818608E-02  0.8722855E-01
         -2   -1    0    0    0  501 -0.00000000000E+00  0.00000000000E+00  0.10171985875E+04  0.10171985875E+04  0.00000000000E+00 0.  1.
          2   -1    0    0  501    0  0.00000000000E+00 -0.00000000000E+00 -0.76928158909E+03  0.76928158909E+03  0.00000000000E+00 0. -1.
         23    2    1    2    0    0 -0.44529363661E+02  0.44856398716E+03  0.89011840963E+03  0.10018687011E+04  0.90761205037E+02 0.  0.
         11    1    3    3    0    0 -0.41285786008E+02  0.76784204142E+02  0.14629108158E+03  0.17029800551E+03  0.00000000000E+00 0. -1.
        -11    1    3    3    0    0 -0.32435776534E+01  0.37177978302E+03  0.74382732805E+03  0.83157069562E+03  0.00000000000E+00 0.  1.
         22    1    1    2    0    0  0.44529363661E+02 -0.44856398716E+03 -0.64220141123E+03  0.78461147544E+03  0.00000000000E+00 0. -1.
<mgrwt>
<rscale>  0 0.17691943E+04</rscale>
<asrwt>0</asrwt>
<pdfrwt beam="1">  1        2 0.11835101E+00 0.17691943E+04</pdfrwt>
<pdfrwt beam="2">  1       -2 0.15649209E+00 0.17691943E+04</pdfrwt>
<totfact> 0.91799574E+00</totfact>
</mgrwt>
</event>
<event>
 6    1  0.1762360E-005  0.1165640E+04  0.7818608E-02  0.9143475E-01
          2   -1    0    0  501    0  0.00000000000E+00  0.00000000000E+00  0.70551007503E+03  0.70551007503E+03  0.00000000000E+00 0. -1.
         -2   -1    0    0    0  501 -0.00000000000E+00 -0.00000000000E+00 -0.48146645652E+03  0.48146645652E+03  0.00000000000E+00 0.  1.
         23    2    1    2    0    0  0.31209742456E+03  0.48553592695E+03  0.16256048667E+03  0.60651971638E+03  0.91051171149E+02 0.  0.
         13    1    3    3    0    0  0.30346493053E+03  0.47098712891E+03  0.17330818193E+03  0.58647725070E+03  0.00000000000E+00 0. -1.
        -13    1    3    3    0    0  0.86324940231E+01  0.14548798032E+02 -0.10747695262E+02  0.20042465683E+02  0.00000000000E+00 0.  1.
         22    1    1    2    0    0 -0.31209742456E+03 -0.48553592695E+03  0.61483131849E+02  0.58045681517E+03  0.00000000000E+00 0. -1.
<mgrwt>
<rscale>  0 0.11656405E+04</rscale>
<asrwt>0</asrwt>
<pdfrwt beam="1">  1        2 0.10854001E+00 0.11656405E+04</pdfrwt>
<pdfrwt beam="2">  1       -2 0.74071762E-01 0.11656405E+04</pdfrwt>
<totfact> 0.65887866E+01</totfact>
</mgrwt>
</event>
<event>
 6    1  0.1762360E-005  0.3760341E+04  0.7818608E-02  0.8054720E-01
          2   -1    0    0  501    0  0.00000000000E+00  0.00000000000E+00  0.32239444822E+04  0.32239444822E+04  0.00000000000E+00 0. -1.
         -2   -1    0    0    0  501 -0.00000000000E+00 -0.00000000000E+00 -0.10964956650E+04  0.10964956650E+04  0.00000000000E+00 0.  1.
         23    2    1    2    0    0 -0.10140851149E+04  0.15247135996E+04  0.15488423253E+04  0.24000480900E+04  0.90543383775E+02 0.  0.
         11    1    3    3    0    0 -0.59873140726E+03  0.88853873927E+03  0.96370068025E+03  0.14410757754E+04  0.00000000000E+00 0.  1.
        -11    1    3    3    0    0 -0.41535370765E+03  0.63617486034E+03  0.58514164508E+03  0.95897231461E+03  0.00000000000E+00 0. -1.
         22    1    1    2    0    0  0.10140851149E+04 -0.15247135996E+04  0.57860649179E+03  0.19203920572E+04  0.00000000000E+00 0.  1.
<mgrwt>
<rscale>  0 0.37603410E+04</rscale>
<asrwt>0</asrwt>
<pdfrwt beam="1">  1        2 0.49599146E+00 0.37603410E+04</pdfrwt>
<pdfrwt beam="2">  1       -2 0.16869164E+00 0.37603410E+04</pdfrwt>
<totfact> 0.21886625E-01</totfact>
</mgrwt>
</event>
<event>
 6    1  0.1762360E-005  0.4241754E+04  0.7818608E-02  0.7957477E-01
         -1   -1    0    0    0  501 -0.00000000000E+00  0.00000000000E+00  0.19432287986E+04  0.19432287986E+04  0.00000000000E+00 0.  1.
          1   -1    0    0  501    0  0.00000000000E+00 -0.00000000000E+00 -0.23147656802E+04  0.23147656802E+04  0.00000000000E+00 0. -1.
         23    2    1    2    0    0 -0.80515500659E+03 -0.13952949525E+04  0.11974113803E+04  0.20092790149E+04  0.91025034908E+02 0.  0.
         11    1    3    3    0    0 -0.20634146710E+03 -0.32824145517E+03  0.24406506622E+03  0.45813427125E+03  0.00000000000E+00 0. -1.
        -11    1    3    3    0    0 -0.59881353949E+03 -0.10670534973E+04  0.95334631410E+03  0.15511447437E+04  0.00000000000E+00 0.  1.
         22    1    1    2    0    0  0.80515500659E+03  0.13952949525E+04 -0.15689482619E+04  0.22487154639E+04  0.00000000000E+00 0. -1.
<mgrwt>
<rscale>  0 0.42417540E+04</rscale>
<asrwt>0</asrwt>
<pdfrwt beam="1">  1        1 0.35611780E+00 0.42417540E+04</pdfrwt>
<pdfrwt beam="2">  1       -1 0.29895828E+00 0.42417540E+04</pdfrwt>
<totfact> 0.46803762E-02</totfact>
</mgrwt>
</event>
<event>
 6    1  0.1762360E-005  0.3891521E+04  0.7818608E-02  0.8026795E-01
         -2   -1    0    0    0  501 -0.00000000000E+00  0.00000000000E+00  0.15628615986E+04  0.15628615986E+04  0.00000000000E+00 0.  1.
          2   -1    0    0  501    0  0.00000000000E+00 -0.00000000000E+00 -0.24224695132E+04  0.24224695132E+04  0.00000000000E+00 0. -1.
         23    2    1    2    0    0  0.60596857955E+03 -0.68727579443E+03 -0.21866979565E+04  0.23726582014E+04  0.91175932704E+02 0.  0.
         13    1    3    3    0    0  0.26113149790E+03 -0.32507299736E+03 -0.88891843252E+03  0.98185441512E+03  0.00000000000E+00 0.  1.
        -13    1    3    3    0    0  0.34483708165E+03 -0.36220279707E+03 -0.12977795239E+04  0.13908037862E+04  0.00000000000E+00 0. -1.
         22    1    1    2    0    0 -0.60596857955E+03  0.68727579443E+03  0.13270900418E+04  0.16126729105E+04  0.00000000000E+00 0.  1.
<mgrwt>
<rscale>  0 0.38915213E+04</rscale>
<asrwt>0</asrwt>
<pdfrwt beam="1">  1        2 0.37268762E+00 0.38915213E+04</pdfrwt>
<pdfrwt beam="2">  1       -2 0.24044025E+00 0.38915213E+04</pdfrwt>
<totfact> 0.22608264E-01</totfact>
</mgrwt>
</event>
<event>
 6    1  0.1762360E-005  0.5789143E+03  0.7818608E-02  0.9950144E-01
          2   -1    0    0  501    0  0.00000000000E+00  0.00000000000E+00  0.14179674077E+04  0.14179674077E+04  0.00000000000E+00 0.  1.
         -2   -1    0    0    0  501 -0.00000000000E+00 -0.00000000000E+00 -0.59088415955E+02  0.59088415955E+02  0.00000000000E+00 0. -1.
         23    2    1    2    0    0 -0.27346596486E+03 -0.70345124375E+02  0.68005281960E+03  0.74184358052E+03  0.90155366239E+02 0.  0.
         13    1    3    3    0    0 -0.19949500696E+03 -0.91459221211E+02  0.49922713582E+03  0.54533547481E+03  0.00000000000E+00 0. -1.
        -13    1    3    3    0    0 -0.73970957893E+02  0.21114096837E+02  0.18082568377E+03  0.19650810571E+03  0.00000000000E+00 0.  1.
         22    1    1    2    0    0  0.27346596486E+03  0.70345124375E+02  0.67882617213E+03  0.73521224312E+03  0.00000000000E+00 0.  1.
<mgrwt>
<rscale>  0 0.57891432E+03</rscale>
<asrwt>0</asrwt>
<pdfrwt beam="1">  1        2 0.21814881E+00 0.57891432E+03</pdfrwt>
<pdfrwt beam="2">  1       -2 0.90905266E-02 0.57891432E+03</pdfrwt>
<totfact> 0.11515652E+03</totfact>
</mgrwt>
</event>
<event>
 6    1  0.1762360E-005  0.1452682E+04  0.7818608E-02  0.8916543E-01
         -1   -1    0    0    0  501 -0.00000000000E+00  0.00000000000E+00  0.67267888527E+03  0.67267888527E+03  0.00000000000E+00 0.  1.
          1   -1    0    0  501    0  0.00000000000E+00 -0.00000000000E+00 -0.78428409103E+03  0.78428409103E+03  0.00000000000E+00 0. -1.
         23    2    1    2    0    0  0.33343555610E+03 -0.63361068047E+03 -0.16117613029E+03  0.73925896975E+03  0.88793664780E+02 0.  0.
         13    1    3    3    0    0  0.12340944321E+03 -0.19575752056E+03 -0.90706848931E+02  0.24855307275E+03  0.00000000000E+00 0. -1.
        -13    1    3    3    0    0  0.21002611289E+03 -0.43785315991E+03 -0.70469281355E+02  0.49070589700E+03  0.00000000000E+00 0.  1.
         22    1    1    2    0    0 -0.33343555610E+03  0.63361068047E+03  0.49570924525E+02  0.71770400656E+03  0.00000000000E+00 0.  1.
<mgrwt>
<rscale>  0 0.14526821E+04</rscale>
<asrwt>0</asrwt>
<pdfrwt beam="1">  1        1 0.12065909E+00 0.14526821E+04</pdfrwt>
<pdfrwt beam="2">  1       -1 0.10348906E+00 0.14526821E+04</pdfrwt>
<totfact> 0.19522942E+01</totfact>
</mgrwt>
</event>
<event>
 6    1  0.1762360E-005  0.2050033E+04  0.7818608E-02  0.8583579E-01
          1   -1    0    0  501    0  0.00000000000E+00  0.00000000000E+00  0.59851660145E+03  0.59851660145E+03  0.00000000000E+00 0. -1.
         -1   -1    0    0    0  501 -0.00000000000E+00 -0.00000000000E+00 -0.17554379216E+04  0.17554379216E+04  0.00000000000E+00 0.  1.
         23    2    1    2    0    0 -0.53717684710E+03  0.23462011194E+03  0.38310202518E+03  0.70614462318E+03  0.90925822291E+02 0.  0.
         11    1    3    3    0    0 -0.13720175698E+03  0.99765413157E+02  0.87880981248E+02  0.19105111003E+03  0.00000000000E+00 0.  1.
        -11    1    3    3    0    0 -0.39997509013E+03  0.13485469878E+03  0.29522104393E+03  0.51509351315E+03  0.00000000000E+00 0. -1.
         22    1    1    2    0    0  0.53717684710E+03 -0.23462011194E+03 -0.15400233453E+04  0.16478098999E+04  0.00000000000E+00 0.  1.
<mgrwt>
<rscale>  0 0.20500329E+04</rscale>
<asrwt>0</asrwt>
<pdfrwt beam="1">  1        1 0.92079478E-01 0.20500329E+04</pdfrwt>
<pdfrwt beam="2">  1       -1 0.27006737E+00 0.20500329E+04</pdfrwt>
<totfact> 0.16389894E+00</totfact>
</mgrwt>
</event>
<event>
 6    1  0.1762360E-005  0.1122049E+04  0.7818608E-02  0.9183964E-01
         -2   -1    0    0    0  501 -0.00000000000E+00  0.00000000000E+00  0.13986074409E+03  0.13986074409E+03  0.00000000000E+00 0.  1.
          2   -1    0    0  501    0  0.00000000000E+00 -0.00000000000E+00 -0.22504412080E+04  0.22504412080E+04  0.00000000000E+00 0. -1.
         23    2    1    2    0    0 -0.38314905006E+03 -0.24134381285E+03 -0.17544434406E+04  0.18142085482E+04  0.90723976137E+02 0.  0.
         11    1    3    3    0    0 -0.31740409064E+03 -0.19634153670E+03 -0.12870000555E+04  0.13400240664E+04  0.00000000000E+00 0. -1.
        -11    1    3    3    0    0 -0.65744959425E+02 -0.45002276146E+02 -0.46744338507E+03  0.47418448181E+03  0.00000000000E+00 0.  1.
         22    1    1    2    0    0  0.38314905006E+03  0.24134381285E+03 -0.35613702339E+03  0.57609340388E+03  0.00000000000E+00 0.  1.
<mgrwt>
<rscale>  0 0.11220488E+04</rscale>
<asrwt>0</asrwt>
<pdfrwt beam="1">  1        2 0.34622174E+00 0.11220488E+04</pdfrwt>
<pdfrwt beam="2">  1       -2 0.21517037E-01 0.11220488E+04</pdfrwt>
<totfact> 0.90494060E+01</totfact>
</mgrwt>
</event>
<event>
 6    1  0.1762360E-005  0.2569255E+04  0.7818608E-02  0.8378720E-01
          2   -1    0    0  501    0  0.00000000000E+00  0.00000000000E+00  0.21093651141E+04  0.21093651141E+04  0.00000000000E+00 0. -1.
         -2   -1    0    0    0  501 -0.00000000000E+00 -0.00000000000E+00 -0.78235267420E+03  0.78235267420E+03  0.00000000000E+00 0.  1.
         23    2    1    2    0    0  0.53900025401E+03  0.14517909737E+03 -0.63585814006E+03  0.85101713464E+03  0.91193996750E+02 0.  0.
         13    1    3    3    0    0  0.33658847965E+03  0.80843267799E+02 -0.32707018531E+03  0.47623769769E+03  0.00000000000E+00 0.  1.
        -13    1    3    3    0    0  0.20241177436E+03  0.64335829573E+02 -0.30878795475E+03  0.37477943695E+03  0.00000000000E+00 0. -1.
         22    1    1    2    0    0 -0.53900025401E+03 -0.14517909737E+03  0.19628705799E+04  0.20407006536E+04  0.00000000000E+00 0. -1.
<mgrwt>
<rscale>  0 0.25692547E+04</rscale>
<asrwt>0</asrwt>
<pdfrwt beam="1">  1        2 0.32451771E+00 0.25692547E+04</pdfrwt>
<pdfrwt beam="2">  1       -2 0.12036195E+00 0.25692547E+04</pdfrwt>
<totfact> 0.27132101E+00</totfact>
</mgrwt>
</event>
<event>
 6    1  0.1762360E-005  0.2420321E+04  0.7818608E-02  0.8431935E-01
          2   -1    0    0  501    0  0.00000000000E+00  0.00000000000E+00  0.24428896703E+04  0.24428896703E+04  0.00000000000E+00 0. -1.
         -2   -1    0    0    0  501 -0.00000000000E+00 -0.00000000000E+00 -0.59949038289E+03  0.59949038289E+03  0.00000000000E+00 0.  1.
         23    2    1    2    0    0  0.50201880344E+03  0.10195213617E+03  0.22988038414E+04  0.23569528691E+04  0.91162540309E+02 0.  0.
         13    1    3    3    0    0  0.14253205557E+03  0.50950960675E+02  0.52581410118E+03  0.54716711913E+03  0.00000000000E+00 0. -1.
        -13    1    3    3    0    0  0.35948674787E+03  0.51001175499E+02  0.17729897402E+04  0.18097857499E+04  0.00000000000E+00 0.  1.
         22    1    1    2    0    0 -0.50201880344E+03 -0.10195213617E+03 -0.45540455393E+03  0.68542718418E+03  0.00000000000E+00 0.  1.
<mgrwt>
<rscale>  0 0.24203214E+04</rscale>
<asrwt>0</asrwt>
<pdfrwt beam="1">  1        2 0.37582918E+00 0.24203214E+04</pdfrwt>
<pdfrwt beam="2">  1       -2 0.92229291E-01 0.24203214E+04</pdfrwt>
<totfact> 0.33667162E+00</totfact>
</mgrwt>
</event>
<event>
 6    1  0.1762360E-005  0.2068943E+04  0.7818608E-02  0.8575049E-01
         -1   -1    0    0    0  501 -0.00000000000E+00  0.00000000000E+00  0.99583932808E+03  0.99583932808E+03  0.00000000000E+00 0.  1.
          1   -1    0    0  501    0  0.00000000000E+00 -0.00000000000E+00 -0.10746021490E+04  0.10746021490E+04  0.00000000000E+00 0. -1.
         23    2    1    2    0    0  0.32053155083E+03 -0.47876794825E+03  0.81796483199E+03  0.10045710784E+04  0.90207326761E+02 0.  0.
         11    1    3    3    0    0  0.25760102606E+02 -0.87556568193E+02  0.16138629095E+03  0.18540569146E+03  0.00000000000E+00 0. -1.
        -11    1    3    3    0    0  0.29477144823E+03 -0.39121138006E+03  0.65657854104E+03  0.81916538692E+03  0.00000000000E+00 0.  1.
         22    1    1    2    0    0 -0.32053155083E+03  0.47876794825E+03 -0.89672765295E+03  0.10658703987E+04  0.00000000000E+00 0. -1.
<mgrwt>
<rscale>  0 0.20689428E+04</rscale>
<asrwt>0</asrwt>
<pdfrwt beam="1">  1        1 0.16532341E+00 0.20689428E+04</pdfrwt>
<pdfrwt beam="2">  1       -1 0.15320605E+00 0.20689428E+04</pdfrwt>
<totfact> 0.40265454E+00</totfact>
</mgrwt>
</event>
<event>
 6    1  0.1762360E-005  0.2845736E+04  0.7818608E-02  0.8289208E-01
         -4   -1    0    0    0  501 -0.00000000000E+00  0.00000000000E+00  0.17465487777E+04  0.17465487777E+04  0.00000000000E+00 0.  1.
          4   -1    0    0  501    0  0.00000000000E+00 -0.00000000000E+00 -0.11591736198E+04  0.11591736198E+04  0.00000000000E+00 0. -1.
         23    2    1    2    0    0 -0.50633503017E+03 -0.12504146244E+04  0.75122728940E+03  0.15467671308E+04  0.90742608056E+02 0.  0.
         13    1    3    3    0    0 -0.18071694226E+03 -0.46480761129E+03  0.22863988218E+03  0.54861728414E+03  0.00000000000E+00 0.  1.
        -13    1    3    3    0    0 -0.32561808791E+03 -0.78560701315E+03  0.52258740722E+03  0.99814984670E+03  0.00000000000E+00 0. -1.
         22    1    1    2    0    0  0.50633503017E+03  0.12504146244E+04 -0.16385213144E+03  0.13589552667E+04  0.00000000000E+00 0. -1.
<mgrwt>
<rscale>  0 0.28457359E+04</rscale>
<asrwt>0</asrwt>
<pdfrwt beam="1">  1        4 0.17833440E+00 0.28457359E+04</pdfrwt>
<pdfrwt beam="2">  1       -4 0.26869981E+00 0.28457359E+04</pdfrwt>
<totfact> 0.15382225E-02</totfact>
</mgrwt>
</event>
<event>
 6    1  0.1762360E-005  0.8022209E+03  0.7818608E-02  0.9556808E-01
         -1   -1    0    0    0  501 -0.00000000000E+00  0.00000000000E+00  0.63853353302E+03  0.63853353302E+03  0.00000000000E+00 0.  1.
          1   -1    0    0  501    0  0.00000000000E+00 -0.00000000000E+00 -0.25196736270E+03  0.25196736270E+03  0.00000000000E+00 0. -1.
         23    2    1    2    0    0  0.69934718758E+02  0.43850676519E+02  0.62570350330E+03  0.63751787110E+03  0.90057843723E+02 0.  0.
         13    1    3    3    0    0  0.53316598756E+02  0.58128912815E+02  0.59256330145E+03  0.59779001031E+03  0.00000000000E+00 0. -1.
        -13    1    3    3    0    0  0.16618120002E+02 -0.14278236297E+02  0.33140201852E+02  0.39727860790E+02  0.00000000000E+00 0.  1.
         22    1    1    2    0    0 -0.69934718758E+02 -0.43850676519E+02 -0.23913733298E+03  0.25298302462E+03  0.00000000000E+00 0. -1.
<mgrwt>
<rscale>  0 0.80222094E+03</rscale>
<asrwt>0</asrwt>
<pdfrwt beam="1">  1        1 0.38764210E-01 0.80222094E+03</pdfrwt>
<pdfrwt beam="2">  1       -1 0.98235928E-01 0.80222094E+03</pdfrwt>
<totfact> 0.11064416E+02</totfact>
</mgrwt>
</event>
<event>
 6    1  0.1762360E-005  0.1890766E+04  0.7818608E-02  0.8659466E-01
          1   -1    0    0  501    0  0.00000000000E+00  0.00000000000E+00  0.76473997962E+03  0.76473997962E+03  0.00000000000E+00 0.  1.
         -1   -1    0    0    0  501 -0.00000000000E+00 -0.00000000000E+00 -0.11686970758E+04  0.11686970758E+04  0.00000000000E+00 0. -1.
         23    2    1    2    0    0 -0.61613535977E+03  0.42448713992E+03  0.38482540304E+03  0.84624344590E+03  0.90693248934E+02 0.  0.
         11    1    3    3    0    0 -0.20830910336E+03  0.95404854324E+02  0.13171295939E+03  0.26427839950E+03  0.00000000000E+00 0. -1.
        -11    1    3    3    0    0 -0.40782625641E+03  0.32908228559E+03  0.25311244365E+03  0.58196504640E+03  0.00000000000E+00 0.  1.
         22    1    1    2    0    0  0.61613535977E+03 -0.42448713992E+03 -0.78878249924E+03  0.10871936095E+04  0.00000000000E+00 0. -1.
<mgrwt>
<rscale>  0 0.18907664E+04</rscale>
<asrwt>0</asrwt>
<pdfrwt beam="1">  1        1 0.11765230E+00 0.18907664E+04</pdfrwt>
<pdfrwt beam="2">  1       -1 0.17979955E+00 0.18907664E+04</pdfrwt>
<totfact> 0.46441663E+00</totfact>
</mgrwt>
</event>
<event>
 6    1  0.1762360E-005  0.3837835E+04  0.7818608E-02  0.8038084E-01
          2   -1    0    0  501    0  0.00000000000E+00  0.00000000000E+00  0.30393046757E+04  0.30393046757E+04  0.00000000000E+00 0. -1.
         -2   -1    0    0    0  501 -0.00000000000E+00 -0.00000000000E+00 -0.12115416890E+04  0.12115416890E+04  0.00000000000E+00 0.  1.
         23    2    1    2    0    0 -0.74468318173E+03  0.11256564215E+04  0.24235567067E+04  0.27755072250E+04  0.90320677665E+02 0.  0.
         11    1    3    3    0    0 -0.56465249995E+03  0.88165752311E+03  0.19473322726E+04  0.22109399389E+04  0.00000000000E+00 0. -1.
        -11    1    3    3    0    0 -0.18003068179E+03  0.24399889837E+03  0.47622443413E+03  0.56456728603E+03  0.00000000000E+00 0.  1.
         22    1    1    2    0    0  0.74468318173E+03 -0.11256564215E+04 -0.59579372008E+03  0.14753391397E+04  0.00000000000E+00 0.  1.
<mgrwt>
<rscale>  0 0.38378350E+04</rscale>
<asrwt>0</asrwt>
<pdfrwt beam="1">  1        2 0.46758533E+00 0.38378350E+04</pdfrwt>
<pdfrwt beam="2">  1       -2 0.18639103E+00 0.38378350E+04</pdfrwt>
<totfact> 0.21537755E-01</totfact>
</mgrwt>
</event>
<event>
 6    1  0.1762360E-005  0.2631990E+04  0.7818608E-02  0.8357415E-01
         -1   -1    0    0    0  501 -0.00000000000E+00  0.00000000000E+00  0.15136620127E+04  0.15136620127E+04  0.00000000000E+00 0.  1.
          1   -1    0    0  501    0  0.00000000000E+00 -0.00000000000E+00 -0.11441413539E+04  0.11441413539E+04  0.00000000000E+00 0. -1.
         23    2    1    2    0    0  0.98682193866E+03  0.69911323103E+03  0.70482961448E+03  0.14028097633E+04  0.92269161983E+02 0.  0.
         11    1    3    3    0    0  0.40272816398E+03  0.26692674511E+03  0.23255347958E+03  0.53620983037E+03  0.00000000000E+00 0. -1.
        -11    1    3    3    0    0  0.58409377468E+03  0.43218648592E+03  0.47227613490E+03  0.86659993297E+03  0.00000000000E+00 0.  1.
         22    1    1    2    0    0 -0.98682193866E+03 -0.69911323103E+03 -0.33530895574E+03  0.12549936033E+04  0.00000000000E+00 0. -1.
<mgrwt>
<rscale>  0 0.26319904E+04</rscale>
<asrwt>0</asrwt>
<pdfrwt beam="1">  1        1 0.17602175E+00 0.26319904E+04</pdfrwt>
<pdfrwt beam="2">  1       -1 0.23287108E+00 0.26319904E+04</pdfrwt>
<totfact> 0.93231096E-01</totfact>
</mgrwt>
</event>
<event>
 6    1  0.1762360E-005  0.1881544E+04  0.7818608E-02  0.8664098E-01
         -2   -1    0    0    0  501 -0.00000000000E+00  0.00000000000E+00  0.54833538183E+03  0.54833538183E+03  0.00000000000E+00 0.  1.
          2   -1    0    0  501    0  0.00000000000E+00 -0.00000000000E+00 -0.16140702583E+04  0.16140702583E+04  0.00000000000E+00 0. -1.
         23    2    1    2    0    0 -0.11078533256E+03 -0.89366087772E+03 -0.22998228434E+03  0.93383510917E+03  0.90846055033E+02 0.  0.
         11    1    3    3    0    0 -0.71568503477E+02 -0.43307180880E+03 -0.15516731738E+03  0.46556432279E+03  0.00000000000E+00 0. -1.
        -11    1    3    3    0    0 -0.39216829084E+02 -0.46058906892E+03 -0.74814966954E+02  0.46827078638E+03  0.00000000000E+00 0.  1.
         22    1    1    2    0    0  0.11078533256E+03  0.89366087772E+03 -0.83575259210E+03  0.12285705309E+04  0.00000000000E+00 0. -1.
<mgrwt>
<rscale>  0 0.18815439E+04</rscale>
<asrwt>0</asrwt>
<pdfrwt beam="1">  1        2 0.24831850E+00 0.18815439E+04</pdfrwt>
<pdfrwt beam="2">  1       -2 0.84359290E-01 0.18815439E+04</pdfrwt>
<totfact> 0.12591630E+01</totfact>
</mgrwt>
</event>
<event>
 6    1  0.1762360E-005  0.2801242E+03  0.7818608E-02  0.1095621E+00
         -1   -1    0    0    0  501 -0.00000000000E+00  0.00000000000E+00  0.29331068656E+02  0.29331068656E+02  0.00000000000E+00 0.  1.
          1   -1    0    0  501    0  0.00000000000E+00 -0.00000000000E+00 -0.66882650272E+03  0.66882650272E+03  0.00000000000E+00 0. -1.
         23    2    1    2    0    0 -0.99172295760E+02 -0.60590767003E+02 -0.22731751197E+03  0.26990878299E+03  0.87584899352E+02 0.  0.
         13    1    3    3    0    0 -0.64626633352E+02 -0.82332558478E+02 -0.16634150244E+03  0.19653179732E+03  0.00000000000E+00 0. -1.
        -13    1    3    3    0    0 -0.34545662407E+02  0.21741791475E+02 -0.60976009524E+02  0.73376985664E+02  0.00000000000E+00 0.  1.
         22    1    1    2    0    0  0.99172295760E+02  0.60590767003E+02 -0.41217792210E+03  0.42824878840E+03  0.00000000000E+00 0. -1.
<mgrwt>
<rscale>  0 0.28012423E+03</rscale>
<asrwt>0</asrwt>
<pdfrwt beam="1">  1        1 0.10289637E+00 0.28012423E+03</pdfrwt>
<pdfrwt beam="2">  1       -1 0.45124727E-02 0.28012423E+03</pdfrwt>
<totfact> 0.61723103E+03</totfact>
</mgrwt>
</event>
<event>
 6    1  0.1762360E-005  0.1760157E+04  0.7818608E-02  0.8727779E-01
          2   -1    0    0  501    0  0.00000000000E+00  0.00000000000E+00  0.34170505491E+03  0.34170505491E+03  0.00000000000E+00 0. -1.
         -2   -1    0    0    0  501 -0.00000000000E+00 -0.00000000000E+00 -0.22666875517E+04  0.22666875517E+04  0.00000000000E+00 0.  1.
         23    2    1    2    0    0 -0.20413595813E+03 -0.76344558485E+03 -0.15309544542E+04  0.17253417877E+04  0.91989635877E+02 0.  0.
         11    1    3    3    0    0 -0.17744564592E+03 -0.50826724141E+03 -0.10697065910E+04  0.11975369459E+04  0.00000000000E+00 0.  1.
        -11    1    3    3    0    0 -0.26690312207E+02 -0.25517834344E+03 -0.46124786323E+03  0.52780484183E+03  0.00000000000E+00 0. -1.
         22    1    1    2    0    0  0.20413595813E+03  0.76344558485E+03 -0.39402804259E+03  0.88305081891E+03  0.00000000000E+00 0.  1.
<mgrwt>
<rscale>  0 0.17601575E+04</rscale>
<asrwt>0</asrwt>
<pdfrwt beam="1">  1        2 0.52570008E-01 0.17601575E+04</pdfrwt>
<pdfrwt beam="2">  1       -2 0.34872117E+00 0.17601575E+04</pdfrwt>
<totfact> 0.14306491E+00</totfact>
</mgrwt>
</event>
<event>
 6    1  0.1762360E-005  0.1098138E+04  0.7818608E-02  0.9207009E-01
         -2   -1    0    0    0  501 -0.00000000000E+00  0.00000000000E+00  0.16026281479E+03  0.16026281479E+03  0.00000000000E+00 0.  1.
          2   -1    0    0  501    0  0.00000000000E+00 -0.00000000000E+00 -0.18811390740E+04  0.18811390740E+04  0.00000000000E+00 0. -1.
         23    2    1    2    0    0  0.32881843843E+03 -0.36158770539E+02 -0.16726002760E+04  0.17070972483E+04  0.84618612821E+02 0.  0.
         13    1    3    3    0    0  0.99389507540E+02  0.13868889038E+02 -0.36323844843E+03  0.37684584476E+03  0.00000000000E+00 0.  1.
        -13    1    3    3    0    0  0.22942893089E+03 -0.50027659576E+02 -0.13093618276E+04  0.13302514035E+04  0.00000000000E+00 0. -1.
         22    1    1    2    0    0 -0.32881843843E+03  0.36158770539E+02 -0.48275983238E+02  0.33430464055E+03  0.00000000000E+00 0.  1.
<mgrwt>
<rscale>  0 0.10981378E+04</rscale>
<asrwt>0</asrwt>
<pdfrwt beam="1">  1        2 0.28940603E+00 0.10981378E+04</pdfrwt>
<pdfrwt beam="2">  1       -2 0.24655816E-01 0.10981378E+04</pdfrwt>
<totfact> 0.11376455E+02</totfact>
</mgrwt>
</event>
<event>
 6    1  0.1762360E-005  0.3535842E+04  0.7818608E-02  0.8105348E-01
         -2   -1    0    0    0  501 -0.00000000000E+00  0.00000000000E+00  0.34092200488E+04  0.34092200488E+04  0.00000000000E+00 0.  1.
          2   -1    0    0  501    0  0.00000000000E+00 -0.00000000000E+00 -0.91679149635E+03  0.91679149635E+03  0.00000000000E+00 0. -1.
         23    2    1    2    0    0  0.88868944430E+03 -0.10568515893E+04 -0.10144316628E+03  0.13874958138E+04  0.90275727517E+02 0.  0.
         11    1    3    3    0    0  0.62221578451E+03 -0.69183806732E+03 -0.39284354641E+02  0.93130857099E+03  0.00000000000E+00 0.  1.
        -11    1    3    3    0    0  0.26647365979E+03 -0.36501352201E+03 -0.62158811642E+02  0.45618724278E+03  0.00000000000E+00 0. -1.
         22    1    1    2    0    0 -0.88868944430E+03  0.10568515893E+04  0.25938717187E+04  0.29385157314E+04  0.00000000000E+00 0.  1.
<mgrwt>
<rscale>  0 0.35358416E+04</rscale>
<asrwt>0</asrwt>
<pdfrwt beam="1">  1        2 0.14104485E+00 0.35358416E+04</pdfrwt>
<pdfrwt beam="2">  1       -2 0.52449539E+00 0.35358416E+04</pdfrwt>
<totfact> 0.27483915E-02</totfact>
</mgrwt>
</event>
<event>
 6    1  0.1762360E-005  0.1874002E+04  0.7818608E-02  0.8667907E-01
          1   -1    0    0  501    0  0.00000000000E+00  0.00000000000E+00  0.96929959783E+03  0.96929959783E+03  0.00000000000E+00 0. -1.
         -1   -1    0    0    0  501 -0.00000000000E+00 -0.00000000000E+00 -0.90577835836E+03  0.90577835836E+03  0.00000000000E+00 0.  1.
         23    2    1    2    0    0 -0.20694948561E+03 -0.38039435526E+03 -0.79708504083E+03  0.91166157435E+03  0.90853226246E+02 0.  0.
         13    1    3    3    0    0 -0.10587192697E+03 -0.14752270138E+03 -0.25463015972E+03  0.31274323427E+03  0.00000000000E+00 0.  1.
        -13    1    3    3    0    0 -0.10107755864E+03 -0.23287165388E+03 -0.54245488111E+03  0.59891834008E+03  0.00000000000E+00 0. -1.
         22    1    1    2    0    0  0.20694948561E+03  0.38039435526E+03  0.86060628030E+03  0.96341638184E+03  0.00000000000E+00 0. -1.
<mgrwt>
<rscale>  0 0.18740017E+04</rscale>
<asrwt>0</asrwt>
<pdfrwt beam="1">  1        1 0.14912302E+00 0.18740017E+04</pdfrwt>
<pdfrwt beam="2">  1       -1 0.13935052E+00 0.18740017E+04</pdfrwt>
<totfact> 0.63655660E+00</totfact>
</mgrwt>
</event>
<event>
 6    1  0.1762360E-005  0.3103315E+04  0.7818608E-02  0.8214829E-01
         -2   -1    0    0    0  501 -0.00000000000E+00  0.00000000000E+00  0.11601510301E+04  0.11601510301E+04  0.00000000000E+00 0.  1.
          2   -1    0    0  501    0  0.00000000000E+00 -0.00000000000E+00 -0.20752819705E+04  0.20752819705E+04  0.00000000000E+00 0. -1.
         23    2    1    2    0    0  0.81222164452E+03 -0.12517174862E+04 -0.19360488901E+02  0.14950579356E+04  0.91229036886E+02 0.  0.
         11    1    3    3    0    0  0.33188636707E+03 -0.58168867615E+03 -0.33123929656E+02  0.67052775582E+03  0.00000000000E+00 0. -1.
        -11    1    3    3    0    0  0.48033527744E+03 -0.67002881003E+03  0.13763440755E+02  0.82453017976E+03  0.00000000000E+00 0.  1.
         22    1    1    2    0    0 -0.81222164452E+03  0.12517174862E+04 -0.89577045147E+03  0.17403750650E+04  0.00000000000E+00 0.  1.
<mgrwt>
<rscale>  0 0.31033147E+04</rscale>
<asrwt>0</asrwt>
<pdfrwt beam="1">  1        2 0.31927414E+00 0.31033147E+04</pdfrwt>
<pdfrwt beam="2">  1       -2 0.17848478E+00 0.31033147E+04</pdfrwt>
<totfact> 0.95647744E-01</totfact>
</mgrwt>
</event>
<event>
 6    1  0.1762360E-005  0.2991057E+04  0.7818608E-02  0.8246289E-01
          2   -1    0    0  501    0  0.00000000000E+00  0.00000000000E+00  0.13602726188E+04  0.13602726188E+04  0.00000000000E+00 0. -1.
         -2   -1    0    0    0  501 -0.00000000000E+00 -0.00000000000E+00 -0.16442331614E+04  0.16442331614E+04  0.00000000000E+00 0.  1.
         23    2    1    2    0    0 -0.82172412714E+03 -0.10818251995E+04 -0.76719478896E+03  0.15626002215E+04  0.86921256347E+02 0.  0.
         13    1    3    3    0    0 -0.41140455263E+03 -0.47149679800E+03 -0.34261226011E+03  0.71340458172E+03  0.00000000000E+00 0. -1.
        -13    1    3    3    0    0 -0.41031957450E+03 -0.61032840148E+03 -0.42458252885E+03  0.84919563982E+03  0.00000000000E+00 0.  1.
         22    1    1    2    0    0  0.82172412714E+03  0.10818251995E+04  0.48323424633E+03  0.14419055587E+04  0.00000000000E+00 0. -1.
<mgrwt>
<rscale>  0 0.29910569E+04</rscale>
<asrwt>0</asrwt>
<pdfrwt beam="1">  1        2 0.20927271E+00 0.29910569E+04</pdfrwt>
<pdfrwt beam="2">  1       -2 0.25295895E+00 0.29910569E+04</pdfrwt>
<totfact> 0.80517373E-01</totfact>
</mgrwt>
</event>
<event>
 6    1  0.1762360E-005  0.2259787E+04  0.7818608E-02  0.8493948E-01
          2   -1    0    0  501    0  0.00000000000E+00  0.00000000000E+00  0.19065908815E+04  0.19065908815E+04  0.00000000000E+00 0. -1.
         -2   -1    0    0    0  501 -0.00000000000E+00 -0.00000000000E+00 -0.66960304920E+03  0.66960304920E+03  0.00000000000E+00 0.  1.
         23    2    1    2    0    0  0.97647564121E+03  0.30995007713E+03  0.11540966726E+04  0.15483589865E+04  0.12610588113E+03 0.  0.
         11    1    3    3    0    0  0.55643774666E+03  0.11148336990E+03  0.64806363121E+03  0.86141626277E+03  0.00000000000E+00 0. -1.
        -11    1    3    3    0    0  0.42003789455E+03  0.19846670723E+03  0.50603304137E+03  0.68694272373E+03  0.00000000000E+00 0.  1.
         22    1    1    2    0    0 -0.97647564121E+03 -0.30995007713E+03  0.82891159743E+02  0.10278349442E+04  0.00000000000E+00 0.  1.
<mgrwt>
<rscale>  0 0.22597868E+04</rscale>
<asrwt>0</asrwt>
<pdfrwt beam="1">  1        2 0.29332167E+00 0.22597868E+04</pdfrwt>
<pdfrwt beam="2">  1       -2 0.10301585E+00 0.22597868E+04</pdfrwt>
<totfact> 0.52701100E+00</totfact>
</mgrwt>
</event>
<event>
 6    1  0.1762360E-005  0.1892019E+04  0.7818608E-02  0.8658839E-01
          2   -1    0    0  501    0  0.00000000000E+00  0.00000000000E+00  0.13139119106E+04  0.13139119106E+04  0.00000000000E+00 0.  1.
         -2   -1    0    0    0  501 -0.00000000000E+00 -0.00000000000E+00 -0.68112198056E+03  0.68112198056E+03  0.00000000000E+00 0. -1.
         23    2    1    2    0    0 -0.35008357356E+03 -0.73375766165E+03 -0.18833671376E+03  0.83952197878E+03  0.91474699232E+02 0.  0.
         13    1    3    3    0    0 -0.11068207739E+03 -0.28331758309E+03 -0.10992350539E+03  0.32342317818E+03  0.00000000000E+00 0. -1.
        -13    1    3    3    0    0 -0.23940149616E+03 -0.45044007856E+03 -0.78413208374E+02  0.51609880060E+03  0.00000000000E+00 0.  1.
         22    1    1    2    0    0  0.35008357356E+03  0.73375766165E+03  0.82112664380E+03  0.11555119124E+04  0.00000000000E+00 0.  1.
<mgrwt>
<rscale>  0 0.18920193E+04</rscale>
<asrwt>0</asrwt>
<pdfrwt beam="1">  1        2 0.20214029E+00 0.18920193E+04</pdfrwt>
<pdfrwt beam="2">  1       -2 0.10478800E+00 0.18920193E+04</pdfrwt>
<totfact> 0.11233916E+01</totfact>
</mgrwt>
</event>
<event>
 6    1  0.1762360E-005  0.2657386E+04  0.7818608E-02  0.8348966E-01
          1   -1    0    0  501    0  0.00000000000E+00  0.00000000000E+00  0.18031771383E+04  0.18031771383E+04  0.00000000000E+00 0. -1.
         -1   -1    0    0    0  501 -0.00000000000E+00 -0.00000000000E+00 -0.97906323079E+03  0.97906323079E+03  0.00000000000E+00 0.  1.
         23    2    1    2    0    0  0.75753257159E+03 -0.11086303313E+03 -0.72236726571E+03  0.10566244709E+04  0.92166136507E+02 0.  0.
         11    1    3    3    0    0  0.25492533675E+03 -0.53324938909E+02 -0.19116011713E+03  0.32306758861E+03  0.00000000000E+00 0.  1.
        -11    1    3    3    0    0  0.50260723484E+03 -0.57538094221E+02 -0.53120714858E+03  0.73355688225E+03  0.00000000000E+00 0. -1.
         22    1    1    2    0    0 -0.75753257159E+03  0.11086303313E+03  0.15464811733E+04  0.17256158983E+04  0.00000000000E+00 0. -1.
<mgrwt>
<rscale>  0 0.26573855E+04</rscale>
<asrwt>0</asrwt>
<pdfrwt beam="1">  1        1 0.27741187E+00 0.26573855E+04</pdfrwt>
<pdfrwt beam="2">  1       -1 0.15062511E+00 0.26573855E+04</pdfrwt>
<totfact> 0.12256207E+00</totfact>
</mgrwt>
</event>
<event>
 6    1  0.1762360E-005  0.2746145E+04  0.7818608E-02  0.8320186E-01
          1   -1    0    0  501    0  0.00000000000E+00  0.00000000000E+00  0.20194728177E+04  0.20194728177E+04  0.00000000000E+00 0. -1.
         -1   -1    0    0    0  501 -0.00000000000E+00 -0.00000000000E+00 -0.93357449205E+03  0.93357449205E+03  0.00000000000E+00 0.  1.
         23    2    1    2    0    0 -0.43523692248E+03 -0.12341308065E+04  0.10183242540E+03  0.13157032035E+04  0.90526519034E+02 0.  0.
         13    1    3    3    0    0 -0.21115399554E+03 -0.72981349379E+03  0.49130496143E+02  0.76133274670E+03  0.00000000000E+00 0. -1.
        -13    1    3    3    0    0 -0.22408292693E+03 -0.50431731269E+03  0.52701929253E+02  0.55437045679E+03  0.00000000000E+00 0.  1.
         22    1    1    2    0    0  0.43523692248E+03  0.12341308065E+04  0.98406590021E+03  0.16373441062E+04  0.00000000000E+00 0. -1.
<mgrwt>
<rscale>  0 0.27461452E+04</rscale>
<asrwt>0</asrwt>
<pdfrwt beam="1">  1        1 0.31068812E+00 0.27461452E+04</pdfrwt>
<pdfrwt beam="2">  1       -1 0.14362685E+00 0.27461452E+04</pdfrwt>
<totfact> 0.98501133E-01</totfact>
</mgrwt>
</event>
<event>
 6    1  0.1762360E-005  0.2852900E+04  0.7818608E-02  0.8287031E-01
         -2   -1    0    0    0  501 -0.00000000000E+00  0.00000000000E+00  0.23715014139E+04  0.23715014139E+04  0.00000000000E+00 0.  1.
          2   -1    0    0  501    0  0.00000000000E+00 -0.00000000000E+00 -0.85800488585E+03  0.85800488585E+03  0.00000000000E+00 0. -1.
         23    2    1    2    0    0  0.10710465757E+04 -0.50846961726E+03 -0.13786056579E+03  0.11966112286E+04  0.84798453355E+02 0.  0.
         13    1    3    3    0    0  0.88363396263E+03 -0.45133666554E+03 -0.10234982752E+03  0.99749148005E+03  0.00000000000E+00 0. -1.
        -13    1    3    3    0    0  0.18741261309E+03 -0.57132951719E+02 -0.35510738265E+02  0.19911974852E+03  0.00000000000E+00 0.  1.
         22    1    1    2    0    0 -0.10710465757E+04  0.50846961726E+03  0.16513570938E+04  0.20328950712E+04  0.00000000000E+00 0.  1.
<mgrwt>
<rscale>  0 0.28529001E+04</rscale>
<asrwt>0</asrwt>
<pdfrwt beam="1">  1        2 0.13200075E+00 0.28529001E+04</pdfrwt>
<pdfrwt beam="2">  1       -2 0.36484637E+00 0.28529001E+04</pdfrwt>
<totfact> 0.33995513E-01</totfact>
</mgrwt>
</event>
<event>
 6    1  0.1762360E-005  0.1904404E+04  0.7818608E-02  0.8652667E-01
         -2   -1    0    0    0  501 -0.00000000000E+00  0.00000000000E+00  0.57074854034E+03  0.57074854034E+03  0.00000000000E+00 0.  1.
          2   -1    0    0  501    0  0.00000000000E+00 -0.00000000000E+00 -0.15885955242E+04  0.15885955242E+04  0.00000000000E+00 0. -1.
         23    2    1    2    0    0 -0.81953687463E+03 -0.46170778696E+03 -0.35920025084E+03  0.10110277804E+04  0.91310367564E+02 0.  0.
         13    1    3    3    0    0 -0.51917462296E+03 -0.25409445644E+03 -0.25132907223E+03  0.63029563260E+03  0.00000000000E+00 0. -1.
        -13    1    3    3    0    0 -0.30036225166E+03 -0.20761333052E+03 -0.10787117861E+03  0.38073214785E+03  0.00000000000E+00 0.  1.
         22    1    1    2    0    0  0.81953687463E+03  0.46170778696E+03 -0.65864673302E+03  0.11483162841E+04  0.00000000000E+00 0. -1.
<mgrwt>
<rscale>  0 0.19044039E+04</rscale>
<asrwt>0</asrwt>
<pdfrwt beam="1">  1        2 0.24439931E+00 0.19044039E+04</pdfrwt>
<pdfrwt beam="2">  1       -2 0.87807469E-01 0.19044039E+04</pdfrwt>
<totfact> 0.11851999E+01</totfact>
</mgrwt>
</event>
<event>
 6    1  0.2602706E-005  0.2853685E+04  0.7818608E-02  0.8286792E-01
          2   -1    0    0  501    0  0.00000000000E+00  0.00000000000E+00  0.18136638301E+04  0.18136638301E+04  0.00000000000E+00 0. -1.
         -2   -1    0    0    0  501 -0.00000000000E+00 -0.00000000000E+00 -0.11225230491E+04  0.11225230491E+04  0.00000000000E+00 0.  1.
         23    2    1    2    0    0  0.55361503912E+02  0.97683577597E+03  0.14124400481E+04  0.17206435184E+04  0.91401304312E+02 0.  0.
         11    1    3    3    0    0 -0.13594548171E+02  0.39048951392E+03  0.51565639990E+03  0.64696861977E+03  0.00000000000E+00 0.  1.
        -11    1    3    3    0    0  0.68956052083E+02  0.58634626205E+03  0.89678364824E+03  0.10736748986E+04  0.00000000000E+00 0. -1.
         22    1    1    2    0    0 -0.55361503912E+02 -0.97683577597E+03 -0.72129926712E+03  0.12155433608E+04  0.00000000000E+00 0.  1.
<mgrwt>
<rscale>  0 0.28536850E+04</rscale>
<asrwt>0</asrwt>
<pdfrwt beam="1">  1        2 0.27902521E+00 0.28536850E+04</pdfrwt>
<pdfrwt beam="2">  1       -2 0.17269585E+00 0.28536850E+04</pdfrwt>
<totfact> 0.14985100E+00</totfact>
</mgrwt>
</event>
<event>
 6    1  0.1762360E-005  0.3662420E+04  0.7818608E-02  0.8076342E-01
         -2   -1    0    0    0  501 -0.00000000000E+00  0.00000000000E+00  0.12478790782E+04  0.12478790782E+04  0.00000000000E+00 0.  1.
          2   -1    0    0  501    0  0.00000000000E+00 -0.00000000000E+00 -0.26872229292E+04  0.26872229292E+04  0.00000000000E+00 0. -1.
         23    2    1    2    0    0  0.77712818552E+03 -0.12726033366E+04  0.41968435720E+03  0.15519458337E+04  0.94622630476E+02 0.  0.
         11    1    3    3    0    0  0.89197541208E+02 -0.20855406543E+03  0.53980987143E+02  0.23316291844E+03  0.00000000000E+00 0. -1.
        -11    1    3    3    0    0  0.68793064431E+03 -0.10640492711E+04  0.36570337006E+03  0.13187829153E+04  0.00000000000E+00 0.  1.
         22    1    1    2    0    0 -0.77712818552E+03  0.12726033366E+04 -0.18590282082E+04  0.23831561736E+04  0.00000000000E+00 0. -1.
<mgrwt>
<rscale>  0 0.36624196E+04</rscale>
<asrwt>0</asrwt>
<pdfrwt beam="1">  1        2 0.41341890E+00 0.36624196E+04</pdfrwt>
<pdfrwt beam="2">  1       -2 0.19198140E+00 0.36624196E+04</pdfrwt>
<totfact> 0.32936144E-01</totfact>
</mgrwt>
</event>
<event>
 6    1  0.1762360E-005  0.1091137E+04  0.7818608E-02  0.9213874E-01
          1   -1    0    0  501    0  0.00000000000E+00  0.00000000000E+00  0.81754406976E+03  0.81754406976E+03  0.00000000000E+00 0. -1.
         -1   -1    0    0    0  501 -0.00000000000E+00 -0.00000000000E+00 -0.36407209084E+03  0.36407209084E+03  0.00000000000E+00 0.  1.
         23    2    1    2    0    0  0.53998450214E+03  0.34955388565E+02  0.19901581184E+03  0.58365873511E+03  0.90802444722E+02 0.  0.
         11    1    3    3    0    0  0.20106630744E+03 -0.15938343961E+02  0.10922853627E+03  0.22937428786E+03  0.00000000000E+00 0. -1.
        -11    1    3    3    0    0  0.33891819470E+03  0.50893732526E+02  0.89787275567E+02  0.35428444725E+03  0.00000000000E+00 0.  1.
         22    1    1    2    0    0 -0.53998450214E+03 -0.34955388565E+02  0.25445616708E+03  0.59795742550E+03  0.00000000000E+00 0. -1.
<mgrwt>
<rscale>  0 0.10911370E+04</rscale>
<asrwt>0</asrwt>
<pdfrwt beam="1">  1        1 0.12577601E+00 0.10911370E+04</pdfrwt>
<pdfrwt beam="2">  1       -1 0.56011091E-01 0.10911370E+04</pdfrwt>
<totfact> 0.68630436E+01</totfact>
</mgrwt>
</event>
<event>
 6    1  0.1977601E-005  0.2865969E+04  0.7818608E-02  0.8283075E-01
         -2   -1    0    0    0  501 -0.00000000000E+00  0.00000000000E+00  0.71628029446E+03  0.71628029446E+03  0.00000000000E+00 0.  1.
          2   -1    0    0  501    0  0.00000000000E+00 -0.00000000000E+00 -0.28668173784E+04  0.28668173784E+04  0.00000000000E+00 0. -1.
         23    2    1    2    0    0 -0.90665231943E+03  0.50576704255E+03  0.15604723145E+03  0.10536412226E+04  0.89388801874E+02 0.  0.
         13    1    3    3    0    0 -0.51031282190E+03  0.30059739960E+03  0.13139698522E+03  0.60666559204E+03  0.00000000000E+00 0. -1.
        -13    1    3    3    0    0 -0.39633949753E+03  0.20516964295E+03  0.24650246225E+02  0.44697563057E+03  0.00000000000E+00 0.  1.
         22    1    1    2    0    0  0.90665231943E+03 -0.50576704255E+03 -0.23065843154E+04  0.25294564502E+04  0.00000000000E+00 0. -1.
<mgrwt>
<rscale>  0 0.28659692E+04</rscale>
<asrwt>0</asrwt>
<pdfrwt beam="1">  1        2 0.44104883E+00 0.28659692E+04</pdfrwt>
<pdfrwt beam="2">  1       -2 0.11019697E+00 0.28659692E+04</pdfrwt>
<totfact> 0.11915973E+00</totfact>
</mgrwt>
</event>
<event>
 6    1  0.1762360E-005  0.3854977E+04  0.7818608E-02  0.8034459E-01
          2   -1    0    0  501    0  0.00000000000E+00  0.00000000000E+00  0.19088653359E+04  0.19088653359E+04  0.00000000000E+00 0. -1.
         -2   -1    0    0    0  501 -0.00000000000E+00 -0.00000000000E+00 -0.19462937934E+04  0.19462937934E+04  0.00000000000E+00 0.  1.
         23    2    1    2    0    0 -0.15930679473E+04  0.10501125308E+04  0.24641301384E+03  0.19261262646E+04  0.92958063982E+02 0.  0.
         11    1    3    3    0    0 -0.10338543729E+04  0.71662091736E+03  0.12915501066E+03  0.12645479115E+04  0.00000000000E+00 0. -1.
        -11    1    3    3    0    0 -0.55921357437E+03  0.33349161344E+03  0.11725800318E+03  0.66157835311E+03  0.00000000000E+00 0.  1.
         22    1    1    2    0    0  0.15930679473E+04 -0.10501125308E+04 -0.28384147132E+03  0.19290328647E+04  0.00000000000E+00 0. -1.
<mgrwt>
<rscale>  0 0.38549774E+04</rscale>
<asrwt>0</asrwt>
<pdfrwt beam="1">  1        2 0.29367159E+00 0.38549774E+04</pdfrwt>
<pdfrwt beam="2">  1       -2 0.29942981E+00 0.38549774E+04</pdfrwt>
<totfact> 0.19201236E-01</totfact>
</mgrwt>
</event>
<event>
 6    1  0.1762360E-005  0.2089598E+04  0.7818608E-02  0.8565840E-01
         -2   -1    0    0    0  501 -0.00000000000E+00  0.00000000000E+00  0.11905172186E+04  0.11905172186E+04  0.00000000000E+00 0.  1.
          2   -1    0    0  501    0  0.00000000000E+00 -0.00000000000E+00 -0.91691638430E+03  0.91691638430E+03  0.00000000000E+00 0. -1.
         23    2    1    2    0    0  0.75359673763E+03  0.28026571708E+01  0.86395337990E+03  0.11501290401E+04  0.92007980430E+02 0.  0.
         13    1    3    3    0    0  0.40486596976E+03  0.46316080602E+02  0.47876869797E+03  0.62871384504E+03  0.00000000000E+00 0.  1.
        -13    1    3    3    0    0  0.34873076787E+03 -0.43513423431E+02  0.38518468193E+03  0.52141519509E+03  0.00000000000E+00 0. -1.
         22    1    1    2    0    0 -0.75359673763E+03 -0.28026571708E+01 -0.59035254558E+03  0.95730456278E+03  0.00000000000E+00 0. -1.
<mgrwt>
<rscale>  0 0.20895978E+04</rscale>
<asrwt>0</asrwt>
<pdfrwt beam="1">  1        2 0.14106406E+00 0.20895978E+04</pdfrwt>
<pdfrwt beam="2">  1       -2 0.18315650E+00 0.20895978E+04</pdfrwt>
<totfact> 0.45421470E+00</totfact>
</mgrwt>
</event>
<event>
 6    1  0.1762360E-005  0.1288351E+04  0.7818608E-02  0.9038854E-01
         -2   -1    0    0    0  501 -0.00000000000E+00  0.00000000000E+00  0.13600132317E+04  0.13600132317E+04  0.00000000000E+00 0.  1.
          2   -1    0    0  501    0  0.00000000000E+00 -0.00000000000E+00 -0.30511633038E+03  0.30511633038E+03  0.00000000000E+00 0. -1.
         23    2    1    2    0    0 -0.12981724435E+03  0.26191588280E+03 -0.20736508263E+03  0.36946071445E+03  0.89713407220E+02 0.  0.
         13    1    3    3    0    0 -0.57846608320E+02  0.19102965142E+03 -0.16854893906E+03  0.26124184710E+03  0.00000000000E+00 0. -1.
        -13    1    3    3    0    0 -0.71970636030E+02  0.70886231379E+02 -0.38816143566E+02  0.10821886735E+03  0.00000000000E+00 0.  1.
         22    1    1    2    0    0  0.12981724435E+03 -0.26191588280E+03  0.12622619839E+04  0.12956688476E+04  0.00000000000E+00 0.  1.
<mgrwt>
<rscale>  0 0.12883513E+04</rscale>
<asrwt>0</asrwt>
<pdfrwt beam="1">  1        2 0.46940975E-01 0.12883513E+04</pdfrwt>
<pdfrwt beam="2">  1       -2 0.20923280E+00 0.12883513E+04</pdfrwt>
<totfact> 0.12234346E+01</totfact>
</mgrwt>
</event>
<event>
 6    1  0.1762360E-005  0.1392334E+04  0.7818608E-02  0.8959386E-01
         -2   -1    0    0    0  501 -0.00000000000E+00  0.00000000000E+00  0.31334101979E+03  0.31334101979E+03  0.00000000000E+00 0.  1.
          2   -1    0    0  501    0  0.00000000000E+00 -0.00000000000E+00 -0.15467127610E+04  0.15467127610E+04  0.00000000000E+00 0. -1.
         23    2    1    2    0    0  0.66262162462E+03 -0.84212676955E+02 -0.37167638312E+03  0.76978863757E+03  0.90950648140E+02 0.  0.
         13    1    3    3    0    0  0.55090775607E+03 -0.86550253426E+02 -0.27384245693E+03  0.62127288150E+03  0.00000000000E+00 0. -1.
        -13    1    3    3    0    0  0.11171386855E+03  0.23375764708E+01 -0.97833926183E+02  0.14851575607E+03  0.00000000000E+00 0.  1.
         22    1    1    2    0    0 -0.66262162462E+03  0.84212676955E+02 -0.86169535811E+03  0.10902651432E+04  0.00000000000E+00 0.  1.
<mgrwt>
<rscale>  0 0.13923341E+04</rscale>
<asrwt>0</asrwt>
<pdfrwt beam="1">  1        2 0.23795582E+00 0.13923341E+04</pdfrwt>
<pdfrwt beam="2">  1       -2 0.48206309E-01 0.13923341E+04</pdfrwt>
<totfact> 0.47416003E+01</totfact>
</mgrwt>
</event>
<event>
 6    1  0.1762360E-005  0.1131594E+04  0.7818608E-02  0.9174934E-01
          1   -1    0    0  501    0  0.00000000000E+00  0.00000000000E+00  0.11104355872E+04  0.11104355872E+04  0.00000000000E+00 0. -1.
         -1   -1    0    0    0  501 -0.00000000000E+00 -0.00000000000E+00 -0.28828897546E+03  0.28828897546E+03  0.00000000000E+00 0.  1.
         23    2    1    2    0    0 -0.61312099462E+01  0.14237788738E+03  0.10861265706E+04  0.10987337740E+04  0.85064236836E+02 0.  0.
         11    1    3    3    0    0 -0.43482896636E+02  0.61805500905E+02  0.57574257112E+03  0.58068079909E+03  0.00000000000E+00 0. -1.
        -11    1    3    3    0    0  0.37351686690E+02  0.80572386470E+02  0.51038399944E+03  0.51805297494E+03  0.00000000000E+00 0.  1.
         22    1    1    2    0    0  0.61312099462E+01 -0.14237788738E+03 -0.26397995886E+03  0.29999078857E+03  0.00000000000E+00 0.  1.
<mgrwt>
<rscale>  0 0.11315942E+04</rscale>
<asrwt>0</asrwt>
<pdfrwt beam="1">  1        1 0.17083624E+00 0.11315942E+04</pdfrwt>
<pdfrwt beam="2">  1       -1 0.44352151E-01 0.11315942E+04</pdfrwt>
<totfact> 0.62270408E+01</totfact>
</mgrwt>
</event>
<event>
 6    1  0.1762360E-005  0.1439257E+04  0.7818608E-02  0.8925882E-01
         -2   -1    0    0    0  501 -0.00000000000E+00  0.00000000000E+00  0.38691148318E+03  0.38691148318E+03  0.00000000000E+00 0.  1.
          2   -1    0    0  501    0  0.00000000000E+00 -0.00000000000E+00 -0.13384598384E+04  0.13384598384E+04  0.00000000000E+00 0. -1.
         23    2    1    2    0    0 -0.10447384141E+03  0.56496401729E+03  0.35925995822E+02  0.58291575644E+03  0.91656846765E+02 0.  0.
         11    1    3    3    0    0 -0.75350352061E+02  0.17384327609E+03  0.17553815811E+02  0.19028215010E+03  0.00000000000E+00 0. -1.
        -11    1    3    3    0    0 -0.29123489350E+02  0.39112074120E+03  0.18372180011E+02  0.39263360634E+03  0.00000000000E+00 0.  1.
         22    1    1    2    0    0  0.10447384141E+03 -0.56496401729E+03 -0.98747435107E+03  0.11424555652E+04  0.00000000000E+00 0. -1.
<mgrwt>
<rscale>  0 0.14392574E+04</rscale>
<asrwt>0</asrwt>
<pdfrwt beam="1">  1        2 0.20591690E+00 0.14392574E+04</pdfrwt>
<pdfrwt beam="2">  1       -2 0.59524843E-01 0.14392574E+04</pdfrwt>
<totfact> 0.40133981E+01</totfact>
</mgrwt>
</event>
<event>
 6    1  0.1762360E-005  0.2233428E+04  0.7818608E-02  0.8504642E-01
         -1   -1    0    0    0  501 -0.00000000000E+00  0.00000000000E+00  0.15524609104E+04  0.15524609104E+04  0.00000000000E+00 0.  1.
          1   -1    0    0  501    0  0.00000000000E+00 -0.00000000000E+00 -0.80327284363E+03  0.80327284363E+03  0.00000000000E+00 0. -1.
         23    2    1    2    0    0  0.28473866846E+02  0.37847253015E+03  0.14809514396E+04  0.15313977479E+04  0.88936373685E+02 0.  0.
         13    1    3    3    0    0  0.40172675799E+02  0.18718317922E+03  0.59842793734E+03  0.62830516682E+03  0.00000000000E+00 0. -1.
        -13    1    3    3    0    0 -0.11698808952E+02  0.19128935093E+03  0.88252350231E+03  0.90309258110E+03  0.00000000000E+00 0.  1.
         22    1    1    2    0    0 -0.28473866846E+02 -0.37847253015E+03 -0.73176337285E+03  0.82433600614E+03  0.00000000000E+00 0. -1.
<mgrwt>
<rscale>  0 0.22334276E+04</rscale>
<asrwt>0</asrwt>
<pdfrwt beam="1">  1        1 0.12358044E+00 0.22334276E+04</pdfrwt>
<pdfrwt beam="2">  1       -1 0.23884014E+00 0.22334276E+04</pdfrwt>
<totfact> 0.16474189E+00</totfact>
</mgrwt>
</event>
<event>
 6    1  0.1762360E-005  0.1944134E+04  0.7818608E-02  0.8633194E-01
         -2   -1    0    0    0  501 -0.00000000000E+00  0.00000000000E+00  0.33816062179E+03  0.33816062179E+03  0.00000000000E+00 0.  1.
          2   -1    0    0  501    0  0.00000000000E+00 -0.00000000000E+00 -0.27942773930E+04  0.27942773930E+04  0.00000000000E+00 0. -1.
         23    2    1    2    0    0 -0.74556061303E+02  0.48689774413E+03 -0.25769315618E+04  0.26252652306E+04  0.93878843333E+02 0.  0.
         13    1    3    3    0    0 -0.93636637133E+02  0.45065195708E+03 -0.23858514481E+04  0.24298440565E+04  0.00000000000E+00 0. -1.
        -13    1    3    3    0    0  0.19080575830E+02  0.36245787056E+02 -0.19108011364E+03  0.19542117409E+03  0.00000000000E+00 0.  1.
         22    1    1    2    0    0  0.74556061303E+02 -0.48689774413E+03  0.12081479050E+03  0.50717278429E+03  0.00000000000E+00 0.  1.
<mgrwt>
<rscale>  0 0.19441343E+04</rscale>
<asrwt>0</asrwt>
<pdfrwt beam="1">  1        2 0.42988883E+00 0.19441343E+04</pdfrwt>
<pdfrwt beam="2">  1       -2 0.52024711E-01 0.19441343E+04</pdfrwt>
<totfact> 0.76016953E+00</totfact>
</mgrwt>
</event>
<event>
 6    1  0.1762360E-005  0.2428838E+04  0.7818608E-02  0.8428785E-01
         -2   -1    0    0    0  501 -0.00000000000E+00  0.00000000000E+00  0.11071641277E+04  0.11071641277E+04  0.00000000000E+00 0. -1.
          2   -1    0    0  501    0  0.00000000000E+00 -0.00000000000E+00 -0.13320642757E+04  0.13320642757E+04  0.00000000000E+00 0.  1.
         23    2    1    2    0    0  0.63001048089E+03  0.76016684160E+03  0.59497415982E+03  0.11558887314E+04  0.85543412804E+02 0.  0.
         11    1    3    3    0    0  0.43831362498E+03  0.56460578323E+03  0.46540771578E+03  0.85293778566E+03  0.00000000000E+00 0. -1.
        -11    1    3    3    0    0  0.19169685590E+03  0.19556105837E+03  0.12956644404E+03  0.30295094576E+03  0.00000000000E+00 0.  1.
         22    1    1    2    0    0 -0.63001048089E+03 -0.76016684160E+03 -0.81987430780E+03  0.12833396720E+04  0.00000000000E+00 0.  1.
<mgrwt>
<rscale>  0 0.24288382E+04</rscale>
<asrwt>0</asrwt>
<pdfrwt beam="1">  1        2 0.20493297E+00 0.24288382E+04</pdfrwt>
<pdfrwt beam="2">  1       -2 0.17033294E+00 0.24288382E+04</pdfrwt>
<totfact> 0.30117541E+00</totfact>
</mgrwt>
</event>
<event>
 6    1  0.1762360E-005  0.3567097E+04  0.7818608E-02  0.8098070E-01
          1   -1    0    0  501    0  0.00000000000E+00  0.00000000000E+00  0.12999330603E+04  0.12999330603E+04  0.00000000000E+00 0. -1.
         -1   -1    0    0    0  501 -0.00000000000E+00 -0.00000000000E+00 -0.24470842220E+04  0.24470842220E+04  0.00000000000E+00 0.  1.
         23    2    1    2    0    0  0.77344466430E+03 -0.97822942229E+03  0.76376420568E+03  0.14651875357E+04  0.91045600583E+02 0.  0.
         13    1    3    3    0    0  0.64386289091E+03 -0.78395709006E+03  0.58463602115E+03  0.11708746383E+04  0.00000000000E+00 0. -1.
        -13    1    3    3    0    0  0.12958177339E+03 -0.19427233222E+03  0.17912818454E+03  0.29431289737E+03  0.00000000000E+00 0.  1.
         22    1    1    2    0    0 -0.77344466430E+03  0.97822942229E+03 -0.19109153674E+04  0.22818297466E+04  0.00000000000E+00 0.  1.
<mgrwt>
<rscale>  0 0.35670972E+04</rscale>
<asrwt>0</asrwt>
<pdfrwt beam="1">  1        1 0.19998970E+00 0.35670972E+04</pdfrwt>
<pdfrwt beam="2">  1       -1 0.37647449E+00 0.35670972E+04</pdfrwt>
<totfact> 0.75804114E-02</totfact>
</mgrwt>
</event>
<event>
 6    1  0.1762360E-005  0.1798472E+04  0.7818608E-02  0.8707113E-01
         -2   -1    0    0    0  501 -0.00000000000E+00  0.00000000000E+00  0.35052834331E+03  0.35052834331E+03  0.00000000000E+00 0.  1.
          2   -1    0    0  501    0  0.00000000000E+00 -0.00000000000E+00 -0.23068749469E+04  0.23068749469E+04  0.00000000000E+00 0. -1.
         23    2    1    2    0    0  0.87774492939E+02 -0.11562941296E+03 -0.22884801878E+04  0.22949295112E+04  0.92116061573E+02 0.  0.
         11    1    3    3    0    0  0.38322666142E+02 -0.47965008911E+02 -0.40905729537E+03  0.41363890015E+03  0.00000000000E+00 0. -1.
        -11    1    3    3    0    0  0.49451826798E+02 -0.67664404053E+02 -0.18794228924E+04  0.18812906111E+04  0.00000000000E+00 0.  1.
         22    1    1    2    0    0 -0.87774492939E+02  0.11562941296E+03  0.33213358416E+03  0.36247377903E+03  0.00000000000E+00 0.  1.
<mgrwt>
<rscale>  0 0.17984716E+04</rscale>
<asrwt>0</asrwt>
<pdfrwt beam="1">  1        2 0.35490382E+00 0.17984716E+04</pdfrwt>
<pdfrwt beam="2">  1       -2 0.53927440E-01 0.17984716E+04</pdfrwt>
<totfact> 0.13747456E+01</totfact>
</mgrwt>
</event>
<event>
 6    1  0.1762360E-005  0.4589493E+03  0.7818608E-02  0.1025086E+00
         -1   -1    0    0    0  501 -0.00000000000E+00  0.00000000000E+00  0.39322615222E+02  0.39322615222E+02  0.00000000000E+00 0.  1.
          1   -1    0    0  501    0  0.00000000000E+00 -0.00000000000E+00 -0.13391430710E+04  0.13391430710E+04  0.00000000000E+00 0. -1.
         23    2    1    2    0    0  0.15454555922E+03  0.83443891712E+02 -0.27187417841E+03  0.33562305088E+03  0.88769648282E+02 0.  0.
         11    1    3    3    0    0  0.12558531120E+03  0.52873431215E+02 -0.25713514076E+03  0.29100816266E+03  0.00000000000E+00 0. -1.
        -11    1    3    3    0    0  0.28960248019E+02  0.30570460497E+02 -0.14739037649E+02  0.44614888223E+02  0.00000000000E+00 0.  1.
         22    1    1    2    0    0 -0.15454555922E+03 -0.83443891712E+02 -0.10279462773E+04  0.10428426353E+04  0.00000000000E+00 0. -1.
<mgrwt>
<rscale>  0 0.45894927E+03</rscale>
<asrwt>0</asrwt>
<pdfrwt beam="1">  1        1 0.20602202E+00 0.45894927E+03</pdfrwt>
<pdfrwt beam="2">  1       -1 0.60496328E-02 0.45894927E+03</pdfrwt>
<totfact> 0.12025903E+03</totfact>
</mgrwt>
</event>
<event>
 6    1  0.1762360E-005  0.1686008E+04  0.7818608E-02  0.8769385E-01
          2   -1    0    0  501    0  0.00000000000E+00  0.00000000000E+00  0.25971184006E+04  0.25971184006E+04  0.00000000000E+00 0. -1.
         -2   -1    0    0    0  501 -0.00000000000E+00 -0.00000000000E+00 -0.27363246936E+03  0.27363246936E+03  0.00000000000E+00 0.  1.
         23    2    1    2    0    0 -0.13598867715E+03  0.24228085610E+03  0.25158774833E+04  0.25328049529E+04  0.90931209858E+02 0.  0.
         11    1    3    3    0    0 -0.45931806433E+02  0.16098694715E+03  0.12580303153E+04  0.12691204837E+04  0.00000000000E+00 0. -1.
        -11    1    3    3    0    0 -0.90056870715E+02  0.81293908945E+02  0.12578471680E+04  0.12636844692E+04  0.00000000000E+00 0.  1.
         22    1    1    2    0    0  0.13598867715E+03 -0.24228085610E+03 -0.19239155206E+03  0.33794591705E+03  0.00000000000E+00 0.  1.
<mgrwt>
<rscale>  0 0.16860082E+04</rscale>
<asrwt>0</asrwt>
<pdfrwt beam="1">  1        2 0.39955666E+00 0.16860082E+04</pdfrwt>
<pdfrwt beam="2">  1       -2 0.42097305E-01 0.16860082E+04</pdfrwt>
<totfact> 0.15598381E+01</totfact>
</mgrwt>
</event>
<event>
 6    1  0.1762360E-005  0.8146232E+03  0.7818608E-02  0.9539089E-01
          2   -1    0    0  501    0  0.00000000000E+00  0.00000000000E+00  0.20392672203E+03  0.20392672203E+03  0.00000000000E+00 0. -1.
         -2   -1    0    0    0  501 -0.00000000000E+00 -0.00000000000E+00 -0.81354096423E+03  0.81354096423E+03  0.00000000000E+00 0.  1.
         23    2    1    2    0    0 -0.28087627130E+03  0.24233904728E+03 -0.11518615446E+03  0.39934243393E+03  0.92665180836E+02 0.  0.
         11    1    3    3    0    0 -0.32935829987E+02  0.74392748652E+02 -0.39602822410E+02  0.90484437843E+02  0.00000000000E+00 0. -1.
        -11    1    3    3    0    0 -0.24794044132E+03  0.16794629863E+03 -0.75583332051E+02  0.30885799609E+03  0.00000000000E+00 0.  1.
         22    1    1    2    0    0  0.28087627130E+03 -0.24233904728E+03 -0.49442808774E+03  0.61812525232E+03  0.00000000000E+00 0.  1.
<mgrwt>
<rscale>  0 0.81462321E+03</rscale>
<asrwt>0</asrwt>
<pdfrwt beam="1">  1        2 0.31373342E-01 0.81462321E+03</pdfrwt>
<pdfrwt beam="2">  1       -2 0.12516015E+00 0.81462321E+03</pdfrwt>
<totfact> 0.81403832E+01</totfact>
</mgrwt>
</event>
<event>
 6    1  0.1762360E-005  0.1698167E+04  0.7818608E-02  0.8762410E-01
          2   -1    0    0  501    0  0.00000000000E+00  0.00000000000E+00  0.10156958276E+04  0.10156958276E+04  0.00000000000E+00 0. -1.
         -2   -1    0    0    0  501 -0.00000000000E+00 -0.00000000000E+00 -0.70980195398E+03  0.70980195398E+03  0.00000000000E+00 0.  1.
         23    2    1    2    0    0  0.44015440034E+03 -0.53892308826E+03  0.64339679032E+03  0.95214003121E+03  0.91854330581E+02 0.  0.
         11    1    3    3    0    0  0.30882543725E+03 -0.41512846020E+03  0.43082482129E+03  0.67328657777E+03  0.00000000000E+00 0.  1.
        -11    1    3    3    0    0  0.13132896309E+03 -0.12379462807E+03  0.21257196902E+03  0.27885345345E+03  0.00000000000E+00 0. -1.
         22    1    1    2    0    0 -0.44015440034E+03  0.53892308826E+03 -0.33750291673E+03  0.77335775034E+03  0.00000000000E+00 0.  1.
<mgrwt>
<rscale>  0 0.16981671E+04</rscale>
<asrwt>0</asrwt>
<pdfrwt beam="1">  1        2 0.15626090E+00 0.16981671E+04</pdfrwt>
<pdfrwt beam="2">  1       -2 0.10920030E+00 0.16981671E+04</pdfrwt>
<totfact> 0.15665495E+01</totfact>
</mgrwt>
</event>
<event>
 6    1  0.1762360E-005  0.1463097E+04  0.7818608E-02  0.8909371E-01
         -1   -1    0    0    0  501 -0.00000000000E+00  0.00000000000E+00  0.25693680716E+03  0.25693680716E+03  0.00000000000E+00 0.  1.
          1   -1    0    0  501    0  0.00000000000E+00 -0.00000000000E+00 -0.20828579864E+04  0.20828579864E+04  0.00000000000E+00 0. -1.
         23    2    1    2    0    0 -0.66112295097E+03  0.30602382867E+03 -0.88519233374E+03  0.11499608132E+04  0.90057005622E+02 0.  0.
         13    1    3    3    0    0 -0.27611669331E+03  0.17067133953E+03 -0.35773244467E+03  0.48305448599E+03  0.00000000000E+00 0.  1.
        -13    1    3    3    0    0 -0.38500625765E+03  0.13535248914E+03 -0.52745988906E+03  0.66690632724E+03  0.00000000000E+00 0. -1.
         22    1    1    2    0    0  0.66112295097E+03 -0.30602382867E+03 -0.94072884555E+03  0.11898339804E+04  0.00000000000E+00 0. -1.
<mgrwt>
<rscale>  0 0.14630966E+04</rscale>
<asrwt>0</asrwt>
<pdfrwt beam="1">  1        1 0.32043971E+00 0.14630966E+04</pdfrwt>
<pdfrwt beam="2">  1       -1 0.39528737E-01 0.14630966E+04</pdfrwt>
<totfact> 0.15825089E+01</totfact>
</mgrwt>
</event>
<event>
 6    1  0.1762360E-005  0.1645376E+04  0.7818608E-02  0.8793147E-01
         -2   -1    0    0    0  501 -0.00000000000E+00  0.00000000000E+00  0.95082580247E+03  0.95082580247E+03  0.00000000000E+00 0.  1.
          2   -1    0    0  501    0  0.00000000000E+00 -0.00000000000E+00 -0.71181880277E+03  0.71181880277E+03  0.00000000000E+00 0. -1.
         23    2    1    2    0    0  0.35322615981E+03  0.11630098450E+03  0.85865907573E+03  0.93996671412E+03  0.89148058554E+02 0.  0.
         13    1    3    3    0    0  0.13449587306E+03  0.78159077712E+02  0.42895559828E+03  0.45629035339E+03  0.00000000000E+00 0.  1.
        -13    1    3    3    0    0  0.21873028675E+03  0.38141906789E+02  0.42970347745E+03  0.48367636073E+03  0.00000000000E+00 0. -1.
         22    1    1    2    0    0 -0.35322615981E+03 -0.11630098450E+03 -0.61965207603E+03  0.72267789111E+03  0.00000000000E+00 0. -1.
<mgrwt>
<rscale>  0 0.16453762E+04</rscale>
<asrwt>0</asrwt>
<pdfrwt beam="1">  1        2 0.10951059E+00 0.16453762E+04</pdfrwt>
<pdfrwt beam="2">  1       -2 0.14628089E+00 0.16453762E+04</pdfrwt>
<totfact> 0.12265981E+01</totfact>
</mgrwt>
</event>
<event>
 6    1  0.1762360E-005  0.3445461E+04  0.7818608E-02  0.8126838E-01
         -2   -1    0    0    0  501 -0.00000000000E+00  0.00000000000E+00  0.20019381560E+04  0.20019381560E+04  0.00000000000E+00 0.  1.
          2   -1    0    0  501    0  0.00000000000E+00 -0.00000000000E+00 -0.14824634109E+04  0.14824634109E+04  0.00000000000E+00 0. -1.
         23    2    1    2    0    0  0.15514963032E+04  0.70008401390E+03  0.51995605598E+03  0.17822680124E+04  0.94162427725E+02 0.  0.
         11    1    3    3    0    0  0.32432147439E+03  0.14632095995E+03  0.14920988233E+03  0.38582098317E+03  0.00000000000E+00 0. -1.
        -11    1    3    3    0    0  0.12271748288E+04  0.55376305395E+03  0.37074617365E+03  0.13964470293E+04  0.00000000000E+00 0.  1.
         22    1    1    2    0    0 -0.15514963032E+04 -0.70008401390E+03 -0.48131088166E+00  0.17021335544E+04  0.00000000000E+00 0.  1.
<mgrwt>
<rscale>  0 0.34454608E+04</rscale>
<asrwt>0</asrwt>
<pdfrwt beam="1">  1        2 0.22807129E+00 0.34454608E+04</pdfrwt>
<pdfrwt beam="2">  1       -2 0.30799049E+00 0.34454608E+04</pdfrwt>
<totfact> 0.30429141E-01</totfact>
</mgrwt>
</event>
<event>
 6    1  0.1762360E-005  0.4494464E+04  0.7818608E-02  0.7911607E-01
         -1   -1    0    0    0  501 -0.00000000000E+00  0.00000000000E+00  0.17127898825E+04  0.17127898825E+04  0.00000000000E+00 0.  1.
          1   -1    0    0  501    0  0.00000000000E+00 -0.00000000000E+00 -0.29484356941E+04  0.29484356941E+04  0.00000000000E+00 0. -1.
         23    2    1    2    0    0 -0.31514395906E+03  0.22199800708E+04 -0.47757863382E+03  0.22943092122E+04  0.90256191654E+02 0.  0.
         13    1    3    3    0    0 -0.23770201233E+03  0.15385690644E+04 -0.29364427833E+03  0.15842739582E+04  0.00000000000E+00 0. -1.
        -13    1    3    3    0    0 -0.77441946734E+02  0.68141100644E+03 -0.18393435549E+03  0.71003525401E+03  0.00000000000E+00 0.  1.
         22    1    1    2    0    0  0.31514395906E+03 -0.22199800708E+04 -0.75806717777E+03  0.23669163643E+04  0.00000000000E+00 0.  1.
<mgrwt>
<rscale>  0 0.44944636E+04</rscale>
<asrwt>0</asrwt>
<pdfrwt beam="1">  1        1 0.45360548E+00 0.44944636E+04</pdfrwt>
<pdfrwt beam="2">  1       -1 0.26350614E+00 0.44944636E+04</pdfrwt>
<totfact> 0.27889262E-02</totfact>
</mgrwt>
</event>
<event>
 6    1  0.1762360E-005  0.1461976E+04  0.7818608E-02  0.8910140E-01
         -1   -1    0    0    0  501 -0.00000000000E+00  0.00000000000E+00  0.46805768615E+03  0.46805768615E+03  0.00000000000E+00 0.  1.
          1   -1    0    0  501    0  0.00000000000E+00 -0.00000000000E+00 -0.11416182093E+04  0.11416182093E+04  0.00000000000E+00 0. -1.
         23    2    1    2    0    0  0.36360668810E+03  0.25154595626E+03  0.29890279921E+03  0.54142025888E+03  0.91147252335E+02 0.  0.
         13    1    3    3    0    0  0.20292264870E+03  0.19401619024E+03  0.18387660909E+03  0.33560466445E+03  0.00000000000E+00 0.  1.
        -13    1    3    3    0    0  0.16068403940E+03  0.57529766014E+02  0.11502619012E+03  0.20581559443E+03  0.00000000000E+00 0. -1.
         22    1    1    2    0    0 -0.36360668810E+03 -0.25154595626E+03 -0.97246332234E+03  0.10682556366E+04  0.00000000000E+00 0. -1.
<mgrwt>
<rscale>  0 0.14619756E+04</rscale>
<asrwt>0</asrwt>
<pdfrwt beam="1">  1        1 0.17563357E+00 0.14619756E+04</pdfrwt>
<pdfrwt beam="2">  1       -1 0.72008875E-01 0.14619756E+04</pdfrwt>
<totfact> 0.22285509E+01</totfact>
</mgrwt>
</event>
<event>
 6    1  0.1762360E-005  0.2726495E+04  0.7818608E-02  0.8326459E-01
         -2   -1    0    0    0  501 -0.00000000000E+00  0.00000000000E+00  0.12280390130E+04  0.12280390130E+04  0.00000000000E+00 0.  1.
          2   -1    0    0  501    0  0.00000000000E+00 -0.00000000000E+00 -0.15133423339E+04  0.15133423339E+04  0.00000000000E+00 0. -1.
         23    2    1    2    0    0 -0.13476225125E+04  0.78616177307E+02  0.36269032498E+02  0.13536941639E+04  0.94368994385E+02 0.  0.
         13    1    3    3    0    0 -0.16379907181E+03 -0.17930553773E+02 -0.95792011699E+01  0.16505575355E+03  0.00000000000E+00 0. -1.
        -13    1    3    3    0    0 -0.11838234407E+04  0.96546731080E+02  0.45848233667E+02  0.11886384103E+04  0.00000000000E+00 0.  1.
         22    1    1    2    0    0  0.13476225125E+04 -0.78616177307E+02 -0.32157235334E+03  0.13876871830E+04  0.00000000000E+00 0. -1.
<mgrwt>
<rscale>  0 0.27264948E+04</rscale>
<asrwt>0</asrwt>
<pdfrwt beam="1">  1        2 0.23282190E+00 0.27264948E+04</pdfrwt>
<pdfrwt beam="2">  1       -2 0.18892908E+00 0.27264948E+04</pdfrwt>
<totfact> 0.17212985E+00</totfact>
</mgrwt>
</event>
<event>
 6    1  0.1762360E-005  0.2587724E+04  0.7818608E-02  0.8372383E-01
          2   -1    0    0  501    0  0.00000000000E+00  0.00000000000E+00  0.16992896375E+04  0.16992896375E+04  0.00000000000E+00 0.  1.
         -2   -1    0    0    0  501 -0.00000000000E+00 -0.00000000000E+00 -0.98516376429E+03  0.98516376429E+03  0.00000000000E+00 0. -1.
         23    2    1    2    0    0  0.81787816627E+03 -0.51968683219E+03  0.12443937358E+04  0.15798344157E+04  0.91443495692E+02 0.  0.
         11    1    3    3    0    0  0.49073203621E+03 -0.33042752122E+03  0.82601249888E+03  0.10160201408E+04  0.00000000000E+00 0. -1.
        -11    1    3    3    0    0  0.32714613006E+03 -0.18925931097E+03  0.41838123687E+03  0.56381427489E+03  0.00000000000E+00 0.  1.
         22    1    1    2    0    0 -0.81787816627E+03  0.51968683219E+03 -0.53026786256E+03  0.11046189861E+04  0.00000000000E+00 0. -1.
<mgrwt>
<rscale>  0 0.25877238E+04</rscale>
<asrwt>0</asrwt>
<pdfrwt beam="1">  1        2 0.26142917E+00 0.25877238E+04</pdfrwt>
<pdfrwt beam="2">  1       -2 0.15156366E+00 0.25877238E+04</pdfrwt>
<totfact> 0.25337356E+00</totfact>
</mgrwt>
</event>
<event>
 6    1  0.1762360E-005  0.2055585E+04  0.7818608E-02  0.8581065E-01
          2   -1    0    0  501    0  0.00000000000E+00  0.00000000000E+00  0.90501809824E+03  0.90501809824E+03  0.00000000000E+00 0. -1.
         -2   -1    0    0    0  501 -0.00000000000E+00 -0.00000000000E+00 -0.11672220957E+04  0.11672220957E+04  0.00000000000E+00 0.  1.
         23    2    1    2    0    0  0.82753637885E+03  0.36528415193E+03 -0.61559153337E+03  0.11010905039E+04  0.12328175757E+03 0.  0.
         13    1    3    3    0    0  0.39803876939E+03  0.20573497963E+03 -0.37095655073E+03  0.58169623199E+03  0.00000000000E+00 0.  1.
        -13    1    3    3    0    0  0.42949760947E+03  0.15954917229E+03 -0.24463498264E+03  0.51939427186E+03  0.00000000000E+00 0. -1.
         22    1    1    2    0    0 -0.82753637885E+03 -0.36528415193E+03  0.35338753592E+03  0.97114969007E+03  0.00000000000E+00 0. -1.
<mgrwt>
<rscale>  0 0.20555847E+04</rscale>
<asrwt>0</asrwt>
<pdfrwt beam="1">  1        2 0.13923355E+00 0.20555847E+04</pdfrwt>
<pdfrwt beam="2">  1       -2 0.17957263E+00 0.20555847E+04</pdfrwt>
<totfact> 0.49107844E+00</totfact>
</mgrwt>
</event>
<event>
 6    1  0.1762360E-005  0.3858842E+03  0.7818608E-02  0.1048780E+00
         -1   -1    0    0    0  501 -0.00000000000E+00  0.00000000000E+00  0.24829738411E+03  0.24829738411E+03  0.00000000000E+00 0.  1.
          1   -1    0    0  501    0  0.00000000000E+00 -0.00000000000E+00 -0.14992770423E+03  0.14992770423E+03  0.00000000000E+00 0. -1.
         23    2    1    2    0    0 -0.22980760571E+02  0.17775800947E+03  0.74376641268E+02  0.21738899905E+03  0.97979930873E+02 0.  0.
         13    1    3    3    0    0 -0.42337048137E+02  0.16346715442E+03  0.87283921394E+02  0.19008529442E+03  0.00000000000E+00 0.  1.
        -13    1    3    3    0    0  0.19356287566E+02  0.14290855048E+02 -0.12907280126E+02  0.27303704631E+02  0.00000000000E+00 0. -1.
         22    1    1    2    0    0  0.22980760571E+02 -0.17775800947E+03  0.23993038616E+02  0.18083608929E+03  0.00000000000E+00 0. -1.
<mgrwt>
<rscale>  0 0.38588421E+03</rscale>
<asrwt>0</asrwt>
<pdfrwt beam="1">  1        1 0.23065801E-01 0.38588421E+03</pdfrwt>
<pdfrwt beam="2">  1       -1 0.38199598E-01 0.38588421E+03</pdfrwt>
<totfact> 0.14292494E+03</totfact>
</mgrwt>
</event>
<event>
 6    1  0.2276057E-005  0.2403290E+04  0.7818608E-02  0.8438273E-01
          2   -1    0    0  501    0  0.00000000000E+00  0.00000000000E+00  0.15777927514E+04  0.15777927514E+04  0.00000000000E+00 0.  1.
         -2   -1    0    0    0  501 -0.00000000000E+00 -0.00000000000E+00 -0.91517155754E+03  0.91517155754E+03  0.00000000000E+00 0. -1.
         23    2    1    2    0    0  0.68622294195E+03  0.60196827829E+03  0.11388563604E+04  0.14633684329E+04  0.10576212230E+03 0.  0.
         11    1    3    3    0    0  0.11991443705E+03  0.16300114453E+03  0.24360111985E+03  0.31668651837E+03  0.00000000000E+00 0.  1.
        -11    1    3    3    0    0  0.56630850490E+03  0.43896713377E+03  0.89525524058E+03  0.11466819145E+04  0.00000000000E+00 0. -1.
         22    1    1    2    0    0 -0.68622294195E+03 -0.60196827829E+03 -0.47623516657E+03  0.10295958761E+04  0.00000000000E+00 0. -1.
<mgrwt>
<rscale>  0 0.24032903E+04</rscale>
<asrwt>0</asrwt>
<pdfrwt beam="1">  1        2 0.24273735E+00 0.24032903E+04</pdfrwt>
<pdfrwt beam="2">  1       -2 0.14079562E+00 0.24032903E+04</pdfrwt>
<totfact> 0.36517865E+00</totfact>
</mgrwt>
</event>
<event>
 6    1  0.1762360E-005  0.2967730E+04  0.7818608E-02  0.8253006E-01
         -2   -1    0    0    0  501 -0.00000000000E+00  0.00000000000E+00  0.51812545371E+03  0.51812545371E+03  0.00000000000E+00 0.  1.
          2   -1    0    0  501    0  0.00000000000E+00 -0.00000000000E+00 -0.42496565459E+04  0.42496565459E+04  0.00000000000E+00 0. -1.
         23    2    1    2    0    0  0.11143947814E+03  0.10750256308E+04 -0.23735581532E+03  0.11102746886E+04  0.90957335805E+02 0.  0.
         11    1    3    3    0    0  0.11361618023E+02  0.42737140154E+03 -0.63026276051E+02  0.43214316226E+03  0.00000000000E+00 0. -1.
        -11    1    3    3    0    0  0.10007786012E+03  0.64765422929E+03 -0.17432953927E+03  0.67813152638E+03  0.00000000000E+00 0.  1.
         22    1    1    2    0    0 -0.11143947814E+03 -0.10750256308E+04 -0.34941752768E+04  0.36575073109E+04  0.00000000000E+00 0.  1.
<mgrwt>
<rscale>  0 0.29677299E+04</rscale>
<asrwt>0</asrwt>
<pdfrwt beam="1">  1        2 0.65379333E+00 0.29677299E+04</pdfrwt>
<pdfrwt beam="2">  1       -2 0.79711607E-01 0.29677299E+04</pdfrwt>
<totfact> 0.25152211E-01</totfact>
</mgrwt>
</event>
<event>
 6    1  0.1762360E-005  0.1990044E+04  0.7818608E-02  0.8611290E-01
          3   -1    0    0  501    0  0.00000000000E+00  0.00000000000E+00  0.36197626718E+03  0.36197626718E+03  0.00000000000E+00 0. -1.
         -3   -1    0    0    0  501 -0.00000000000E+00 -0.00000000000E+00 -0.27351759495E+04  0.27351759495E+04  0.00000000000E+00 0.  1.
         23    2    1    2    0    0 -0.35967186151E+03  0.66692911137E+02 -0.26257227028E+04  0.26526528711E+04  0.91300330457E+02 0.  0.
         11    1    3    3    0    0 -0.22687124492E+03 -0.32859122104E+01 -0.15670319068E+04  0.15833730943E+04  0.00000000000E+00 0.  1.
        -11    1    3    3    0    0 -0.13280061659E+03  0.69978823348E+02 -0.10586907960E+04  0.10692797768E+04  0.00000000000E+00 0. -1.
         22    1    1    2    0    0  0.35967186151E+03 -0.66692911137E+02  0.25252302045E+03  0.44449934557E+03  0.00000000000E+00 0. -1.
<mgrwt>
<rscale>  0 0.19900440E+04</rscale>
<asrwt>0</asrwt>
<pdfrwt beam="1">  1        3 0.55688657E-01 0.19900440E+04</pdfrwt>
<pdfrwt beam="2">  1       -3 0.42079630E+00 0.19900440E+04</pdfrwt>
<totfact> 0.62959381E-02</totfact>
</mgrwt>
</event>
<event>
 6    1  0.1762360E-005  0.7041505E+03  0.7818608E-02  0.9710161E-01
          1   -1    0    0  501    0  0.00000000000E+00  0.00000000000E+00  0.37451018843E+03  0.37451018843E+03  0.00000000000E+00 0. -1.
         -1   -1    0    0    0  501 -0.00000000000E+00 -0.00000000000E+00 -0.33098427177E+03  0.33098427177E+03  0.00000000000E+00 0.  1.
         23    2    1    2    0    0 -0.20682689290E+03  0.16253537777E+03  0.24741495993E+03  0.37267941455E+03  0.92090558572E+02 0.  0.
         13    1    3    3    0    0 -0.19691058656E+02  0.32326940278E+02  0.84145729588E+02  0.92267397636E+02  0.00000000000E+00 0. -1.
        -13    1    3    3    0    0 -0.18713583424E+03  0.13020843750E+03  0.16326923034E+03  0.28041201691E+03  0.00000000000E+00 0.  1.
         22    1    1    2    0    0  0.20682689290E+03 -0.16253537777E+03 -0.20388904326E+03  0.33281504566E+03  0.00000000000E+00 0.  1.
<mgrwt>
<rscale>  0 0.70415050E+03</rscale>
<asrwt>0</asrwt>
<pdfrwt beam="1">  1        1 0.57616952E-01 0.70415050E+03</pdfrwt>
<pdfrwt beam="2">  1       -1 0.50920658E-01 0.70415050E+03</pdfrwt>
<totfact> 0.25733061E+02</totfact>
</mgrwt>
</event>
<event>
 6    1  0.1762360E-005  0.3121605E+04  0.7818608E-02  0.8209834E-01
          2   -1    0    0  501    0  0.00000000000E+00  0.00000000000E+00  0.14426253377E+04  0.14426253377E+04  0.00000000000E+00 0. -1.
         -2   -1    0    0    0  501 -0.00000000000E+00 -0.00000000000E+00 -0.16886602006E+04  0.16886602006E+04  0.00000000000E+00 0.  1.
         23    2    1    2    0    0 -0.11852906988E+04 -0.57471151625E+03  0.71417437297E+03  0.15011907116E+04  0.91220336927E+02 0.  0.
         13    1    3    3    0    0 -0.92601253981E+03 -0.40813827578E+03  0.53415695024E+03  0.11442900522E+04  0.00000000000E+00 0.  1.
        -13    1    3    3    0    0 -0.25927815902E+03 -0.16657324047E+03  0.18001742274E+03  0.35690065939E+03  0.00000000000E+00 0. -1.
         22    1    1    2    0    0  0.11852906988E+04  0.57471151625E+03 -0.96020923589E+03  0.16300948268E+04  0.00000000000E+00 0.  1.
<mgrwt>
<rscale>  0 0.31216047E+04</rscale>
<asrwt>0</asrwt>
<pdfrwt beam="1">  1        2 0.22194236E+00 0.31216047E+04</pdfrwt>
<pdfrwt beam="2">  1       -2 0.25979388E+00 0.31216047E+04</pdfrwt>
<totfact> 0.64882393E-01</totfact>
</mgrwt>
</event>
<event>
 6    1  0.1762360E-005  0.2147847E+04  0.7818608E-02  0.8540454E-01
          1   -1    0    0  501    0  0.00000000000E+00  0.00000000000E+00  0.94349792315E+03  0.94349792315E+03  0.00000000000E+00 0. -1.
         -1   -1    0    0    0  501 -0.00000000000E+00 -0.00000000000E+00 -0.12223788884E+04  0.12223788884E+04  0.00000000000E+00 0.  1.
         23    2    1    2    0    0  0.30587915711E+03 -0.37048477503E+03 -0.11058917543E+04  0.12094418307E+04  0.94508952950E+02 0.  0.
         11    1    3    3    0    0  0.36567626864E+02 -0.53900419712E+02 -0.84275223291E+02  0.10651178264E+03  0.00000000000E+00 0.  1.
        -11    1    3    3    0    0  0.26931153025E+03 -0.31658435531E+03 -0.10216165311E+04  0.11029300480E+04  0.00000000000E+00 0. -1.
         22    1    1    2    0    0 -0.30587915711E+03  0.37048477503E+03  0.82701078911E+03  0.95643498085E+03  0.00000000000E+00 0. -1.
<mgrwt>
<rscale>  0 0.21478472E+04</rscale>
<asrwt>0</asrwt>
<pdfrwt beam="1">  1        1 0.14515353E+00 0.21478472E+04</pdfrwt>
<pdfrwt beam="2">  1       -1 0.18805829E+00 0.21478472E+04</pdfrwt>
<totfact> 0.28014958E+00</totfact>
</mgrwt>
</event>
<event>
 6    1  0.1762360E-005  0.3080249E+04  0.7818608E-02  0.8221179E-01
         -1   -1    0    0    0  501 -0.00000000000E+00  0.00000000000E+00  0.22411634764E+04  0.22411634764E+04  0.00000000000E+00 0.  1.
          1   -1    0    0  501    0  0.00000000000E+00 -0.00000000000E+00 -0.10583713923E+04  0.10583713923E+04  0.00000000000E+00 0. -1.
         23    2    1    2    0    0  0.15189650873E+04  0.21247950889E+03  0.72491281714E+03  0.16988925285E+04  0.91294867197E+02 0.  0.
         13    1    3    3    0    0  0.10145687045E+04  0.14928675861E+03  0.53108323013E+03  0.11548530598E+04  0.00000000000E+00 0. -1.
        -13    1    3    3    0    0  0.50439638288E+03  0.63192750281E+02  0.19382958700E+03  0.54403946874E+03  0.00000000000E+00 0.  1.
         22    1    1    2    0    0 -0.15189650873E+04 -0.21247950889E+03  0.45787926696E+03  0.16006423402E+04  0.00000000000E+00 0. -1.
<mgrwt>
<rscale>  0 0.30802489E+04</rscale>
<asrwt>0</asrwt>
<pdfrwt beam="1">  1        1 0.16282637E+00 0.30802489E+04</pdfrwt>
<pdfrwt beam="2">  1       -1 0.34479438E+00 0.30802489E+04</pdfrwt>
<totfact> 0.19382422E-01</totfact>
</mgrwt>
</event>
<event>
 6    1  0.1762360E-005  0.1778969E+04  0.7818608E-02  0.8717564E-01
          1   -1    0    0  501    0  0.00000000000E+00  0.00000000000E+00  0.69720994413E+03  0.69720994413E+03  0.00000000000E+00 0. -1.
         -1   -1    0    0    0  501 -0.00000000000E+00 -0.00000000000E+00 -0.11347839487E+04  0.11347839487E+04  0.00000000000E+00 0.  1.
         23    2    1    2    0    0  0.23862267467E+03  0.38831522199E+03 -0.10036057966E+04  0.11052742205E+04  0.81713005025E+02 0.  0.
         13    1    3    3    0    0  0.11459728312E+03  0.12860119192E+03 -0.31676310950E+03  0.36056853912E+03  0.00000000000E+00 0.  1.
        -13    1    3    3    0    0  0.12402539155E+03  0.25971403006E+03 -0.68684268705E+03  0.74470568140E+03  0.00000000000E+00 0. -1.
         22    1    1    2    0    0 -0.23862267467E+03 -0.38831522199E+03  0.56603179202E+03  0.72671967227E+03  0.00000000000E+00 0. -1.
<mgrwt>
<rscale>  0 0.17789690E+04</rscale>
<asrwt>0</asrwt>
<pdfrwt beam="1">  1        1 0.10726307E+00 0.17789690E+04</pdfrwt>
<pdfrwt beam="2">  1       -1 0.17458214E+00 0.17789690E+04</pdfrwt>
<totfact> 0.59015048E+00</totfact>
</mgrwt>
</event>
<event>
 6    1  0.1762360E-005  0.3073586E+04  0.7818608E-02  0.8223025E-01
          1   -1    0    0  501    0  0.00000000000E+00  0.00000000000E+00  0.11031909017E+04  0.11031909017E+04  0.00000000000E+00 0. -1.
         -1   -1    0    0    0  501 -0.00000000000E+00 -0.00000000000E+00 -0.21408193504E+04  0.21408193504E+04  0.00000000000E+00 0.  1.
         23    2    1    2    0    0  0.35425441181E+03  0.10068135560E+04  0.64576987251E+03  0.12507717734E+04  0.90783126713E+02 0.  0.
         11    1    3    3    0    0  0.16690017494E+03  0.37873909916E+03  0.21424518528E+03  0.46604717899E+03  0.00000000000E+00 0.  1.
        -11    1    3    3    0    0  0.18735423687E+03  0.62807445688E+03  0.43152468723E+03  0.78472459446E+03  0.00000000000E+00 0. -1.
         22    1    1    2    0    0 -0.35425441181E+03 -0.10068135560E+04 -0.16833983213E+04  0.19932384787E+04  0.00000000000E+00 0.  1.
<mgrwt>
<rscale>  0 0.30735858E+04</rscale>
<asrwt>0</asrwt>
<pdfrwt beam="1">  1        1 0.16972168E+00 0.30735858E+04</pdfrwt>
<pdfrwt beam="2">  1       -1 0.32935682E+00 0.30735858E+04</pdfrwt>
<totfact> 0.22662018E-01</totfact>
</mgrwt>
</event>
<event>
 6    1  0.1762360E-005  0.4433234E+04  0.7818608E-02  0.7922431E-01
         -2   -1    0    0    0  501 -0.00000000000E+00  0.00000000000E+00  0.10572409907E+04  0.10572409907E+04  0.00000000000E+00 0.  1.
          2   -1    0    0  501    0  0.00000000000E+00 -0.00000000000E+00 -0.46473709885E+04  0.46473709885E+04  0.00000000000E+00 0. -1.
         23    2    1    2    0    0 -0.15669010436E+04 -0.15224687591E+04 -0.13207478006E+04  0.25545031620E+04  0.89563657820E+02 0.  0.
         11    1    3    3    0    0 -0.12865951657E+04 -0.12331773480E+04 -0.10386121217E+04  0.20627090516E+04  0.00000000000E+00 0. -1.
        -11    1    3    3    0    0 -0.28030587791E+03 -0.28929141111E+03 -0.28213567890E+03  0.49179411042E+03  0.00000000000E+00 0.  1.
         22    1    1    2    0    0  0.15669010436E+04  0.15224687591E+04 -0.22693821972E+04  0.31501088171E+04  0.00000000000E+00 0. -1.
<mgrwt>
<rscale>  0 0.44332341E+04</rscale>
<asrwt>0</asrwt>
<pdfrwt beam="1">  1        2 0.71498015E+00 0.44332341E+04</pdfrwt>
<pdfrwt beam="2">  1       -2 0.16265246E+00 0.44332341E+04</pdfrwt>
<totfact> 0.15851157E-02</totfact>
</mgrwt>
</event>
<event>
 6    1  0.1762360E-005  0.6708832E+04  0.7818608E-02  0.7608232E-01
          2   -1    0    0  501    0  0.00000000000E+00  0.00000000000E+00  0.21024360858E+04  0.21024360858E+04  0.00000000000E+00 0. -1.
         -2   -1    0    0    0  501 -0.00000000000E+00 -0.00000000000E+00 -0.53519369166E+04  0.53519369166E+04  0.00000000000E+00 0.  1.
         23    2    1    2    0    0 -0.69876764623E+03 -0.12356714494E+04 -0.50012475808E+04  0.51996497754E+04  0.93382377229E+02 0.  0.
         13    1    3    3    0    0 -0.36043276800E+03 -0.60466247290E+03 -0.23192996188E+04  0.24237737535E+04  0.00000000000E+00 0.  1.
        -13    1    3    3    0    0 -0.33833487823E+03 -0.63100897647E+03 -0.26819479620E+04  0.27758760219E+04  0.00000000000E+00 0. -1.
         22    1    1    2    0    0  0.69876764623E+03  0.12356714494E+04  0.17517467500E+04  0.22547232270E+04  0.00000000000E+00 0. -1.
<mgrwt>
<rscale>  0 0.67088316E+04</rscale>
<asrwt>0</asrwt>
<pdfrwt beam="1">  1        2 0.32345171E+00 0.67088316E+04</pdfrwt>
<pdfrwt beam="2">  1       -2 0.82337491E+00 0.67088316E+04</pdfrwt>
<totfact> 0.20232539E-04</totfact>
</mgrwt>
</event>
<event>
 6    1  0.1762360E-005  0.3310240E+04  0.7818608E-02  0.8160295E-01
         -1   -1    0    0    0  501 -0.00000000000E+00  0.00000000000E+00  0.95850157516E+03  0.95850157516E+03  0.00000000000E+00 0.  1.
          1   -1    0    0  501    0  0.00000000000E+00 -0.00000000000E+00 -0.28580255014E+04  0.28580255014E+04  0.00000000000E+00 0. -1.
         23    2    1    2    0    0  0.15350693667E+04  0.59134095791E+03 -0.75425124863E+03  0.18120891017E+04  0.93004716497E+02 0.  0.
         11    1    3    3    0    0  0.11355969118E+04  0.47005549841E+03 -0.59208687996E+03  0.13642211665E+04  0.00000000000E+00 0.  1.
        -11    1    3    3    0    0  0.39947245486E+03  0.12128545950E+03 -0.16216436867E+03  0.44786793516E+03  0.00000000000E+00 0. -1.
         22    1    1    2    0    0 -0.15350693667E+04 -0.59134095791E+03 -0.11452726776E+04  0.20044379749E+04  0.00000000000E+00 0.  1.
<mgrwt>
<rscale>  0 0.33102398E+04</rscale>
<asrwt>0</asrwt>
<pdfrwt beam="1">  1        1 0.43969623E+00 0.33102398E+04</pdfrwt>
<pdfrwt beam="2">  1       -1 0.14746178E+00 0.33102398E+04</pdfrwt>
<totfact> 0.22917734E-01</totfact>
</mgrwt>
</event>
<event>
 6    1  0.1762360E-005  0.2093045E+04  0.7818608E-02  0.8564313E-01
         -1   -1    0    0    0  501 -0.00000000000E+00  0.00000000000E+00  0.39520253982E+03  0.39520253982E+03  0.00000000000E+00 0.  1.
          1   -1    0    0  501    0  0.00000000000E+00 -0.00000000000E+00 -0.27712597761E+04  0.27712597761E+04  0.00000000000E+00 0. -1.
         23    2    1    2    0    0 -0.56042768519E+03  0.85456818681E+03 -0.86301361565E+03  0.13406290886E+04  0.90154733787E+02 0.  0.
         11    1    3    3    0    0 -0.56399649298E+02  0.10836680885E+03 -0.14001472845E+03  0.18581821730E+03  0.00000000000E+00 0. -1.
        -11    1    3    3    0    0 -0.50402803589E+03  0.74620137797E+03 -0.72299888721E+03  0.11548108712E+04  0.00000000000E+00 0.  1.
         22    1    1    2    0    0  0.56042768519E+03 -0.85456818681E+03 -0.15130436206E+04  0.18258332274E+04  0.00000000000E+00 0. -1.
<mgrwt>
<rscale>  0 0.20930446E+04</rscale>
<asrwt>0</asrwt>
<pdfrwt beam="1">  1        1 0.42634764E+00 0.20930446E+04</pdfrwt>
<pdfrwt beam="2">  1       -1 0.60800393E-01 0.20930446E+04</pdfrwt>
<totfact> 0.22072328E+00</totfact>
</mgrwt>
</event>
<event>
 6    1  0.1762360E-005  0.5678931E+03  0.7818608E-02  0.9974352E-01
         -2   -1    0    0    0  501 -0.00000000000E+00  0.00000000000E+00  0.83087051185E+02  0.83087051185E+02  0.00000000000E+00 0.  1.
          2   -1    0    0  501    0  0.00000000000E+00 -0.00000000000E+00 -0.97037539297E+03  0.97037539297E+03  0.00000000000E+00 0. -1.
         23    2    1    2    0    0  0.13098477498E+03  0.15135069369E+03 -0.93919730156E+02  0.23523399337E+03  0.80312341293E+02 0.  0.
         13    1    3    3    0    0  0.53851717490E+02  0.24761836440E+02  0.87553182537E+00  0.59278348294E+02  0.00000000000E+00 0.  1.
        -13    1    3    3    0    0  0.77133057494E+02  0.12658885725E+03 -0.94795261981E+02  0.17595564507E+03  0.00000000000E+00 0. -1.
         22    1    1    2    0    0 -0.13098477498E+03 -0.15135069369E+03 -0.79336861163E+03  0.81822845079E+03  0.00000000000E+00 0. -1.
<mgrwt>
<rscale>  0 0.56789305E+03</rscale>
<asrwt>0</asrwt>
<pdfrwt beam="1">  1        2 0.14928852E+00 0.56789305E+03</pdfrwt>
<pdfrwt beam="2">  1       -2 0.12782623E-01 0.56789305E+03</pdfrwt>
<totfact> 0.12153871E+03</totfact>
</mgrwt>
</event>
<event>
 6    1  0.1762360E-005  0.1716399E+04  0.7818608E-02  0.8752066E-01
          1   -1    0    0  501    0  0.00000000000E+00  0.00000000000E+00  0.17671654054E+04  0.17671654054E+04  0.00000000000E+00 0. -1.
         -1   -1    0    0    0  501 -0.00000000000E+00 -0.00000000000E+00 -0.41677270571E+03  0.41677270571E+03  0.00000000000E+00 0.  1.
         23    2    1    2    0    0  0.95340396819E+02 -0.30007183625E+03  0.16896075929E+04  0.17211210392E+04  0.91383342663E+02 0.  0.
         13    1    3    3    0    0  0.35726536997E+01 -0.55420328263E+02  0.16019885757E+03  0.16955191124E+03  0.00000000000E+00 0. -1.
        -13    1    3    3    0    0  0.91767743119E+02 -0.24465150799E+03  0.15294087354E+04  0.15515691280E+04  0.00000000000E+00 0.  1.
         22    1    1    2    0    0 -0.95340396819E+02  0.30007183625E+03 -0.33921489329E+03  0.46281707186E+03  0.00000000000E+00 0.  1.
<mgrwt>
<rscale>  0 0.17163989E+04</rscale>
<asrwt>0</asrwt>
<pdfrwt beam="1">  1        1 0.27187160E+00 0.17163989E+04</pdfrwt>
<pdfrwt beam="2">  1       -1 0.64118879E-01 0.17163989E+04</pdfrwt>
<totfact> 0.10053942E+01</totfact>
</mgrwt>
</event>
<event>
 6    1  0.1762360E-005  0.3616563E+04  0.7818608E-02  0.8086708E-01
         -2   -1    0    0    0  501 -0.00000000000E+00  0.00000000000E+00  0.23571186837E+04  0.23571186837E+04  0.00000000000E+00 0.  1.
          2   -1    0    0  501    0  0.00000000000E+00 -0.00000000000E+00 -0.13872369906E+04  0.13872369906E+04  0.00000000000E+00 0. -1.
         23    2    1    2    0    0 -0.14459139509E+04  0.26936645194E+03  0.15723331636E+04  0.21549616977E+04  0.91667347851E+02 0.  0.
         13    1    3    3    0    0 -0.37708876083E+03  0.76754644723E+02  0.35457983083E+03  0.52327245815E+03  0.00000000000E+00 0.  1.
        -13    1    3    3    0    0 -0.10688251900E+04  0.19261180721E+03  0.12177533327E+04  0.16316892396E+04  0.00000000000E+00 0. -1.
         22    1    1    2    0    0  0.14459139509E+04 -0.26936645194E+03 -0.60245147046E+03  0.15893939766E+04  0.00000000000E+00 0. -1.
<mgrwt>
<rscale>  0 0.36165631E+04</rscale>
<asrwt>0</asrwt>
<pdfrwt beam="1">  1        2 0.21342108E+00 0.36165631E+04</pdfrwt>
<pdfrwt beam="2">  1       -2 0.36263364E+00 0.36165631E+04</pdfrwt>
<totfact> 0.15490170E-01</totfact>
</mgrwt>
</event>
<event>
 6    1  0.1762360E-005  0.1820465E+04  0.7818608E-02  0.8695491E-01
          2   -1    0    0  501    0  0.00000000000E+00  0.00000000000E+00  0.33028691628E+04  0.33028691628E+04  0.00000000000E+00 0.  1.
         -2   -1    0    0    0  501 -0.00000000000E+00 -0.00000000000E+00 -0.25084958667E+03  0.25084958667E+03  0.00000000000E+00 0. -1.
         23    2    1    2    0    0  0.71959313345E+03  0.41751811408E+03  0.22396021273E+04  0.23908955623E+04  0.91805491547E+02 0.  0.
         13    1    3    3    0    0  0.32015969931E+03  0.20359845686E+03  0.11446829487E+04  0.12059243831E+04  0.00000000000E+00 0. -1.
        -13    1    3    3    0    0  0.39943343414E+03  0.21391965722E+03  0.10949191786E+04  0.11849711792E+04  0.00000000000E+00 0.  1.
         22    1    1    2    0    0 -0.71959313345E+03 -0.41751811408E+03  0.81241744889E+03  0.11628231871E+04  0.00000000000E+00 0.  1.
<mgrwt>
<rscale>  0 0.18204652E+04</rscale>
<asrwt>0</asrwt>
<pdfrwt beam="1">  1        2 0.50813369E+00 0.18204652E+04</pdfrwt>
<pdfrwt beam="2">  1       -2 0.38592246E-01 0.18204652E+04</pdfrwt>
<totfact> 0.66701480E+00</totfact>
</mgrwt>
</event>
<event>
 6    1  0.1762360E-005  0.3030706E+04  0.7818608E-02  0.8235017E-01
         -2   -1    0    0    0  501 -0.00000000000E+00  0.00000000000E+00  0.32399926887E+04  0.32399926887E+04  0.00000000000E+00 0.  1.
          2   -1    0    0  501    0  0.00000000000E+00 -0.00000000000E+00 -0.70873449024E+03  0.70873449024E+03  0.00000000000E+00 0. -1.
         23    2    1    2    0    0 -0.58208474990E+03  0.86470010562E+03  0.26973923602E+04  0.28932038545E+04  0.90410564168E+02 0.  0.
         11    1    3    3    0    0 -0.25227010737E+03  0.43618600456E+03  0.12199743310E+04  0.13199378039E+04  0.00000000000E+00 0. -1.
        -11    1    3    3    0    0 -0.32981464252E+03  0.42851410107E+03  0.14774180292E+04  0.15732660507E+04  0.00000000000E+00 0.  1.
         22    1    1    2    0    0  0.58208474990E+03 -0.86470010562E+03 -0.16613416175E+03  0.10555233244E+04  0.00000000000E+00 0. -1.
<mgrwt>
<rscale>  0 0.30307059E+04</rscale>
<asrwt>0</asrwt>
<pdfrwt beam="1">  1        2 0.10903608E+00 0.30307059E+04</pdfrwt>
<pdfrwt beam="2">  1       -2 0.49846040E+00 0.30307059E+04</pdfrwt>
<totfact> 0.57895584E-02</totfact>
</mgrwt>
</event>
<event>
 6    1  0.1762360E-005  0.3431149E+04  0.7818608E-02  0.8130303E-01
          1   -1    0    0  501    0  0.00000000000E+00  0.00000000000E+00  0.18991979984E+04  0.18991979984E+04  0.00000000000E+00 0. -1.
         -1   -1    0    0    0  501 -0.00000000000E+00 -0.00000000000E+00 -0.15497049034E+04  0.15497049034E+04  0.00000000000E+00 0.  1.
         23    2    1    2    0    0  0.32584436985E+03 -0.51476396761E+03 -0.14360196879E+04  0.15623154022E+04  0.86720103173E+02 0.  0.
         13    1    3    3    0    0  0.91396185423E+02 -0.22120827494E+03 -0.58411976911E+03  0.63125451941E+03  0.00000000000E+00 0. -1.
        -13    1    3    3    0    0  0.23444818443E+03 -0.29355569267E+03 -0.85189991880E+03  0.93106088283E+03  0.00000000000E+00 0.  1.
         22    1    1    2    0    0 -0.32584436985E+03  0.51476396761E+03  0.17855127829E+04  0.18865874995E+04  0.00000000000E+00 0. -1.
<mgrwt>
<rscale>  0 0.34311493E+04</rscale>
<asrwt>0</asrwt>
<pdfrwt beam="1">  1        1 0.29218431E+00 0.34311493E+04</pdfrwt>
<pdfrwt beam="2">  1       -1 0.23841614E+00 0.34311493E+04</pdfrwt>
<totfact> 0.23772553E-01</totfact>
</mgrwt>
</event>
<event>
 6    1  0.1762360E-005  0.2040123E+04  0.7818608E-02  0.8588088E-01
         -1   -1    0    0    0  501 -0.00000000000E+00  0.00000000000E+00  0.61895071671E+03  0.61895071671E+03  0.00000000000E+00 0.  1.
          1   -1    0    0  501    0  0.00000000000E+00 -0.00000000000E+00 -0.16811116166E+04  0.16811116166E+04  0.00000000000E+00 0. -1.
         23    2    1    2    0    0  0.52330092461E+03 -0.14359519597E+03 -0.15032481844E+04  0.16007616607E+04  0.90660645122E+02 0.  0.
         11    1    3    3    0    0  0.27312181544E+03 -0.30323534196E+02 -0.71038869742E+03  0.76168703824E+03  0.00000000000E+00 0.  1.
        -11    1    3    3    0    0  0.25017910916E+03 -0.11327166178E+03 -0.79285948699E+03  0.83907462251E+03  0.00000000000E+00 0. -1.
         22    1    1    2    0    0 -0.52330092461E+03  0.14359519597E+03  0.44108728456E+03  0.69930067253E+03  0.00000000000E+00 0.  1.
<mgrwt>
<rscale>  0 0.20401228E+04</rscale>
<asrwt>0</asrwt>
<pdfrwt beam="1">  1        1 0.25863256E+00 0.20401228E+04</pdfrwt>
<pdfrwt beam="2">  1       -1 0.95223187E-01 0.20401228E+04</pdfrwt>
<totfact> 0.48339018E+00</totfact>
</mgrwt>
</event>
<event>
 6    1  0.1762360E-005  0.7556606E+03  0.7818608E-02  0.9626511E-01
          2   -1    0    0  501    0  0.00000000000E+00  0.00000000000E+00  0.10590532210E+04  0.10590532210E+04  0.00000000000E+00 0.  1.
         -2   -1    0    0    0  501 -0.00000000000E+00 -0.00000000000E+00 -0.13479560904E+03  0.13479560904E+03  0.00000000000E+00 0. -1.
         23    2    1    2    0    0  0.15115899543E+03 -0.99205712591E+02 -0.44904178961E+02  0.20796577799E+03  0.92425993201E+02 0.  0.
         11    1    3    3    0    0  0.11007737408E+03 -0.11365309584E+03 -0.25391273637E+02  0.16024597110E+03  0.00000000000E+00 0. -1.
        -11    1    3    3    0    0  0.41081621350E+02  0.14447383250E+02 -0.19512905323E+02  0.47719806891E+02  0.00000000000E+00 0.  1.
         22    1    1    2    0    0 -0.15115899543E+03  0.99205712591E+02  0.96916179090E+03  0.98588305202E+03  0.00000000000E+00 0.  1.
<mgrwt>
<rscale>  0 0.75566057E+03</rscale>
<asrwt>0</asrwt>
<pdfrwt beam="1">  1        2 0.16293126E+00 0.75566057E+03</pdfrwt>
<pdfrwt beam="2">  1       -2 0.20737787E-01 0.75566057E+03</pdfrwt>
<totfact> 0.46546331E+02</totfact>
</mgrwt>
</event>
<event>
 6    1  0.1762360E-005  0.3950372E+04  0.7818608E-02  0.8014634E-01
          2   -1    0    0  501    0  0.00000000000E+00  0.00000000000E+00  0.10555771643E+04  0.10555771643E+04  0.00000000000E+00 0. -1.
         -2   -1    0    0    0  501 -0.00000000000E+00 -0.00000000000E+00 -0.36959489448E+04  0.36959489448E+04  0.00000000000E+00 0.  1.
         23    2    1    2    0    0  0.16956114207E+04  0.69918840935E+03 -0.21992356527E+04  0.28651105650E+04  0.90876683683E+02 0.  0.
         11    1    3    3    0    0  0.64192752275E+03  0.25428144756E+03 -0.76145823007E+03  0.10278855166E+04  0.00000000000E+00 0.  1.
        -11    1    3    3    0    0  0.10536838980E+04  0.44490696178E+03 -0.14377774227E+04  0.18372250484E+04  0.00000000000E+00 0. -1.
         22    1    1    2    0    0 -0.16956114207E+04 -0.69918840935E+03 -0.44113612778E+03  0.18864155441E+04  0.00000000000E+00 0.  1.
<mgrwt>
<rscale>  0 0.39503718E+04</rscale>
<asrwt>0</asrwt>
<pdfrwt beam="1">  1        2 0.16239649E+00 0.39503718E+04</pdfrwt>
<pdfrwt beam="2">  1       -2 0.56860753E+00 0.39503718E+04</pdfrwt>
<totfact> 0.12719468E-02</totfact>
</mgrwt>
</event>
<event>
 6    1  0.1762360E-005  0.4458322E+04  0.7818608E-02  0.7917974E-01
         -2   -1    0    0    0  501 -0.00000000000E+00  0.00000000000E+00  0.11125018909E+04  0.11125018909E+04  0.00000000000E+00 0.  1.
          2   -1    0    0  501    0  0.00000000000E+00 -0.00000000000E+00 -0.44666522381E+04  0.44666522381E+04  0.00000000000E+00 0. -1.
         23    2    1    2    0    0  0.17472267081E+03 -0.12854881389E+04  0.58905117538E+03  0.14280282559E+04  0.96310153319E+02 0.  0.
         13    1    3    3    0    0  0.83058431650E+02 -0.48680908639E+03  0.27242667621E+03  0.56400184713E+03  0.00000000000E+00 0.  1.
        -13    1    3    3    0    0  0.91664239163E+02 -0.79867905250E+03  0.31662449917E+03  0.86402640881E+03  0.00000000000E+00 0. -1.
         22    1    1    2    0    0 -0.17472267081E+03  0.12854881389E+04 -0.39432015225E+04  0.41511258731E+04  0.00000000000E+00 0. -1.
<mgrwt>
<rscale>  0 0.44583221E+04</rscale>
<asrwt>0</asrwt>
<pdfrwt beam="1">  1        2 0.68717725E+00 0.44583221E+04</pdfrwt>
<pdfrwt beam="2">  1       -2 0.17115414E+00 0.44583221E+04</pdfrwt>
<totfact> 0.20915626E-02</totfact>
</mgrwt>
</event>
<event>
 6    1  0.1762360E-005  0.3099319E+04  0.7818608E-02  0.8215925E-01
         -2   -1    0    0    0  501 -0.00000000000E+00  0.00000000000E+00  0.63381145812E+03  0.63381145812E+03  0.00000000000E+00 0.  1.
          2   -1    0    0  501    0  0.00000000000E+00 -0.00000000000E+00 -0.37888949364E+04  0.37888949364E+04  0.00000000000E+00 0. -1.
         23    2    1    2    0    0 -0.27904322754E+03  0.81364387269E+03 -0.34160092716E+04  0.35238383597E+04  0.91847520617E+02 0.  0.
         13    1    3    3    0    0 -0.20781288028E+03  0.51088777605E+03 -0.23099516708E+04  0.23748829938E+04  0.00000000000E+00 0. -1.
        -13    1    3    3    0    0 -0.71230347261E+02  0.30275609664E+03 -0.11060576008E+04  0.11489553659E+04  0.00000000000E+00 0.  1.
         22    1    1    2    0    0  0.27904322754E+03 -0.81364387269E+03  0.26092579334E+03  0.89886803482E+03  0.00000000000E+00 0.  1.
<mgrwt>
<rscale>  0 0.30993193E+04</rscale>
<asrwt>0</asrwt>
<pdfrwt beam="1">  1        2 0.58290691E+00 0.30993193E+04</pdfrwt>
<pdfrwt beam="2">  1       -2 0.97509455E-01 0.30993193E+04</pdfrwt>
<totfact> 0.37232502E-01</totfact>
</mgrwt>
</event>
<event>
 6    1  0.1762360E-005  0.2382816E+04  0.7818608E-02  0.8445965E-01
          2   -1    0    0  501    0  0.00000000000E+00  0.00000000000E+00  0.21679170106E+04  0.21679170106E+04  0.00000000000E+00 0. -1.
         -2   -1    0    0    0  501 -0.00000000000E+00 -0.00000000000E+00 -0.65475417344E+03  0.65475417344E+03  0.00000000000E+00 0.  1.
         23    2    1    2    0    0 -0.12599126280E+02  0.58393983849E+03 -0.47007493531E+03  0.75521464637E+03  0.90742737054E+02 0.  0.
         13    1    3    3    0    0  0.17808290690E+02  0.42233885363E+02 -0.57920351280E+02  0.73862056447E+02  0.00000000000E+00 0.  1.
        -13    1    3    3    0    0 -0.30407416969E+02  0.54170595312E+03 -0.41215458403E+03  0.68135258992E+03  0.00000000000E+00 0. -1.
         22    1    1    2    0    0  0.12599126280E+02 -0.58393983849E+03  0.19832377725E+04  0.20674565376E+04  0.00000000000E+00 0. -1.
<mgrwt>
<rscale>  0 0.23828157E+04</rscale>
<asrwt>0</asrwt>
<pdfrwt beam="1">  1        2 0.33352569E+00 0.23828157E+04</pdfrwt>
<pdfrwt beam="2">  1       -2 0.10073141E+00 0.23828157E+04</pdfrwt>
<totfact> 0.39346087E+00</totfact>
</mgrwt>
</event>
<event>
 6    1  0.1762360E-005  0.5025079E+04  0.7818608E-02  0.7824650E-01
          1   -1    0    0  501    0  0.00000000000E+00  0.00000000000E+00  0.27087983901E+04  0.27087983901E+04  0.00000000000E+00 0. -1.
         -1   -1    0    0    0  501 -0.00000000000E+00 -0.00000000000E+00 -0.23305004184E+04  0.23305004184E+04  0.00000000000E+00 0.  1.
         23    2    1    2    0    0 -0.64490454635E+03  0.12260699749E+03 -0.22421224655E+04  0.23379033142E+04  0.88002308800E+02 0.  0.
         11    1    3    3    0    0 -0.23374501752E+03  0.42985472194E+02 -0.96649917847E+03  0.99529148797E+03  0.00000000000E+00 0.  1.
        -11    1    3    3    0    0 -0.41115952883E+03  0.79621525298E+02 -0.12756232870E+04  0.13426118262E+04  0.00000000000E+00 0. -1.
         22    1    1    2    0    0  0.64490454635E+03 -0.12260699749E+03  0.26204204372E+04  0.27013954944E+04  0.00000000000E+00 0. -1.
<mgrwt>
<rscale>  0 0.50250794E+04</rscale>
<asrwt>0</asrwt>
<pdfrwt beam="1">  1        1 0.41673821E+00 0.50250794E+04</pdfrwt>
<pdfrwt beam="2">  1       -1 0.35853853E+00 0.50250794E+04</pdfrwt>
<totfact> 0.95049467E-03</totfact>
</mgrwt>
</event>
<event>
 6    1  0.1762360E-005  0.2325744E+04  0.7818608E-02  0.8467839E-01
         -2   -1    0    0    0  501 -0.00000000000E+00  0.00000000000E+00  0.55520423661E+03  0.55520423661E+03  0.00000000000E+00 0.  1.
          2   -1    0    0  501    0  0.00000000000E+00 -0.00000000000E+00 -0.24356280002E+04  0.24356280002E+04  0.00000000000E+00 0. -1.
         23    2    1    2    0    0  0.52182573683E+03  0.94322728041E+03 -0.14970661767E+04  0.18467418376E+04  0.85255353097E+02 0.  0.
         13    1    3    3    0    0  0.50787685255E+02  0.11843518456E+03 -0.22352259201E+03  0.25800897476E+03  0.00000000000E+00 0.  1.
        -13    1    3    3    0    0  0.47103805157E+03  0.82479209585E+03 -0.12735435846E+04  0.15887328628E+04  0.00000000000E+00 0. -1.
         22    1    1    2    0    0 -0.52182573683E+03 -0.94322728041E+03 -0.38335758690E+03  0.11440903992E+04  0.00000000000E+00 0.  1.
<mgrwt>
<rscale>  0 0.23257437E+04</rscale>
<asrwt>0</asrwt>
<pdfrwt beam="1">  1        2 0.37471200E+00 0.23257437E+04</pdfrwt>
<pdfrwt beam="2">  1       -2 0.85416036E-01 0.23257437E+04</pdfrwt>
<totfact> 0.40879682E+00</totfact>
</mgrwt>
</event>
<event>
 6    1  0.1762360E-005  0.1714746E+04  0.7818608E-02  0.8752998E-01
          1   -1    0    0  501    0  0.00000000000E+00  0.00000000000E+00  0.41122580215E+03  0.41122580215E+03  0.00000000000E+00 0. -1.
         -1   -1    0    0    0  501 -0.00000000000E+00 -0.00000000000E+00 -0.17875550610E+04  0.17875550610E+04  0.00000000000E+00 0.  1.
         23    2    1    2    0    0  0.37597241154E+03  0.74493399112E+03 -0.45098700816E+03  0.95277115762E+03  0.90009398985E+02 0.  0.
         13    1    3    3    0    0  0.24979970860E+03  0.56104800158E+03 -0.30037921679E+03  0.68366836140E+03  0.00000000000E+00 0. -1.
        -13    1    3    3    0    0  0.12617270294E+03  0.18388598953E+03 -0.15060779137E+03  0.26910279622E+03  0.00000000000E+00 0.  1.
         22    1    1    2    0    0 -0.37597241154E+03 -0.74493399112E+03 -0.92534225073E+03  0.12460097056E+04  0.00000000000E+00 0.  1.
<mgrwt>
<rscale>  0 0.17147464E+04</rscale>
<asrwt>0</asrwt>
<pdfrwt beam="1">  1        1 0.63265509E-01 0.17147464E+04</pdfrwt>
<pdfrwt beam="2">  1       -1 0.27500847E+00 0.17147464E+04</pdfrwt>
<totfact> 0.26366856E+00</totfact>
</mgrwt>
</event>
<event>
 6    1  0.1762360E-005  0.3637442E+04  0.7818608E-02  0.8081968E-01
          2   -1    0    0  501    0  0.00000000000E+00  0.00000000000E+00  0.19906760311E+04  0.19906760311E+04  0.00000000000E+00 0. -1.
         -2   -1    0    0    0  501 -0.00000000000E+00 -0.00000000000E+00 -0.16616199360E+04  0.16616199360E+04  0.00000000000E+00 0.  1.
         23    2    1    2    0    0 -0.69580929264E+03  0.85679054987E+03  0.16145547490E+04  0.19579679565E+04  0.92794737299E+02 0.  0.
         11    1    3    3    0    0 -0.35967867153E+03  0.46384331974E+03  0.93648161535E+03  0.11052226870E+04  0.00000000000E+00 0. -1.
        -11    1    3    3    0    0 -0.33613062111E+03  0.39294723013E+03  0.67807313363E+03  0.85274526951E+03  0.00000000000E+00 0.  1.
         22    1    1    2    0    0  0.69580929264E+03 -0.85679054987E+03 -0.12854986539E+04  0.16943280105E+04  0.00000000000E+00 0. -1.
<mgrwt>
<rscale>  0 0.36374425E+04</rscale>
<asrwt>0</asrwt>
<pdfrwt beam="1">  1        2 0.30625785E+00 0.36374425E+04</pdfrwt>
<pdfrwt beam="2">  1       -2 0.25563384E+00 0.36374425E+04</pdfrwt>
<totfact> 0.32602594E-01</totfact>
</mgrwt>
</event>
<event>
 6    1  0.1762360E-005  0.4091040E+04  0.7818608E-02  0.7986429E-01
         -2   -1    0    0    0  501 -0.00000000000E+00  0.00000000000E+00  0.11186100979E+04  0.11186100979E+04  0.00000000000E+00 0.  1.
          2   -1    0    0  501    0  0.00000000000E+00 -0.00000000000E+00 -0.37404925536E+04  0.37404925536E+04  0.00000000000E+00 0. -1.
         23    2    1    2    0    0  0.90595057442E+03 -0.83758722562E+03  0.62455734323E+03  0.13861111209E+04  0.94516457323E+02 0.  0.
         13    1    3    3    0    0  0.43695132957E+03 -0.44867287876E+03  0.35464944875E+03  0.71972914909E+03  0.00000000000E+00 0. -1.
        -13    1    3    3    0    0  0.46899924485E+03 -0.38891434686E+03  0.26990789448E+03  0.66638197182E+03  0.00000000000E+00 0.  1.
         22    1    1    2    0    0 -0.90595057442E+03  0.83758722562E+03 -0.32464397989E+04  0.34729915307E+04  0.00000000000E+00 0. -1.
<mgrwt>
<rscale>  0 0.40910403E+04</rscale>
<asrwt>0</asrwt>
<pdfrwt beam="1">  1        2 0.57546039E+00 0.40910403E+04</pdfrwt>
<pdfrwt beam="2">  1       -2 0.17209386E+00 0.40910403E+04</pdfrwt>
<totfact> 0.87608070E-02</totfact>
</mgrwt>
</event>
<event>
 6    1  0.1762360E-005  0.1898064E+04  0.7818608E-02  0.8655821E-01
         -2   -1    0    0    0  501 -0.00000000000E+00  0.00000000000E+00  0.71077992853E+03  0.71077992853E+03  0.00000000000E+00 0.  1.
          2   -1    0    0  501    0  0.00000000000E+00 -0.00000000000E+00 -0.12671457541E+04  0.12671457541E+04  0.00000000000E+00 0. -1.
         23    2    1    2    0    0  0.50038066776E+03 -0.58170312742E+03  0.29923685554E+03  0.82865839909E+03  0.91502489324E+02 0.  0.
         11    1    3    3    0    0  0.22358452501E+03 -0.29886782901E+03  0.18606651472E+03  0.41705247505E+03  0.00000000000E+00 0.  1.
        -11    1    3    3    0    0  0.27679614275E+03 -0.28283529841E+03  0.11317034081E+03  0.41160592404E+03  0.00000000000E+00 0. -1.
         22    1    1    2    0    0 -0.50038066776E+03  0.58170312742E+03 -0.85560268113E+03  0.11492672836E+04  0.00000000000E+00 0. -1.
<mgrwt>
<rscale>  0 0.18980640E+04</rscale>
<asrwt>0</asrwt>
<pdfrwt beam="1">  1        2 0.19494550E+00 0.18980640E+04</pdfrwt>
<pdfrwt beam="2">  1       -2 0.10935076E+00 0.18980640E+04</pdfrwt>
<totfact> 0.10790761E+01</totfact>
</mgrwt>
</event>
<event>
 6    1  0.1762360E-005  0.1636165E+04  0.7818608E-02  0.8798633E-01
          2   -1    0    0  501    0  0.00000000000E+00  0.00000000000E+00  0.16339344362E+04  0.16339344362E+04  0.00000000000E+00 0.  1.
         -2   -1    0    0    0  501 -0.00000000000E+00 -0.00000000000E+00 -0.40959969852E+03  0.40959969852E+03  0.00000000000E+00 0. -1.
         23    2    1    2    0    0  0.38355907356E+03  0.65458175369E+03  0.99077924539E+03  0.12497186630E+04  0.67515838032E+02 0.  0.
         11    1    3    3    0    0  0.35756717262E+03  0.57492425364E+03  0.86240808965E+03  0.10964214032E+04  0.00000000000E+00 0.  1.
        -11    1    3    3    0    0  0.25991900941E+02  0.79657500054E+02  0.12837115574E+03  0.15329725978E+03  0.00000000000E+00 0. -1.
         22    1    1    2    0    0 -0.38355907356E+03 -0.65458175369E+03  0.23355549231E+03  0.79381547173E+03  0.00000000000E+00 0. -1.
<mgrwt>
<rscale>  0 0.16361651E+04</rscale>
<asrwt>0</asrwt>
<pdfrwt beam="1">  1        2 0.25137453E+00 0.16361651E+04</pdfrwt>
<pdfrwt beam="2">  1       -2 0.63015339E-01 0.16361651E+04</pdfrwt>
<totfact> 0.23816623E+01</totfact>
</mgrwt>
</event>
<event>
 6    1  0.1762360E-005  0.4165515E+04  0.7818608E-02  0.7971965E-01
         -2   -1    0    0    0  501 -0.00000000000E+00  0.00000000000E+00  0.12431515931E+04  0.12431515931E+04  0.00000000000E+00 0.  1.
          2   -1    0    0  501    0  0.00000000000E+00 -0.00000000000E+00 -0.34894204563E+04  0.34894204563E+04  0.00000000000E+00 0. -1.
         23    2    1    2    0    0  0.35561862669E+03 -0.13145630430E+04 -0.29125409572E+04  0.32165050637E+04  0.92029321235E+02 0.  0.
         11    1    3    3    0    0  0.16482311766E+03 -0.59408916310E+03 -0.14267292446E+04  0.15542409502E+04  0.00000000000E+00 0. -1.
        -11    1    3    3    0    0  0.19079550904E+03 -0.72047387993E+03 -0.14858117126E+04  0.16622641135E+04  0.00000000000E+00 0.  1.
         22    1    1    2    0    0 -0.35561862669E+03  0.13145630430E+04  0.66627209400E+03  0.15160669857E+04  0.00000000000E+00 0.  1.
<mgrwt>
<rscale>  0 0.41655149E+04</rscale>
<asrwt>0</asrwt>
<pdfrwt beam="1">  1        2 0.53683391E+00 0.41655149E+04</pdfrwt>
<pdfrwt beam="2">  1       -2 0.19125409E+00 0.41655149E+04</pdfrwt>
<totfact> 0.97687074E-02</totfact>
</mgrwt>
</event>
<event>
 6    1  0.1762360E-005  0.1808069E+04  0.7818608E-02  0.8702020E-01
         -1   -1    0    0    0  501 -0.00000000000E+00  0.00000000000E+00  0.13413291963E+04  0.13413291963E+04  0.00000000000E+00 0.  1.
          1   -1    0    0  501    0  0.00000000000E+00 -0.00000000000E+00 -0.60930483919E+03  0.60930483919E+03  0.00000000000E+00 0. -1.
         23    2    1    2    0    0  0.55457947524E+03  0.55796105376E+03 -0.10848610461E+03  0.79940131873E+03  0.91620421400E+02 0.  0.
         13    1    3    3    0    0  0.13139199585E+03  0.10203671361E+03 -0.54265496167E+02  0.17498597536E+03  0.00000000000E+00 0. -1.
        -13    1    3    3    0    0  0.42318747939E+03  0.45592434015E+03 -0.54220608441E+02  0.62441534337E+03  0.00000000000E+00 0.  1.
         22    1    1    2    0    0 -0.55457947524E+03 -0.55796105376E+03  0.84051046170E+03  0.11512327167E+04  0.00000000000E+00 0.  1.
<mgrwt>
<rscale>  0 0.18080690E+04</rscale>
<asrwt>0</asrwt>
<pdfrwt beam="1">  1        1 0.93739206E-01 0.18080690E+04</pdfrwt>
<pdfrwt beam="2">  1       -1 0.20635834E+00 0.18080690E+04</pdfrwt>
<totfact> 0.42978361E+00</totfact>
</mgrwt>
</event>
<event>
 6    1  0.1762360E-005  0.1847529E+04  0.7818608E-02  0.8681424E-01
          2   -1    0    0  501    0  0.00000000000E+00  0.00000000000E+00  0.62249486342E+03  0.62249486342E+03  0.00000000000E+00 0. -1.
         -2   -1    0    0    0  501 -0.00000000000E+00 -0.00000000000E+00 -0.13708406473E+04  0.13708406473E+04  0.00000000000E+00 0.  1.
         23    2    1    2    0    0 -0.77712233903E+03  0.43677835705E+03 -0.62549379951E+03  0.10934538112E+04  0.98510309155E+02 0.  0.
         13    1    3    3    0    0 -0.30987132522E+03  0.13623572837E+03 -0.27935143928E+03  0.43888226041E+03  0.00000000000E+00 0.  1.
        -13    1    3    3    0    0 -0.46725101382E+03  0.30054262868E+03 -0.34614236022E+03  0.65457155079E+03  0.00000000000E+00 0. -1.
         22    1    1    2    0    0  0.77712233903E+03 -0.43677835705E+03 -0.12285198436E+03  0.89988169949E+03  0.00000000000E+00 0. -1.
<mgrwt>
<rscale>  0 0.18475294E+04</rscale>
<asrwt>0</asrwt>
<pdfrwt beam="1">  1        2 0.95768440E-01 0.18475294E+04</pdfrwt>
<pdfrwt beam="2">  1       -2 0.21089856E+00 0.18475294E+04</pdfrwt>
<totfact> 0.50358216E+00</totfact>
</mgrwt>
</event>
<event>
 6    1  0.1762360E-005  0.1139450E+04  0.7818608E-02  0.9167572E-01
          2   -1    0    0  501    0  0.00000000000E+00  0.00000000000E+00  0.88542856861E+03  0.88542856861E+03  0.00000000000E+00 0. -1.
         -2   -1    0    0    0  501 -0.00000000000E+00 -0.00000000000E+00 -0.36658720900E+03  0.36658720900E+03  0.00000000000E+00 0.  1.
         23    2    1    2    0    0  0.34669101156E+02  0.41588269425E+03  0.68130983713E+03  0.80418057562E+03  0.91449122940E+02 0.  0.
         13    1    3    3    0    0  0.23181621132E+01  0.34576206224E+03  0.50874317798E+03  0.61512307606E+03  0.00000000000E+00 0. -1.
        -13    1    3    3    0    0  0.32350939043E+02  0.70120632006E+02  0.17256665915E+03  0.18905749956E+03  0.00000000000E+00 0.  1.
         22    1    1    2    0    0 -0.34669101156E+02 -0.41588269425E+03 -0.16246847753E+03  0.44783520199E+03  0.00000000000E+00 0.  1.
<mgrwt>
<rscale>  0 0.11394504E+04</rscale>
<asrwt>0</asrwt>
<pdfrwt beam="1">  1        2 0.13621978E+00 0.11394504E+04</pdfrwt>
<pdfrwt beam="2">  1       -2 0.56398032E-01 0.11394504E+04</pdfrwt>
<totfact> 0.87679060E+01</totfact>
</mgrwt>
</event>
<event>
 6    1  0.1762360E-005  0.1724829E+04  0.7818608E-02  0.8747329E-01
         -2   -1    0    0    0  501 -0.00000000000E+00  0.00000000000E+00  0.10571112785E+04  0.10571112785E+04  0.00000000000E+00 0.  1.
          2   -1    0    0  501    0  0.00000000000E+00 -0.00000000000E+00 -0.70357675375E+03  0.70357675375E+03  0.00000000000E+00 0. -1.
         23    2    1    2    0    0 -0.41999748033E+03 -0.33903080802E+03 -0.50644196503E+03  0.74535590175E+03  0.87932838407E+02 0.  0.
         11    1    3    3    0    0 -0.24259523682E+03 -0.15667545006E+03 -0.22599375713E+03  0.36670536380E+03  0.00000000000E+00 0.  1.
        -11    1    3    3    0    0 -0.17740224350E+03 -0.18235535795E+03 -0.28044820790E+03  0.37865053795E+03  0.00000000000E+00 0. -1.
         22    1    1    2    0    0  0.41999748033E+03  0.33903080802E+03  0.85997648978E+03  0.10153321305E+04  0.00000000000E+00 0.  1.
<mgrwt>
<rscale>  0 0.17248292E+04</rscale>
<asrwt>0</asrwt>
<pdfrwt beam="1">  1        2 0.10824258E+00 0.17248292E+04</pdfrwt>
<pdfrwt beam="2">  1       -2 0.16263250E+00 0.17248292E+04</pdfrwt>
<totfact> 0.93074237E+00</totfact>
</mgrwt>
</event>
<event>
 6    1  0.1762360E-005  0.2048699E+04  0.7818608E-02  0.8584185E-01
          2   -1    0    0  501    0  0.00000000000E+00  0.00000000000E+00  0.17889388469E+04  0.17889388469E+04  0.00000000000E+00 0. -1.
         -2   -1    0    0    0  501 -0.00000000000E+00 -0.00000000000E+00 -0.58654456978E+03  0.58654456978E+03  0.00000000000E+00 0.  1.
         23    2    1    2    0    0 -0.15448717262E+03 -0.16637498854E+03  0.17581425480E+04  0.17751476240E+04  0.92395587054E+02 0.  0.
         11    1    3    3    0    0 -0.28416061409E+02 -0.62211393217E+02  0.82093970317E+03  0.82378378609E+03  0.00000000000E+00 0.  1.
        -11    1    3    3    0    0 -0.12607111121E+03 -0.10416359532E+03  0.93720284485E+03  0.95136383790E+03  0.00000000000E+00 0. -1.
         22    1    1    2    0    0  0.15448717262E+03  0.16637498854E+03 -0.55574827093E+03  0.60033579266E+03  0.00000000000E+00 0.  1.
<mgrwt>
<rscale>  0 0.20486995E+04</rscale>
<asrwt>0</asrwt>
<pdfrwt beam="1">  1        2 0.27522136E+00 0.20486995E+04</pdfrwt>
<pdfrwt beam="2">  1       -2 0.90237627E-01 0.20486995E+04</pdfrwt>
<totfact> 0.85066897E+00</totfact>
</mgrwt>
</event>
<event>
 6    1  0.1762360E-005  0.1827532E+04  0.7818608E-02  0.8691794E-01
          2   -1    0    0  501    0  0.00000000000E+00  0.00000000000E+00  0.20795495031E+04  0.20795495031E+04  0.00000000000E+00 0. -1.
         -2   -1    0    0    0  501 -0.00000000000E+00 -0.00000000000E+00 -0.40151384397E+03  0.40151384397E+03  0.00000000000E+00 0.  1.
         23    2    1    2    0    0  0.47568723255E+03  0.17939133280E+03  0.18682495579E+04  0.19382549824E+04  0.89534197761E+02 0.  0.
         13    1    3    3    0    0  0.32278879809E+03  0.12066546688E+03  0.14137653544E+04  0.14551581496E+04  0.00000000000E+00 0. -1.
        -13    1    3    3    0    0  0.15289843446E+03  0.58725865924E+02  0.45448420355E+03  0.48309683281E+03  0.00000000000E+00 0.  1.
         22    1    1    2    0    0 -0.47568723255E+03 -0.17939133280E+03 -0.19021389878E+03  0.54280836469E+03  0.00000000000E+00 0. -1.
<mgrwt>
<rscale>  0 0.18275316E+04</rscale>
<asrwt>0</asrwt>
<pdfrwt beam="1">  1        2 0.31993069E+00 0.18275316E+04</pdfrwt>
<pdfrwt beam="2">  1       -2 0.61771362E-01 0.18275316E+04</pdfrwt>
<totfact> 0.13836667E+01</totfact>
</mgrwt>
</event>
<event>
 6    1  0.1762360E-005  0.4598189E+04  0.7818608E-02  0.7893669E-01
          2   -1    0    0  501    0  0.00000000000E+00  0.00000000000E+00  0.24208564213E+04  0.24208564213E+04  0.00000000000E+00 0. -1.
         -2   -1    0    0    0  501 -0.00000000000E+00 -0.00000000000E+00 -0.21834566417E+04  0.21834566417E+04  0.00000000000E+00 0.  1.
         23    2    1    2    0    0  0.12249784307E+04  0.18190799961E+04  0.80711746773E+03  0.23384352128E+04  0.84949687996E+02 0.  0.
         13    1    3    3    0    0  0.66845842849E+03  0.95119523988E+03  0.46558499683E+03  0.12523491703E+04  0.00000000000E+00 0.  1.
        -13    1    3    3    0    0  0.55652000223E+03  0.86788475627E+03  0.34153247090E+03  0.10860860425E+04  0.00000000000E+00 0. -1.
         22    1    1    2    0    0 -0.12249784307E+04 -0.18190799961E+04 -0.56971768817E+03  0.22658778503E+04  0.00000000000E+00 0.  1.
<mgrwt>
<rscale>  0 0.45981888E+04</rscale>
<asrwt>0</asrwt>
<pdfrwt beam="1">  1        2 0.37243945E+00 0.45981888E+04</pdfrwt>
<pdfrwt beam="2">  1       -2 0.33591641E+00 0.45981888E+04</pdfrwt>
<totfact> 0.55439976E-02</totfact>
</mgrwt>
</event>
<event>
 6    1  0.1762360E-005  0.9798791E+03  0.7818608E-02  0.9330893E-01
          2   -1    0    0  501    0  0.00000000000E+00  0.00000000000E+00  0.35530354604E+03  0.35530354604E+03  0.00000000000E+00 0.  1.
         -2   -1    0    0    0  501 -0.00000000000E+00 -0.00000000000E+00 -0.67559348035E+03  0.67559348035E+03  0.00000000000E+00 0. -1.
         23    2    1    2    0    0 -0.17694631296E+03 -0.77377581911E+02 -0.63046870167E+03  0.66550934793E+03  0.90081188660E+02 0.  0.
         11    1    3    3    0    0 -0.71539295888E+02 -0.66947135936E+02 -0.20733990179E+03  0.22932427857E+03  0.00000000000E+00 0.  1.
        -11    1    3    3    0    0 -0.10540701708E+03 -0.10430445975E+02 -0.42312879987E+03  0.43618506936E+03  0.00000000000E+00 0. -1.
         22    1    1    2    0    0  0.17694631296E+03  0.77377581911E+02  0.31017876735E+03  0.36538767846E+03  0.00000000000E+00 0.  1.
<mgrwt>
<rscale>  0 0.97987909E+03</rscale>
<asrwt>0</asrwt>
<pdfrwt beam="1">  1        2 0.54662084E-01 0.97987909E+03</pdfrwt>
<pdfrwt beam="2">  1       -2 0.10393746E+00 0.97987909E+03</pdfrwt>
<totfact> 0.68412156E+01</totfact>
</mgrwt>
</event>
<event>
 6    1  0.1762360E-005  0.3359884E+04  0.7818608E-02  0.8147823E-01
          1   -1    0    0  501    0  0.00000000000E+00  0.00000000000E+00  0.37043247334E+04  0.37043247334E+04  0.00000000000E+00 0. -1.
         -1   -1    0    0    0  501 -0.00000000000E+00 -0.00000000000E+00 -0.76186760575E+03  0.76186760575E+03  0.00000000000E+00 0.  1.
         23    2    1    2    0    0  0.94203040154E+03 -0.39946630936E+03 -0.29674192002E+03  0.10692223540E+04  0.90476877842E+02 0.  0.
         11    1    3    3    0    0  0.74315672854E+03 -0.28571522502E+03 -0.20284942683E+03  0.82162217773E+03  0.00000000000E+00 0. -1.
        -11    1    3    3    0    0  0.19887367300E+03 -0.11375108434E+03 -0.93892493192E+02  0.24760017625E+03  0.00000000000E+00 0.  1.
         22    1    1    2    0    0 -0.94203040154E+03  0.39946630936E+03  0.32391990477E+04  0.33969699852E+04  0.00000000000E+00 0. -1.
<mgrwt>
<rscale>  0 0.33598839E+04</rscale>
<asrwt>0</asrwt>
<pdfrwt beam="1">  1        1 0.56989610E+00 0.33598839E+04</pdfrwt>
<pdfrwt beam="2">  1       -1 0.11721040E+00 0.33598839E+04</pdfrwt>
<totfact> 0.92452105E-02</totfact>
</mgrwt>
</event>
<event>
 6    1  0.1762360E-005  0.1863348E+04  0.7818608E-02  0.8673319E-01
          1   -1    0    0  501    0  0.00000000000E+00  0.00000000000E+00  0.96072424460E+03  0.96072424460E+03  0.00000000000E+00 0. -1.
         -1   -1    0    0    0  501 -0.00000000000E+00 -0.00000000000E+00 -0.90350234117E+03  0.90350234117E+03  0.00000000000E+00 0.  1.
         23    2    1    2    0    0 -0.54677945523E+03 -0.71392309426E+03 -0.20600342652E+03  0.92724124357E+03  0.93193105222E+02 0.  0.
         11    1    3    3    0    0 -0.44173602837E+03 -0.53369240220E+03 -0.18807036876E+03  0.71786402789E+03  0.00000000000E+00 0.  1.
        -11    1    3    3    0    0 -0.10504342685E+03 -0.18023069206E+03 -0.17933057757E+02  0.20937721568E+03  0.00000000000E+00 0. -1.
         22    1    1    2    0    0  0.54677945523E+03  0.71392309426E+03  0.26322532995E+03  0.93698534220E+03  0.00000000000E+00 0. -1.
<mgrwt>
<rscale>  0 0.18633482E+04</rscale>
<asrwt>0</asrwt>
<pdfrwt beam="1">  1        1 0.14780373E+00 0.18633482E+04</pdfrwt>
<pdfrwt beam="2">  1       -1 0.13900036E+00 0.18633482E+04</pdfrwt>
<totfact> 0.65148365E+00</totfact>
</mgrwt>
</event>
<event>
 6    1  0.1762360E-005  0.3195028E+04  0.7818608E-02  0.8190131E-01
         -2   -1    0    0    0  501 -0.00000000000E+00  0.00000000000E+00  0.19842884784E+04  0.19842884784E+04  0.00000000000E+00 0. -1.
          2   -1    0    0  501    0  0.00000000000E+00 -0.00000000000E+00 -0.12861292714E+04  0.12861292714E+04  0.00000000000E+00 0.  1.
         23    2    1    2    0    0 -0.15478484862E+04 -0.38948265772E+03  0.36571186869E+03  0.16400641349E+04  0.92377047620E+02 0.  0.
         11    1    3    3    0    0 -0.19674974002E+03 -0.27510914601E+02  0.23374504214E+02  0.20003419225E+03  0.00000000000E+00 0.  1.
        -11    1    3    3    0    0 -0.13510987462E+04 -0.36197174311E+03  0.34233736447E+03  0.14400299427E+04  0.00000000000E+00 0. -1.
         22    1    1    2    0    0  0.15478484862E+04  0.38948265772E+03  0.33244733834E+03  0.16303536149E+04  0.00000000000E+00 0.  1.
<mgrwt>
<rscale>  0 0.31950283E+04</rscale>
<asrwt>0</asrwt>
<pdfrwt beam="1">  1        2 0.19786604E+00 0.31950283E+04</pdfrwt>
<pdfrwt beam="2">  1       -2 0.30527515E+00 0.31950283E+04</pdfrwt>
<totfact> 0.41855216E-01</totfact>
</mgrwt>
</event>
<event>
 6    1  0.1762360E-005  0.3642293E+04  0.7818608E-02  0.8080872E-01
          2   -1    0    0  501    0  0.00000000000E+00  0.00000000000E+00  0.11662525468E+04  0.11662525468E+04  0.00000000000E+00 0. -1.
         -2   -1    0    0    0  501 -0.00000000000E+00 -0.00000000000E+00 -0.28437882800E+04  0.28437882800E+04  0.00000000000E+00 0.  1.
         23    2    1    2    0    0 -0.99902089714E+03  0.14594877510E+04 -0.13121408254E+04  0.22040339922E+04  0.88910318009E+02 0.  0.
         11    1    3    3    0    0 -0.28225097281E+03  0.36356757234E+03 -0.30729057738E+03  0.55342071723E+03  0.00000000000E+00 0. -1.
        -11    1    3    3    0    0 -0.71676992433E+03  0.10959201787E+04 -0.10048502481E+04  0.16506132749E+04  0.00000000000E+00 0.  1.
         22    1    1    2    0    0  0.99902089714E+03 -0.14594877510E+04 -0.36539490774E+03  0.18060068347E+04  0.00000000000E+00 0. -1.
<mgrwt>
<rscale>  0 0.36422934E+04</rscale>
<asrwt>0</asrwt>
<pdfrwt beam="1">  1        2 0.17942347E+00 0.36422934E+04</pdfrwt>
<pdfrwt beam="2">  1       -2 0.43750588E+00 0.36422934E+04</pdfrwt>
<totfact> 0.67631498E-02</totfact>
</mgrwt>
</event>
<event>
 6    1  0.1762360E-005  0.2756780E+04  0.7818608E-02  0.8316814E-01
         -1   -1    0    0    0  501 -0.00000000000E+00  0.00000000000E+00  0.69753201783E+03  0.69753201783E+03  0.00000000000E+00 0.  1.
          1   -1    0    0  501    0  0.00000000000E+00 -0.00000000000E+00 -0.27238299128E+04  0.27238299128E+04  0.00000000000E+00 0. -1.
         23    2    1    2    0    0  0.60354358573E+03 -0.11183644560E+04 -0.16720313062E+04  0.21020785144E+04  0.89674273380E+02 0.  0.
         13    1    3    3    0    0  0.36247468187E+03 -0.65249460197E+03 -0.10525499771E+04  0.12903482301E+04  0.00000000000E+00 0. -1.
        -13    1    3    3    0    0  0.24106890385E+03 -0.46586985407E+03 -0.61948132910E+03  0.81173028429E+03  0.00000000000E+00 0.  1.
         22    1    1    2    0    0 -0.60354358573E+03  0.11183644560E+04 -0.35426658877E+03  0.13192834162E+04  0.00000000000E+00 0.  1.
<mgrwt>
<rscale>  0 0.27567797E+04</rscale>
<asrwt>0</asrwt>
<pdfrwt beam="1">  1        1 0.41905076E+00 0.27567797E+04</pdfrwt>
<pdfrwt beam="2">  1       -1 0.10731262E+00 0.27567797E+04</pdfrwt>
<totfact> 0.66328866E-01</totfact>
</mgrwt>
</event>
<event>
 6    1  0.1762360E-005  0.1693730E+04  0.7818608E-02  0.8764949E-01
          2   -1    0    0  501    0  0.00000000000E+00  0.00000000000E+00  0.69091582932E+03  0.69091582932E+03  0.00000000000E+00 0. -1.
         -2   -1    0    0    0  501 -0.00000000000E+00 -0.00000000000E+00 -0.10380138049E+04  0.10380138049E+04  0.00000000000E+00 0.  1.
         23    2    1    2    0    0 -0.43502554011E+03  0.21879829658E+03  0.53018186338E+03  0.72556537784E+03  0.90732541751E+02 0.  0.
         11    1    3    3    0    0 -0.36779652553E+03  0.21284285546E+03  0.48238807429E+03  0.64286438658E+03  0.00000000000E+00 0. -1.
        -11    1    3    3    0    0 -0.67229014581E+02  0.59554411148E+01  0.47793789086E+02  0.82700991261E+02  0.00000000000E+00 0.  1.
         22    1    1    2    0    0  0.43502554011E+03 -0.21879829658E+03 -0.87727983899E+03  0.10033642564E+04  0.00000000000E+00 0.  1.
<mgrwt>
<rscale>  0 0.16937298E+04</rscale>
<asrwt>0</asrwt>
<pdfrwt beam="1">  1        2 0.10629474E+00 0.16937298E+04</pdfrwt>
<pdfrwt beam="2">  1       -2 0.15969443E+00 0.16937298E+04</pdfrwt>
<totfact> 0.10034916E+01</totfact>
</mgrwt>
</event>
<event>
 6    1  0.1762360E-005  0.1466185E+04  0.7818608E-02  0.8907256E-01
          2   -1    0    0  501    0  0.00000000000E+00  0.00000000000E+00  0.16324226308E+04  0.16324226308E+04  0.00000000000E+00 0. -1.
         -2   -1    0    0    0  501 -0.00000000000E+00 -0.00000000000E+00 -0.32921922906E+03  0.32921922906E+03  0.00000000000E+00 0.  1.
         23    2    1    2    0    0  0.31731177340E+03 -0.21178416476E+03  0.14869002611E+04  0.15382226466E+04  0.98576012972E+02 0.  0.
         11    1    3    3    0    0  0.10391338887E+03 -0.27801644152E+02  0.52492085209E+03  0.53582910033E+03  0.00000000000E+00 0.  1.
        -11    1    3    3    0    0  0.21339838453E+03 -0.18398252061E+03  0.96197940897E+03  0.10023935463E+04  0.00000000000E+00 0. -1.
         22    1    1    2    0    0 -0.31731177340E+03  0.21178416476E+03 -0.18369685933E+03  0.42341921321E+03  0.00000000000E+00 0.  1.
<mgrwt>
<rscale>  0 0.14661854E+04</rscale>
<asrwt>0</asrwt>
<pdfrwt beam="1">  1        2 0.25114194E+00 0.14661854E+04</pdfrwt>
<pdfrwt beam="2">  1       -2 0.50649113E-01 0.14661854E+04</pdfrwt>
<totfact> 0.38178475E+01</totfact>
</mgrwt>
</event>
<event>
 6    1  0.1762360E-005  0.3078158E+04  0.7818608E-02  0.8221758E-01
         -1   -1    0    0    0  501 -0.00000000000E+00  0.00000000000E+00  0.14023927537E+04  0.14023927537E+04  0.00000000000E+00 0. -1.
          1   -1    0    0  501    0  0.00000000000E+00 -0.00000000000E+00 -0.16890874411E+04  0.16890874411E+04  0.00000000000E+00 0.  1.
         23    2    1    2    0    0  0.40342122782E+03 -0.30324901757E+03  0.13153686124E+04  0.14118030025E+04  0.91019104705E+02 0.  0.
         11    1    3    3    0    0  0.23005666681E+03 -0.19795495193E+03  0.67534981887E+03  0.74041178461E+03  0.00000000000E+00 0. -1.
        -11    1    3    3    0    0  0.17336456101E+03 -0.10529406564E+03  0.64001879357E+03  0.67139121784E+03  0.00000000000E+00 0.  1.
         22    1    1    2    0    0 -0.40342122782E+03  0.30324901757E+03 -0.16020632998E+04  0.16796771923E+04  0.00000000000E+00 0.  1.
<mgrwt>
<rscale>  0 0.30781579E+04</rscale>
<asrwt>0</asrwt>
<pdfrwt beam="1">  1        1 0.25985961E+00 0.30781579E+04</pdfrwt>
<pdfrwt beam="2">  1       -1 0.21575273E+00 0.30781579E+04</pdfrwt>
<totfact> 0.48177587E-01</totfact>
</mgrwt>
</event>
<event>
 6    1  0.1762360E-005  0.1052148E+04  0.7818608E-02  0.9253129E-01
          2   -1    0    0  501    0  0.00000000000E+00  0.00000000000E+00  0.11801941415E+04  0.11801941415E+04  0.00000000000E+00 0. -1.
         -2   -1    0    0    0  501 -0.00000000000E+00 -0.00000000000E+00 -0.23449850820E+03  0.23449850820E+03  0.00000000000E+00 0.  1.
         23    2    1    2    0    0 -0.34042499633E+03  0.39045255292E+03  0.37459602828E+03  0.64365624778E+03  0.75025373674E+02 0.  0.
         13    1    3    3    0    0 -0.22812746952E+03  0.28141363410E+03  0.22098377078E+03  0.42434608842E+03  0.00000000000E+00 0.  1.
        -13    1    3    3    0    0 -0.11229752680E+03  0.10903891882E+03  0.15361225751E+03  0.21931015937E+03  0.00000000000E+00 0. -1.
         22    1    1    2    0    0  0.34042499633E+03 -0.39045255292E+03  0.57109960499E+03  0.77103640188E+03  0.00000000000E+00 0.  1.
<mgrwt>
<rscale>  0 0.10521478E+04</rscale>
<asrwt>0</asrwt>
<pdfrwt beam="1">  1        2 0.18156833E+00 0.10521478E+04</pdfrwt>
<pdfrwt beam="2">  1       -2 0.36076694E-01 0.10521478E+04</pdfrwt>
<totfact> 0.13992622E+02</totfact>
</mgrwt>
</event>
<event>
 6    1  0.1762360E-005  0.2176151E+04  0.7818608E-02  0.8528421E-01
         -2   -1    0    0    0  501 -0.00000000000E+00  0.00000000000E+00  0.51850287964E+03  0.51850287964E+03  0.00000000000E+00 0.  1.
          2   -1    0    0  501    0  0.00000000000E+00 -0.00000000000E+00 -0.22833207180E+04  0.22833207180E+04  0.00000000000E+00 0. -1.
         23    2    1    2    0    0 -0.39914244480E+03  0.86006323586E+03 -0.19972569000E+03  0.97192280966E+03  0.75631579204E+02 0.  0.
         13    1    3    3    0    0 -0.41785503278E+02  0.15536312277E+03 -0.40606272019E+02  0.16592949565E+03  0.00000000000E+00 0. -1.
        -13    1    3    3    0    0 -0.35735694152E+03  0.70470011310E+03 -0.15911941798E+03  0.80599331401E+03  0.00000000000E+00 0.  1.
         22    1    1    2    0    0  0.39914244480E+03 -0.86006323586E+03 -0.15650921483E+04  0.18299007879E+04  0.00000000000E+00 0. -1.
<mgrwt>
<rscale>  0 0.21761511E+04</rscale>
<asrwt>0</asrwt>
<pdfrwt beam="1">  1        2 0.35128010E+00 0.21761511E+04</pdfrwt>
<pdfrwt beam="2">  1       -2 0.79769676E-01 0.21761511E+04</pdfrwt>
<totfact> 0.59035176E+00</totfact>
</mgrwt>
</event>
<event>
 6    1  0.1762360E-005  0.3915991E+04  0.7818608E-02  0.8021712E-01
          2   -1    0    0  501    0  0.00000000000E+00  0.00000000000E+00  0.11772209257E+04  0.11772209257E+04  0.00000000000E+00 0. -1.
         -2   -1    0    0    0  501 -0.00000000000E+00 -0.00000000000E+00 -0.32566069746E+04  0.32566069746E+04  0.00000000000E+00 0.  1.
         23    2    1    2    0    0  0.11244350673E+04 -0.14929433985E+04 -0.38331271821E+03  0.19099620254E+04  0.88272796185E+02 0.  0.
         13    1    3    3    0    0  0.35848694033E+03 -0.52044801313E+03 -0.16235213730E+03  0.65248543067E+03  0.00000000000E+00 0. -1.
        -13    1    3    3    0    0  0.76594812700E+03 -0.97249538540E+03 -0.22096058090E+03  0.12574765947E+04  0.00000000000E+00 0.  1.
         22    1    1    2    0    0 -0.11244350673E+04  0.14929433985E+04 -0.16960733306E+04  0.25238658750E+04  0.00000000000E+00 0.  1.
<mgrwt>
<rscale>  0 0.39159907E+04</rscale>
<asrwt>0</asrwt>
<pdfrwt beam="1">  1        2 0.18111091E+00 0.39159907E+04</pdfrwt>
<pdfrwt beam="2">  1       -2 0.50101645E+00 0.39159907E+04</pdfrwt>
<totfact> 0.25259952E-02</totfact>
</mgrwt>
</event>
<event>
 6    1  0.1762360E-005  0.4474061E+04  0.7818608E-02  0.7915194E-01
          2   -1    0    0  501    0  0.00000000000E+00  0.00000000000E+00  0.33191504718E+04  0.33191504718E+04  0.00000000000E+00 0. -1.
         -2   -1    0    0    0  501 -0.00000000000E+00 -0.00000000000E+00 -0.15077063793E+04  0.15077063793E+04  0.00000000000E+00 0.  1.
         23    2    1    2    0    0  0.72744131509E+03 -0.36395557900E+03  0.31532457009E+04  0.32577596308E+04  0.91677870329E+02 0.  0.
         13    1    3    3    0    0  0.43276629729E+03 -0.24418842152E+03  0.17712521278E+04  0.18396327769E+04  0.00000000000E+00 0. -1.
        -13    1    3    3    0    0  0.29467501780E+03 -0.11976715748E+03  0.13819935730E+04  0.14181268540E+04  0.00000000000E+00 0.  1.
         22    1    1    2    0    0 -0.72744131509E+03  0.36395557900E+03 -0.13418016084E+04  0.15690972203E+04  0.00000000000E+00 0.  1.
<mgrwt>
<rscale>  0 0.44740605E+04</rscale>
<asrwt>0</asrwt>
<pdfrwt beam="1">  1        2 0.51063853E+00 0.44740605E+04</pdfrwt>
<pdfrwt beam="2">  1       -2 0.23195483E+00 0.44740605E+04</pdfrwt>
<totfact> 0.68168715E-02</totfact>
</mgrwt>
</event>
<event>
 6    1  0.1762360E-005  0.3458222E+04  0.7818608E-02  0.8123763E-01
         -2   -1    0    0    0  501 -0.00000000000E+00  0.00000000000E+00  0.81528152569E+03  0.81528152569E+03  0.00000000000E+00 0.  1.
          2   -1    0    0  501    0  0.00000000000E+00 -0.00000000000E+00 -0.36672291824E+04  0.36672291824E+04  0.00000000000E+00 0. -1.
         23    2    1    2    0    0 -0.13118945872E+04 -0.89604048247E+03 -0.23077067614E+04  0.28031792618E+04  0.91364779648E+02 0.  0.
         11    1    3    3    0    0 -0.10493072318E+04 -0.67669798942E+03 -0.18422467061E+04  0.22254974189E+04  0.00000000000E+00 0.  1.
        -11    1    3    3    0    0 -0.26258735543E+03 -0.21934249305E+03 -0.46546005535E+03  0.57768184290E+03  0.00000000000E+00 0. -1.
         22    1    1    2    0    0  0.13118945872E+04  0.89604048247E+03 -0.54424089525E+03  0.16793314462E+04  0.00000000000E+00 0.  1.
<mgrwt>
<rscale>  0 0.34582216E+04</rscale>
<asrwt>0</asrwt>
<pdfrwt beam="1">  1        2 0.56418910E+00 0.34582216E+04</pdfrwt>
<pdfrwt beam="2">  1       -2 0.12542793E+00 0.34582216E+04</pdfrwt>
<totfact> 0.24139227E-01</totfact>
</mgrwt>
</event>
<event>
 6    1  0.1762360E-005  0.1540033E+04  0.7818608E-02  0.8858259E-01
          2   -1    0    0  501    0  0.00000000000E+00  0.00000000000E+00  0.13950185707E+04  0.13950185707E+04  0.00000000000E+00 0. -1.
         -2   -1    0    0    0  501 -0.00000000000E+00 -0.00000000000E+00 -0.42503047566E+03  0.42503047566E+03  0.00000000000E+00 0.  1.
         23    2    1    2    0    0  0.20041343780E+03  0.16351598549E+03 -0.36686680293E+03  0.45840149954E+03  0.92939012955E+02 0.  0.
         11    1    3    3    0    0  0.15400587454E+03  0.16835506667E+03 -0.30258724642E+03  0.37897266334E+03  0.00000000000E+00 0. -1.
        -11    1    3    3    0    0  0.46407563260E+02 -0.48390811827E+01 -0.64279556509E+02  0.79428836195E+02  0.00000000000E+00 0.  1.
         22    1    1    2    0    0 -0.20041343780E+03 -0.16351598549E+03  0.13368548979E+04  0.13616475468E+04  0.00000000000E+00 0. -1.
<mgrwt>
<rscale>  0 0.15400330E+04</rscale>
<asrwt>0</asrwt>
<pdfrwt beam="1">  1        2 0.21461824E+00 0.15400330E+04</pdfrwt>
<pdfrwt beam="2">  1       -2 0.65389305E-01 0.15400330E+04</pdfrwt>
<totfact> 0.30239521E+01</totfact>
</mgrwt>
</event>
<event>
 6    1  0.1762360E-005  0.1133314E+04  0.7818608E-02  0.9173317E-01
         -3   -1    0    0    0  501 -0.00000000000E+00  0.00000000000E+00  0.14420704959E+03  0.14420704959E+03  0.00000000000E+00 0.  1.
          3   -1    0    0  501    0  0.00000000000E+00 -0.00000000000E+00 -0.22266609575E+04  0.22266609575E+04  0.00000000000E+00 0. -1.
         23    2    1    2    0    0 -0.53741330199E+03  0.87837179611E+01 -0.69850015972E+03  0.88620703973E+03  0.92575554425E+02 0.  0.
         13    1    3    3    0    0 -0.43468400923E+03  0.31397650669E+02 -0.51462136896E+03  0.67436722469E+03  0.00000000000E+00 0.  1.
        -13    1    3    3    0    0 -0.10272929276E+03 -0.22613932708E+02 -0.18387879076E+03  0.21183981503E+03  0.00000000000E+00 0. -1.
         22    1    1    2    0    0  0.53741330199E+03 -0.87837179611E+01 -0.13839537482E+04  0.14846609674E+04  0.00000000000E+00 0. -1.
<mgrwt>
<rscale>  0 0.11333141E+04</rscale>
<asrwt>0</asrwt>
<pdfrwt beam="1">  1        3 0.34256322E+00 0.11333141E+04</pdfrwt>
<pdfrwt beam="2">  1       -3 0.22185700E-01 0.11333141E+04</pdfrwt>
<totfact> 0.11364232E+00</totfact>
</mgrwt>
</event>
<event>
 6    1  0.1762360E-005  0.1866396E+04  0.7818608E-02  0.8671766E-01
          2   -1    0    0  501    0  0.00000000000E+00  0.00000000000E+00  0.18246617877E+04  0.18246617877E+04  0.00000000000E+00 0. -1.
         -2   -1    0    0    0  501 -0.00000000000E+00 -0.00000000000E+00 -0.47727122307E+03  0.47727122307E+03  0.00000000000E+00 0.  1.
         23    2    1    2    0    0  0.17094562103E+03 -0.64982425168E+03 -0.11973362265E+03  0.68825790582E+03  0.88706488550E+02 0.  0.
         11    1    3    3    0    0  0.11830118110E+03 -0.28403598668E+03 -0.67806947232E+02  0.31507045763E+03  0.00000000000E+00 0. -1.
        -11    1    3    3    0    0  0.52644439938E+02 -0.36578826500E+03 -0.51926675415E+02  0.37318744819E+03  0.00000000000E+00 0.  1.
         22    1    1    2    0    0 -0.17094562103E+03  0.64982425168E+03  0.14671241873E+04  0.16136751050E+04  0.00000000000E+00 0. -1.
<mgrwt>
<rscale>  0 0.18663961E+04</rscale>
<asrwt>0</asrwt>
<pdfrwt beam="1">  1        2 0.28071719E+00 0.18663961E+04</pdfrwt>
<pdfrwt beam="2">  1       -2 0.73426343E-01 0.18663961E+04</pdfrwt>
<totfact> 0.13139011E+01</totfact>
</mgrwt>
</event>
<event>
 6    1  0.1762360E-005  0.2299247E+04  0.7818608E-02  0.8478218E-01
         -1   -1    0    0    0  501 -0.00000000000E+00  0.00000000000E+00  0.16152551686E+04  0.16152551686E+04  0.00000000000E+00 0.  1.
          1   -1    0    0  501    0  0.00000000000E+00 -0.00000000000E+00 -0.81822039874E+03  0.81822039874E+03  0.00000000000E+00 0. -1.
         23    2    1    2    0    0 -0.63677089921E+03 -0.16904532866E+03  0.13939206655E+04  0.15444726013E+04  0.91254003252E+02 0.  0.
         11    1    3    3    0    0 -0.32875151648E+03 -0.10792144038E+03  0.63507963101E+03  0.72322246550E+03  0.00000000000E+00 0. -1.
        -11    1    3    3    0    0 -0.30801938273E+03 -0.61123888275E+02  0.75884103450E+03  0.82125013577E+03  0.00000000000E+00 0.  1.
         22    1    1    2    0    0  0.63677089921E+03  0.16904532866E+03 -0.59688589566E+03  0.88900296606E+03  0.00000000000E+00 0. -1.
<mgrwt>
<rscale>  0 0.22992475E+04</rscale>
<asrwt>0</asrwt>
<pdfrwt beam="1">  1        1 0.12588006E+00 0.22992475E+04</pdfrwt>
<pdfrwt beam="2">  1       -1 0.24850079E+00 0.22992475E+04</pdfrwt>
<totfact> 0.13741680E+00</totfact>
</mgrwt>
</event>
<event>
 6    1  0.1762360E-005  0.1088798E+04  0.7818608E-02  0.9216179E-01
          2   -1    0    0  501    0  0.00000000000E+00  0.00000000000E+00  0.72168657531E+03  0.72168657531E+03  0.00000000000E+00 0. -1.
         -2   -1    0    0    0  501 -0.00000000000E+00 -0.00000000000E+00 -0.41066360893E+03  0.41066360893E+03  0.00000000000E+00 0.  1.
         23    2    1    2    0    0 -0.27034692211E+03  0.31665966616E+02  0.64233989435E+03  0.70355991092E+03  0.91136253199E+02 0.  0.
         13    1    3    3    0    0 -0.13313927830E+03  0.50077524744E+02  0.25167931643E+03  0.28909566623E+03  0.00000000000E+00 0. -1.
        -13    1    3    3    0    0 -0.13720764381E+03 -0.18411558128E+02  0.39066057791E+03  0.41446424469E+03  0.00000000000E+00 0.  1.
         22    1    1    2    0    0  0.27034692211E+03 -0.31665966616E+02 -0.33131692796E+03  0.42879027332E+03  0.00000000000E+00 0.  1.
<mgrwt>
<rscale>  0 0.10887983E+04</rscale>
<asrwt>0</asrwt>
<pdfrwt beam="1">  1        2 0.11102870E+00 0.10887983E+04</pdfrwt>
<pdfrwt beam="2">  1       -2 0.63179017E-01 0.10887983E+04</pdfrwt>
<totfact> 0.90899534E+01</totfact>
</mgrwt>
</event>
<event>
 6    1  0.1762360E-005  0.1227643E+04  0.7818608E-02  0.9088999E-01
         -2   -1    0    0    0  501 -0.00000000000E+00  0.00000000000E+00  0.26437165967E+03  0.26437165967E+03  0.00000000000E+00 0. -1.
          2   -1    0    0  501    0  0.00000000000E+00 -0.00000000000E+00 -0.14251792466E+04  0.14251792466E+04  0.00000000000E+00 0.  1.
         23    2    1    2    0    0 -0.11553627951E+03 -0.25660251093E+03 -0.13282250494E+04  0.13621030673E+04  0.10931378457E+03 0.  0.
         11    1    3    3    0    0 -0.84355655703E+02 -0.84287027691E+02 -0.39567370791E+03  0.41325278320E+03  0.00000000000E+00 0. -1.
        -11    1    3    3    0    0 -0.31180623809E+02 -0.17231548323E+03 -0.93255134151E+03  0.94885028409E+03  0.00000000000E+00 0.  1.
         22    1    1    2    0    0  0.11553627951E+03  0.25660251093E+03  0.16741746250E+03  0.32744783897E+03  0.00000000000E+00 0. -1.
<mgrwt>
<rscale>  0 0.12276433E+04</rscale>
<asrwt>0</asrwt>
<pdfrwt beam="1">  1        2 0.21925835E+00 0.12276433E+04</pdfrwt>
<pdfrwt beam="2">  1       -2 0.40672562E-01 0.12276433E+04</pdfrwt>
<totfact> 0.78877830E+01</totfact>
</mgrwt>
</event>
<event>
 6    1  0.1762360E-005  0.1378111E+04  0.7818608E-02  0.8969817E-01
         -2   -1    0    0    0  501 -0.00000000000E+00  0.00000000000E+00  0.37355383480E+03  0.37355383480E+03  0.00000000000E+00 0.  1.
          2   -1    0    0  501    0  0.00000000000E+00 -0.00000000000E+00 -0.12710280420E+04  0.12710280420E+04  0.00000000000E+00 0. -1.
         23    2    1    2    0    0  0.25581995192E+03  0.48590279924E+03 -0.94141208999E+03  0.10936953952E+04  0.91474128214E+02 0.  0.
         11    1    3    3    0    0  0.21751184748E+03  0.33384583472E+03 -0.63911755490E+03  0.75315051227E+03  0.00000000000E+00 0. -1.
        -11    1    3    3    0    0  0.38308104444E+02  0.15205696451E+03 -0.30229453509E+03  0.34054488290E+03  0.00000000000E+00 0.  1.
         22    1    1    2    0    0 -0.25581995192E+03 -0.48590279924E+03  0.43937882783E+02  0.55088648164E+03  0.00000000000E+00 0.  1.
<mgrwt>
<rscale>  0 0.13781109E+04</rscale>
<asrwt>0</asrwt>
<pdfrwt beam="1">  1        2 0.19554278E+00 0.13781109E+04</pdfrwt>
<pdfrwt beam="2">  1       -2 0.57469821E-01 0.13781109E+04</pdfrwt>
<totfact> 0.47523282E+01</totfact>
</mgrwt>
</event>
<event>
 6    1  0.1762360E-005  0.2466323E+04  0.7818608E-02  0.8415082E-01
         -2   -1    0    0    0  501 -0.00000000000E+00  0.00000000000E+00  0.70151100202E+03  0.70151100202E+03  0.00000000000E+00 0.  1.
          2   -1    0    0  501    0  0.00000000000E+00 -0.00000000000E+00 -0.21677311696E+04  0.21677311696E+04  0.00000000000E+00 0. -1.
         23    2    1    2    0    0  0.29788110853E+03  0.11645021740E+04 -0.42274768717E+03  0.12775030958E+04  0.92195904919E+02 0.  0.
         11    1    3    3    0    0  0.24619751558E+03  0.87539817333E+03 -0.28388644445E+03  0.95264195367E+03  0.00000000000E+00 0.  1.
        -11    1    3    3    0    0  0.51683592956E+02  0.28910400065E+03 -0.13886124272E+03  0.32486114218E+03  0.00000000000E+00 0. -1.
         22    1    1    2    0    0 -0.29788110853E+03 -0.11645021740E+04 -0.10434724804E+04  0.15917390758E+04  0.00000000000E+00 0. -1.
<mgrwt>
<rscale>  0 0.24663230E+04</rscale>
<asrwt>0</asrwt>
<pdfrwt beam="1">  1        2 0.33349710E+00 0.24663230E+04</pdfrwt>
<pdfrwt beam="2">  1       -2 0.10792477E+00 0.24663230E+04</pdfrwt>
<totfact> 0.33125940E+00</totfact>
</mgrwt>
</event>
<event>
 6    1  0.1762360E-005  0.4037782E+04  0.7818608E-02  0.7996968E-01
         -1   -1    0    0    0  501 -0.00000000000E+00  0.00000000000E+00  0.15962599728E+04  0.15962599728E+04  0.00000000000E+00 0.  1.
          1   -1    0    0  501    0  0.00000000000E+00 -0.00000000000E+00 -0.25534196407E+04  0.25534196407E+04  0.00000000000E+00 0. -1.
         23    2    1    2    0    0 -0.55677104201E+03 -0.19311678430E+04 -0.29367569266E+03  0.20331696994E+04  0.90168635690E+02 0.  0.
         11    1    3    3    0    0 -0.28664759131E+03 -0.98984938639E+03 -0.10504091163E+03  0.10358582154E+04  0.00000000000E+00 0. -1.
        -11    1    3    3    0    0 -0.27012345070E+03 -0.94131845661E+03 -0.18863478103E+03  0.99731148394E+03  0.00000000000E+00 0.  1.
         22    1    1    2    0    0  0.55677104201E+03  0.19311678430E+04 -0.66348397521E+03  0.21165099141E+04  0.00000000000E+00 0. -1.
<mgrwt>
<rscale>  0 0.40377823E+04</rscale>
<asrwt>0</asrwt>
<pdfrwt beam="1">  1        1 0.39283379E+00 0.40377823E+04</pdfrwt>
<pdfrwt beam="2">  1       -1 0.24557846E+00 0.40377823E+04</pdfrwt>
<totfact> 0.72309381E-02</totfact>
</mgrwt>
</event>
<event>
 6    1  0.1762360E-005  0.1032379E+04  0.7818608E-02  0.9273728E-01
          2   -1    0    0  501    0  0.00000000000E+00  0.00000000000E+00  0.12533583408E+04  0.12533583408E+04  0.00000000000E+00 0. -1.
         -2   -1    0    0    0  501 -0.00000000000E+00 -0.00000000000E+00 -0.21258999510E+03  0.21258999510E+03  0.00000000000E+00 0.  1.
         23    2    1    2    0    0 -0.29924740684E+03  0.40140422214E+03  0.67755372217E+03  0.84740228040E+03  0.91308369513E+02 0.  0.
         11    1    3    3    0    0 -0.54289077772E+02  0.13986792281E+03  0.21839626685E+03  0.26496654349E+03  0.00000000000E+00 0.  1.
        -11    1    3    3    0    0 -0.24495832907E+03  0.26153629933E+03  0.45915745532E+03  0.58243573690E+03  0.00000000000E+00 0. -1.
         22    1    1    2    0    0  0.29924740684E+03 -0.40140422214E+03  0.36321462355E+03  0.61854605553E+03  0.00000000000E+00 0.  1.
<mgrwt>
<rscale>  0 0.10323787E+04</rscale>
<asrwt>0</asrwt>
<pdfrwt beam="1">  1        2 0.19282436E+00 0.10323787E+04</pdfrwt>
<pdfrwt beam="2">  1       -2 0.32706154E-01 0.10323787E+04</pdfrwt>
<totfact> 0.15277381E+02</totfact>
</mgrwt>
</event>
<event>
 6    1  0.1762360E-005  0.3524632E+04  0.7818608E-02  0.8107977E-01
         -2   -1    0    0    0  501 -0.00000000000E+00  0.00000000000E+00  0.16272843488E+04  0.16272843488E+04  0.00000000000E+00 0.  1.
          2   -1    0    0  501    0  0.00000000000E+00 -0.00000000000E+00 -0.19085522639E+04  0.19085522639E+04  0.00000000000E+00 0. -1.
         23    2    1    2    0    0 -0.73672188955E+03 -0.77210073722E+02  0.14621116450E+04  0.16416104307E+04  0.91617715256E+02 0.  0.
         13    1    3    3    0    0 -0.51344378118E+03 -0.38085871195E+02  0.10977869859E+04  0.12125227076E+04  0.00000000000E+00 0. -1.
        -13    1    3    3    0    0 -0.22327810838E+03 -0.39124202526E+02  0.36432465908E+03  0.42908772310E+03  0.00000000000E+00 0.  1.
         22    1    1    2    0    0  0.73672188955E+03  0.77210073722E+02 -0.17433795600E+04  0.18942261820E+04  0.00000000000E+00 0. -1.
<mgrwt>
<rscale>  0 0.35246317E+04</rscale>
<asrwt>0</asrwt>
<pdfrwt beam="1">  1        2 0.29362342E+00 0.35246317E+04</pdfrwt>
<pdfrwt beam="2">  1       -2 0.25035144E+00 0.35246317E+04</pdfrwt>
<totfact> 0.39386951E-01</totfact>
</mgrwt>
</event>
<event>
 6    1  0.1762360E-005  0.1499764E+04  0.7818608E-02  0.8884610E-01
          2   -1    0    0  501    0  0.00000000000E+00  0.00000000000E+00  0.34383703654E+04  0.34383703654E+04  0.00000000000E+00 0. -1.
         -2   -1    0    0    0  501 -0.00000000000E+00 -0.00000000000E+00 -0.16354344760E+03  0.16354344760E+03  0.00000000000E+00 0.  1.
         23    2    1    2    0    0  0.71536801894E+03 -0.19929766196E+03  0.18442975728E+04  0.19901181785E+04  0.87554935253E+02 0.  0.
         11    1    3    3    0    0  0.21276446517E+03 -0.98485088967E+02  0.61902749773E+03  0.66193887432E+03  0.00000000000E+00 0. -1.
        -11    1    3    3    0    0  0.50260355377E+03 -0.10081257300E+03  0.12252700751E+04  0.13281793042E+04  0.00000000000E+00 0.  1.
         22    1    1    2    0    0 -0.71536801894E+03  0.19929766196E+03  0.14305293450E+04  0.16117956345E+04  0.00000000000E+00 0. -1.
<mgrwt>
<rscale>  0 0.14997639E+04</rscale>
<asrwt>0</asrwt>
<pdfrwt beam="1">  1        2 0.52898000E+00 0.14997639E+04</pdfrwt>
<pdfrwt beam="2">  1       -2 0.25160533E-01 0.14997639E+04</pdfrwt>
<totfact> 0.12457530E+01</totfact>
</mgrwt>
</event>
<event>
 6    1  0.1762360E-005  0.2230618E+04  0.7818608E-02  0.8505791E-01
          2   -1    0    0  501    0  0.00000000000E+00  0.00000000000E+00  0.15692393064E+04  0.15692393064E+04  0.00000000000E+00 0. -1.
         -2   -1    0    0    0  501 -0.00000000000E+00 -0.00000000000E+00 -0.79268622808E+03  0.79268622808E+03  0.00000000000E+00 0.  1.
         23    2    1    2    0    0 -0.29548450481E+03  0.30485486564E+03  0.14787986007E+04  0.15413182255E+04  0.92568833968E+02 0.  0.
         13    1    3    3    0    0 -0.41612402197E+02  0.84793232452E+02  0.24447465709E+03  0.26208651672E+03  0.00000000000E+00 0. -1.
        -13    1    3    3    0    0 -0.25387210261E+03  0.22006163319E+03  0.12343239436E+04  0.12792317088E+04  0.00000000000E+00 0.  1.
         22    1    1    2    0    0  0.29548450481E+03 -0.30485486564E+03 -0.70224552246E+03  0.82060730895E+03  0.00000000000E+00 0.  1.
<mgrwt>
<rscale>  0 0.22306182E+04</rscale>
<asrwt>0</asrwt>
<pdfrwt beam="1">  1        2 0.24142143E+00 0.22306182E+04</pdfrwt>
<pdfrwt beam="2">  1       -2 0.12195173E+00 0.22306182E+04</pdfrwt>
<totfact> 0.53972008E+00</totfact>
</mgrwt>
</event>
<event>
 6    1  0.1762360E-005  0.9294746E+03  0.7818608E-02  0.9389469E-01
          2   -1    0    0  501    0  0.00000000000E+00  0.00000000000E+00  0.69502601709E+03  0.69502601709E+03  0.00000000000E+00 0. -1.
         -2   -1    0    0    0  501 -0.00000000000E+00 -0.00000000000E+00 -0.31075202646E+03  0.31075202646E+03  0.00000000000E+00 0.  1.
         23    2    1    2    0    0  0.40825908805E+03  0.70779815960E+02 -0.23837021971E+02  0.42419411674E+03  0.87676563231E+02 0.  0.
         13    1    3    3    0    0  0.32866570598E+03  0.21852031058E+02 -0.28693078840E+02  0.33063870058E+03  0.00000000000E+00 0.  1.
        -13    1    3    3    0    0  0.79593382065E+02  0.48927784902E+02  0.48560568697E+01  0.93555416157E+02  0.00000000000E+00 0. -1.
         22    1    1    2    0    0 -0.40825908805E+03 -0.70779815960E+02  0.40811101260E+03  0.58158392681E+03  0.00000000000E+00 0. -1.
<mgrwt>
<rscale>  0 0.92947457E+03</rscale>
<asrwt>0</asrwt>
<pdfrwt beam="1">  1        2 0.10692708E+00 0.92947457E+03</pdfrwt>
<pdfrwt beam="2">  1       -2 0.47808004E-01 0.92947457E+03</pdfrwt>
<totfact> 0.17170679E+02</totfact>
</mgrwt>
</event>
<event>
 6    1  0.1762360E-005  0.2248542E+04  0.7818608E-02  0.8498491E-01
          2   -1    0    0  501    0  0.00000000000E+00  0.00000000000E+00  0.20358965471E+04  0.20358965471E+04  0.00000000000E+00 0.  1.
         -2   -1    0    0    0  501 -0.00000000000E+00 -0.00000000000E+00 -0.62084921894E+03  0.62084921894E+03  0.00000000000E+00 0. -1.
         23    2    1    2    0    0  0.11168079380E+04  0.51535747466E+01  0.84166764481E+03  0.14013371509E+04  0.89748853380E+02 0.  0.
         13    1    3    3    0    0  0.99716855724E+03 -0.39571636752E+01  0.78257013038E+03  0.12675869989E+04  0.00000000000E+00 0. -1.
        -13    1    3    3    0    0  0.11963938072E+03  0.91107384219E+01  0.59097514421E+02  0.13375015209E+03  0.00000000000E+00 0.  1.
         22    1    1    2    0    0 -0.11168079380E+04 -0.51535747466E+01  0.57337968338E+03  0.12554086151E+04  0.00000000000E+00 0. -1.
<mgrwt>
<rscale>  0 0.22485416E+04</rscale>
<asrwt>0</asrwt>
<pdfrwt beam="1">  1        2 0.31321485E+00 0.22485416E+04</pdfrwt>
<pdfrwt beam="2">  1       -2 0.95515266E-01 0.22485416E+04</pdfrwt>
<totfact> 0.53454596E+00</totfact>
</mgrwt>
</event>
<event>
 6    1  0.1762360E-005  0.2338011E+04  0.7818608E-02  0.8463083E-01
         -2   -1    0    0    0  501 -0.00000000000E+00  0.00000000000E+00  0.66023633488E+03  0.66023633488E+03  0.00000000000E+00 0.  1.
          2   -1    0    0  501    0  0.00000000000E+00 -0.00000000000E+00 -0.20698258799E+04  0.20698258799E+04  0.00000000000E+00 0. -1.
         23    2    1    2    0    0 -0.10330660038E+04 -0.91274784625E+02 -0.13312666898E+04  0.16900185022E+04  0.91296680202E+02 0.  0.
         11    1    3    3    0    0 -0.41543832410E+03 -0.33557633162E+02 -0.60849865542E+03  0.73755388246E+03  0.00000000000E+00 0. -1.
        -11    1    3    3    0    0 -0.61762767968E+03 -0.57717151464E+02 -0.72276803435E+03  0.95246461969E+03  0.00000000000E+00 0.  1.
         22    1    1    2    0    0  0.10330660038E+04  0.91274784625E+02 -0.78322855209E+02  0.10400437126E+04  0.00000000000E+00 0.  1.
<mgrwt>
<rscale>  0 0.23380113E+04</rscale>
<asrwt>0</asrwt>
<pdfrwt beam="1">  1        2 0.31843474E+00 0.23380113E+04</pdfrwt>
<pdfrwt beam="2">  1       -2 0.10157482E+00 0.23380113E+04</pdfrwt>
<totfact> 0.43933471E+00</totfact>
</mgrwt>
</event>
<event>
 6    1  0.1762360E-005  0.1366819E+04  0.7818608E-02  0.8978193E-01
          2   -1    0    0  501    0  0.00000000000E+00  0.00000000000E+00  0.17890344760E+04  0.17890344760E+04  0.00000000000E+00 0. -1.
         -2   -1    0    0    0  501 -0.00000000000E+00 -0.00000000000E+00 -0.26106193091E+03  0.26106193091E+03  0.00000000000E+00 0.  1.
         23    2    1    2    0    0  0.23184614322E+03  0.55238948698E+03  0.12511504052E+04  0.13901590791E+04  0.90984336055E+02 0.  0.
         13    1    3    3    0    0  0.55173458236E+02  0.23356108356E+03  0.54429355142E+03  0.59485322590E+03  0.00000000000E+00 0.  1.
        -13    1    3    3    0    0  0.17667268498E+03  0.31882840341E+03  0.70685685375E+03  0.79530585320E+03  0.00000000000E+00 0. -1.
         22    1    1    2    0    0 -0.23184614322E+03 -0.55238948698E+03  0.27682213987E+03  0.65993732776E+03  0.00000000000E+00 0.  1.
<mgrwt>
<rscale>  0 0.13668194E+04</rscale>
<asrwt>0</asrwt>
<pdfrwt beam="1">  1        2 0.27523607E+00 0.13668194E+04</pdfrwt>
<pdfrwt beam="2">  1       -2 0.40163375E-01 0.13668194E+04</pdfrwt>
<totfact> 0.50090967E+01</totfact>
</mgrwt>
</event>
<event>
 6    1  0.1762360E-005  0.1662953E+04  0.7818608E-02  0.8782780E-01
          2   -1    0    0  501    0  0.00000000000E+00  0.00000000000E+00  0.51120406282E+03  0.51120406282E+03  0.00000000000E+00 0. -1.
         -2   -1    0    0    0  501 -0.00000000000E+00 -0.00000000000E+00 -0.13524016481E+04  0.13524016481E+04  0.00000000000E+00 0.  1.
         23    2    1    2    0    0 -0.32117834087E+03 -0.43947296691E+03  0.27915671418E+03  0.61801919381E+03  0.87904707211E+02 0.  0.
         11    1    3    3    0    0 -0.17398751954E+03 -0.23470377604E+03  0.10048518011E+03  0.30895758748E+03  0.00000000000E+00 0.  1.
        -11    1    3    3    0    0 -0.14719082134E+03 -0.20476919087E+03  0.17867153407E+03  0.30906160632E+03  0.00000000000E+00 0. -1.
         22    1    1    2    0    0  0.32117834087E+03  0.43947296691E+03 -0.11203542995E+04  0.12455865171E+04  0.00000000000E+00 0.  1.
<mgrwt>
<rscale>  0 0.16629531E+04</rscale>
<asrwt>0</asrwt>
<pdfrwt beam="1">  1        2 0.78646781E-01 0.16629531E+04</pdfrwt>
<pdfrwt beam="2">  1       -2 0.20806179E+00 0.16629531E+04</pdfrwt>
<totfact> 0.67428243E+00</totfact>
</mgrwt>
</event>
<event>
 6    1  0.1762360E-005  0.1857579E+04  0.7818608E-02  0.8676265E-01
          2   -1    0    0  501    0  0.00000000000E+00  0.00000000000E+00  0.68807545930E+03  0.68807545930E+03  0.00000000000E+00 0. -1.
         -2   -1    0    0    0  501 -0.00000000000E+00 -0.00000000000E+00 -0.12537144368E+04  0.12537144368E+04  0.00000000000E+00 0.  1.
         23    2    1    2    0    0 -0.22678003630E+03  0.49184423190E+03 -0.10693613484E+04  0.12021439265E+04  0.90974683996E+02 0.  0.
         13    1    3    3    0    0 -0.21498364707E+02  0.57179408615E+02 -0.19514068994E+03  0.20447873563E+03  0.00000000000E+00 0.  1.
        -13    1    3    3    0    0 -0.20528167159E+03  0.43466482329E+03 -0.87422065848E+03  0.99766519084E+03  0.00000000000E+00 0. -1.
         22    1    1    2    0    0  0.22678003630E+03 -0.49184423190E+03  0.50372237096E+03  0.73964596959E+03  0.00000000000E+00 0. -1.
<mgrwt>
<rscale>  0 0.18575792E+04</rscale>
<asrwt>0</asrwt>
<pdfrwt beam="1">  1        2 0.10585776E+00 0.18575792E+04</pdfrwt>
<pdfrwt beam="2">  1       -2 0.19287914E+00 0.18575792E+04</pdfrwt>
<totfact> 0.58301240E+00</totfact>
</mgrwt>
</event>
<event>
 6    1  0.1762360E-005  0.1674602E+04  0.7818608E-02  0.8775984E-01
         -2   -1    0    0    0  501 -0.00000000000E+00  0.00000000000E+00  0.67800297432E+03  0.67800297432E+03  0.00000000000E+00 0.  1.
          2   -1    0    0  501    0  0.00000000000E+00 -0.00000000000E+00 -0.10340259313E+04  0.10340259313E+04  0.00000000000E+00 0. -1.
         23    2    1    2    0    0  0.21864881266E+03 -0.70847689998E+03 -0.57081554283E+03  0.94009453276E+03  0.90556752936E+02 0.  0.
         13    1    3    3    0    0  0.98790131312E+02 -0.36636037721E+03 -0.34616039667E+03  0.51362090714E+03  0.00000000000E+00 0. -1.
        -13    1    3    3    0    0  0.11985868135E+03 -0.34211652278E+03 -0.22465514616E+03  0.42647362562E+03  0.00000000000E+00 0.  1.
         22    1    1    2    0    0 -0.21864881266E+03  0.70847689998E+03  0.21479258585E+03  0.77193437287E+03  0.00000000000E+00 0.  1.
<mgrwt>
<rscale>  0 0.16746016E+04</rscale>
<asrwt>0</asrwt>
<pdfrwt beam="1">  1        2 0.15908091E+00 0.16746016E+04</pdfrwt>
<pdfrwt beam="2">  1       -2 0.10430815E+00 0.16746016E+04</pdfrwt>
<totfact> 0.17063266E+01</totfact>
</mgrwt>
</event>
<event>
 6    1  0.1762360E-005  0.3168901E+04  0.7818608E-02  0.8197079E-01
          1   -1    0    0  501    0  0.00000000000E+00  0.00000000000E+00  0.30050529440E+04  0.30050529440E+04  0.00000000000E+00 0. -1.
         -1   -1    0    0    0  501 -0.00000000000E+00 -0.00000000000E+00 -0.83542079584E+03  0.83542079584E+03  0.00000000000E+00 0.  1.
         23    2    1    2    0    0 -0.34732658621E+03 -0.14490971246E+04  0.43764123686E+03  0.15556738031E+04  0.89849292361E+02 0.  0.
         11    1    3    3    0    0 -0.24978612778E+03 -0.86973882336E+03  0.28373324047E+03  0.94833711423E+03  0.00000000000E+00 0.  1.
        -11    1    3    3    0    0 -0.97540458433E+02 -0.57935830127E+03  0.15390799638E+03  0.60733668886E+03  0.00000000000E+00 0. -1.
         22    1    1    2    0    0  0.34732658621E+03  0.14490971246E+04  0.17319909113E+04  0.22847999367E+04  0.00000000000E+00 0. -1.
<mgrwt>
<rscale>  0 0.31689012E+04</rscale>
<asrwt>0</asrwt>
<pdfrwt beam="1">  1        1 0.46231583E+00 0.31689012E+04</pdfrwt>
<pdfrwt beam="2">  1       -1 0.12852628E+00 0.31689012E+04</pdfrwt>
<totfact> 0.25929075E-01</totfact>
</mgrwt>
</event>
<event>
 6    1  0.1762360E-005  0.2361238E+04  0.7818608E-02  0.8454160E-01
          1   -1    0    0  501    0  0.00000000000E+00  0.00000000000E+00  0.18936405690E+04  0.18936405690E+04  0.00000000000E+00 0. -1.
         -1   -1    0    0    0  501 -0.00000000000E+00 -0.00000000000E+00 -0.73607455419E+03  0.73607455419E+03  0.00000000000E+00 0.  1.
         23    2    1    2    0    0  0.13408393100E+03  0.39667251580E+03 -0.64955853366E+03  0.77471465984E+03  0.54119591414E+02 0.  0.
         11    1    3    3    0    0  0.84479652531E+02  0.26466564618E+03 -0.38300860211E+03  0.47315991509E+03  0.00000000000E+00 0.  1.
        -11    1    3    3    0    0  0.49604278469E+02  0.13200686961E+03 -0.26654993155E+03  0.30155474474E+03  0.00000000000E+00 0. -1.
         22    1    1    2    0    0 -0.13408393100E+03 -0.39667251580E+03  0.18071245484E+04  0.18550004633E+04  0.00000000000E+00 0. -1.
<mgrwt>
<rscale>  0 0.23612375E+04</rscale>
<asrwt>0</asrwt>
<pdfrwt beam="1">  1        1 0.29132932E+00 0.23612375E+04</pdfrwt>
<pdfrwt beam="2">  1       -1 0.11324224E+00 0.23612375E+04</pdfrwt>
<totfact> 0.22530703E+00</totfact>
</mgrwt>
</event>
<event>
 6    1  0.1762360E-005  0.2522171E+04  0.7818608E-02  0.8395129E-01
         -1   -1    0    0    0  501 -0.00000000000E+00  0.00000000000E+00  0.15886339202E+04  0.15886339202E+04  0.00000000000E+00 0.  1.
          1   -1    0    0  501    0  0.00000000000E+00 -0.00000000000E+00 -0.10010718199E+04  0.10010718199E+04  0.00000000000E+00 0. -1.
         23    2    1    2    0    0  0.11499928858E+04  0.42183812236E+03 -0.67148233552E+01  0.12282373780E+04  0.89949591046E+02 0.  0.
         13    1    3    3    0    0  0.84879121551E+03  0.27211185120E+03  0.10959685754E+02  0.89140983942E+03  0.00000000000E+00 0. -1.
        -13    1    3    3    0    0  0.30120167033E+03  0.14972627116E+03 -0.17674509110E+02  0.33682753859E+03  0.00000000000E+00 0.  1.
         22    1    1    2    0    0 -0.11499928858E+04 -0.42183812236E+03  0.59427692360E+03  0.13614683621E+04  0.00000000000E+00 0.  1.
<mgrwt>
<rscale>  0 0.25221710E+04</rscale>
<asrwt>0</asrwt>
<pdfrwt beam="1">  1        1 0.15401105E+00 0.25221710E+04</pdfrwt>
<pdfrwt beam="2">  1       -1 0.24440522E+00 0.25221710E+04</pdfrwt>
<totfact> 0.10156692E+00</totfact>
</mgrwt>
</event>
<event>
 6    1  0.1762360E-005  0.1760572E+04  0.7818608E-02  0.8727553E-01
         -2   -1    0    0    0  501 -0.00000000000E+00  0.00000000000E+00  0.38990943120E+03  0.38990943120E+03  0.00000000000E+00 0.  1.
          2   -1    0    0  501    0  0.00000000000E+00 -0.00000000000E+00 -0.19873926590E+04  0.19873926590E+04  0.00000000000E+00 0. -1.
         23    2    1    2    0    0 -0.74660027899E+03 -0.42745887090E+03 -0.56435437634E+03  0.10328734805E+04  0.90546682558E+02 0.  0.
         11    1    3    3    0    0 -0.68786306284E+03 -0.38978038548E+03 -0.48646348631E+03  0.92829470840E+03  0.00000000000E+00 0.  1.
        -11    1    3    3    0    0 -0.58737216150E+02 -0.37678485412E+02 -0.77890890025E+02  0.10457877210E+03  0.00000000000E+00 0. -1.
         22    1    1    2    0    0  0.74660027899E+03  0.42745887090E+03 -0.10331288515E+04  0.13444286097E+04  0.00000000000E+00 0. -1.
<mgrwt>
<rscale>  0 0.17605717E+04</rscale>
<asrwt>0</asrwt>
<pdfrwt beam="1">  1        2 0.30575272E+00 0.17605717E+04</pdfrwt>
<pdfrwt beam="2">  1       -2 0.59986066E-01 0.17605717E+04</pdfrwt>
<totfact> 0.16662800E+01</totfact>
</mgrwt>
</event>
<event>
 6    1  0.1762360E-005  0.1246076E+04  0.7818608E-02  0.9073456E-01
         -2   -1    0    0    0  501 -0.00000000000E+00  0.00000000000E+00  0.10062137005E+03  0.10062137005E+03  0.00000000000E+00 0. -1.
          2   -1    0    0  501    0  0.00000000000E+00 -0.00000000000E+00 -0.38577910045E+04  0.38577910045E+04  0.00000000000E+00 0.  1.
         23    2    1    2    0    0 -0.36864508805E+03  0.93178174467E+02 -0.34426863075E+04  0.34649742973E+04  0.96832308892E+02 0.  0.
         13    1    3    3    0    0 -0.28519043871E+03  0.98843116982E+02 -0.29304509408E+04  0.29459542197E+04  0.00000000000E+00 0.  1.
        -13    1    3    3    0    0 -0.83454649345E+02 -0.56649425146E+01 -0.51223536665E+03  0.51902007757E+03  0.00000000000E+00 0. -1.
         22    1    1    2    0    0  0.36864508805E+03 -0.93178174467E+02 -0.31448332695E+03  0.49343807724E+03  0.00000000000E+00 0. -1.
<mgrwt>
<rscale>  0 0.12460758E+04</rscale>
<asrwt>0</asrwt>
<pdfrwt beam="1">  1        2 0.59350629E+00 0.12460758E+04</pdfrwt>
<pdfrwt beam="2">  1       -2 0.15480211E-01 0.12460758E+04</pdfrwt>
<totfact> 0.15002991E+01</totfact>
</mgrwt>
</event>
<event>
 6    1  0.1762360E-005  0.3330808E+04  0.7818608E-02  0.8155100E-01
          1   -1    0    0  501    0  0.00000000000E+00  0.00000000000E+00  0.21419387873E+04  0.21419387873E+04  0.00000000000E+00 0. -1.
         -1   -1    0    0    0  501 -0.00000000000E+00 -0.00000000000E+00 -0.12948875146E+04  0.12948875146E+04  0.00000000000E+00 0.  1.
         23    2    1    2    0    0  0.12699220599E+04  0.25311688206E+03 -0.65570208046E+03  0.14531333229E+04  0.69864452040E+02 0.  0.
         13    1    3    3    0    0  0.74852618839E+03  0.17114997742E+03 -0.35852703530E+03  0.84742280151E+03  0.00000000000E+00 0.  1.
        -13    1    3    3    0    0  0.52139587153E+03  0.81966904649E+02 -0.29717504516E+03  0.60571052143E+03  0.00000000000E+00 0. -1.
         22    1    1    2    0    0 -0.12699220599E+04 -0.25311688206E+03  0.15027533532E+04  0.19836929789E+04  0.00000000000E+00 0. -1.
<mgrwt>
<rscale>  0 0.33308076E+04</rscale>
<asrwt>0</asrwt>
<pdfrwt beam="1">  1        1 0.32952904E+00 0.33308076E+04</pdfrwt>
<pdfrwt beam="2">  1       -1 0.19921346E+00 0.33308076E+04</pdfrwt>
<totfact> 0.30094382E-01</totfact>
</mgrwt>
</event>
<event>
 6    1  0.1762360E-005  0.2538109E+04  0.7818608E-02  0.8389533E-01
         -2   -1    0    0    0  501 -0.00000000000E+00  0.00000000000E+00  0.41810909338E+03  0.41810909338E+03  0.00000000000E+00 0. -1.
          2   -1    0    0  501    0  0.00000000000E+00 -0.00000000000E+00 -0.38518637717E+04  0.38518637717E+04  0.00000000000E+00 0.  1.
         23    2    1    2    0    0 -0.39359632484E+03  0.50450705906E+03  0.12143560119E+03  0.65765735240E+03  0.91220328664E+02 0.  0.
         11    1    3    3    0    0 -0.14289252271E+03  0.24353190664E+03  0.79593580295E+02  0.29336189361E+03  0.00000000000E+00 0. -1.
        -11    1    3    3    0    0 -0.25070380213E+03  0.26097515242E+03  0.41842020893E+02  0.36429545879E+03  0.00000000000E+00 0.  1.
         22    1    1    2    0    0  0.39359632484E+03 -0.50450705906E+03 -0.35551902795E+04  0.36123155126E+04  0.00000000000E+00 0.  1.
<mgrwt>
<rscale>  0 0.25381090E+04</rscale>
<asrwt>0</asrwt>
<pdfrwt beam="1">  1        2 0.59259443E+00 0.25381090E+04</pdfrwt>
<pdfrwt beam="2">  1       -2 0.64324476E-01 0.25381090E+04</pdfrwt>
<totfact> 0.89169617E-01</totfact>
</mgrwt>
</event>
<event>
 6    1  0.1762360E-005  0.3444177E+04  0.7818608E-02  0.8127148E-01
          1   -1    0    0  501    0  0.00000000000E+00  0.00000000000E+00  0.21765294949E+04  0.21765294949E+04  0.00000000000E+00 0.  1.
         -1   -1    0    0    0  501 -0.00000000000E+00 -0.00000000000E+00 -0.13625308146E+04  0.13625308146E+04  0.00000000000E+00 0. -1.
         23    2    1    2    0    0  0.91301514405E+03  0.12949666489E+04  0.10966450445E+04  0.19295808153E+04  0.10058078477E+03 0.  0.
         11    1    3    3    0    0  0.56150704734E+03  0.80852220105E+03  0.73945289856E+03  0.12311737907E+04  0.00000000000E+00 0. -1.
        -11    1    3    3    0    0  0.35150809671E+03  0.48644444784E+03  0.35719214597E+03  0.69840702461E+03  0.00000000000E+00 0.  1.
         22    1    1    2    0    0 -0.91301514405E+03 -0.12949666489E+04 -0.28264636425E+03  0.16094794942E+04  0.00000000000E+00 0. -1.
<mgrwt>
<rscale>  0 0.34441768E+04</rscale>
<asrwt>0</asrwt>
<pdfrwt beam="1">  1        1 0.33485069E+00 0.34441768E+04</pdfrwt>
<pdfrwt beam="2">  1       -1 0.20962013E+00 0.34441768E+04</pdfrwt>
<totfact> 0.23961073E-01</totfact>
</mgrwt>
</event>
<event>
 6    1  0.1762360E-005  0.1455834E+04  0.7818608E-02  0.8914366E-01
         -2   -1    0    0    0  501 -0.00000000000E+00  0.00000000000E+00  0.14107834142E+04  0.14107834142E+04  0.00000000000E+00 0.  1.
          2   -1    0    0  501    0  0.00000000000E+00 -0.00000000000E+00 -0.37558087485E+03  0.37558087485E+03  0.00000000000E+00 0. -1.
         23    2    1    2    0    0  0.56767196580E+03  0.44237719120E+03  0.62720616020E+03  0.95907347839E+03  0.92115848267E+02 0.  0.
         11    1    3    3    0    0  0.43694086844E+03  0.36966089591E+03  0.53434367531E+03  0.78300042390E+03  0.00000000000E+00 0.  1.
        -11    1    3    3    0    0  0.13073109736E+03  0.72716295286E+02  0.92862484893E+02  0.17607305449E+03  0.00000000000E+00 0. -1.
         22    1    1    2    0    0 -0.56767196580E+03 -0.44237719120E+03  0.40799637918E+03  0.82729081070E+03  0.00000000000E+00 0. -1.
<mgrwt>
<rscale>  0 0.14558342E+04</rscale>
<asrwt>0</asrwt>
<pdfrwt beam="1">  1        2 0.57781674E-01 0.14558342E+04</pdfrwt>
<pdfrwt beam="2">  1       -2 0.21704360E+00 0.14558342E+04</pdfrwt>
<totfact> 0.85355295E+00</totfact>
</mgrwt>
</event>
<event>
 6    1  0.2107603E-005  0.3057433E+04  0.7818608E-02  0.8227518E-01
          1   -1    0    0  501    0  0.00000000000E+00  0.00000000000E+00  0.14817391815E+04  0.14817391815E+04  0.00000000000E+00 0. -1.
         -1   -1    0    0    0  501 -0.00000000000E+00 -0.00000000000E+00 -0.15771832442E+04  0.15771832442E+04  0.00000000000E+00 0.  1.
         23    2    1    2    0    0 -0.73739907942E+03  0.31598640969E+03  0.12525602228E+04  0.14902540836E+04  0.91352660188E+02 0.  0.
         11    1    3    3    0    0 -0.18239411285E+03  0.11585166162E+03  0.37521566094E+03  0.43298500218E+03  0.00000000000E+00 0.  1.
        -11    1    3    3    0    0 -0.55500496657E+03  0.20013474807E+03  0.87734456189E+03  0.10572690814E+04  0.00000000000E+00 0. -1.
         22    1    1    2    0    0  0.73739907942E+03 -0.31598640969E+03 -0.13480042856E+04  0.15686683420E+04  0.00000000000E+00 0.  1.
<mgrwt>
<rscale>  0 0.30574330E+04</rscale>
<asrwt>0</asrwt>
<pdfrwt beam="1">  1        1 0.22795987E+00 0.30574330E+04</pdfrwt>
<pdfrwt beam="2">  1       -1 0.24264358E+00 0.30574330E+04</pdfrwt>
<totfact> 0.44434976E-01</totfact>
</mgrwt>
</event>
<event>
 6    1  0.1762360E-005  0.2671883E+04  0.7818608E-02  0.8344186E-01
         -2   -1    0    0    0  501 -0.00000000000E+00  0.00000000000E+00  0.28606809523E+04  0.28606809523E+04  0.00000000000E+00 0.  1.
          2   -1    0    0  501    0  0.00000000000E+00 -0.00000000000E+00 -0.62388623629E+03  0.62388623629E+03  0.00000000000E+00 0. -1.
         23    2    1    2    0    0 -0.57625617347E+03  0.11997901893E+04  0.99068769518E+03  0.16612870721E+04  0.82734218389E+02 0.  0.
         11    1    3    3    0    0 -0.20942742894E+03  0.45500307679E+03  0.42211765705E+03  0.65503508629E+03  0.00000000000E+00 0. -1.
        -11    1    3    3    0    0 -0.36682874453E+03  0.74478711247E+03  0.56857003813E+03  0.10062519858E+04  0.00000000000E+00 0.  1.
         22    1    1    2    0    0  0.57625617347E+03 -0.11997901893E+04  0.12461070208E+04  0.18232801164E+04  0.00000000000E+00 0. -1.
<mgrwt>
<rscale>  0 0.26718828E+04</rscale>
<asrwt>0</asrwt>
<pdfrwt beam="1">  1        2 0.95982500E-01 0.26718828E+04</pdfrwt>
<pdfrwt beam="2">  1       -2 0.44010475E+00 0.26718828E+04</pdfrwt>
<totfact> 0.16766845E-01</totfact>
</mgrwt>
</event>
<event>
 6    1  0.1762360E-005  0.1446261E+04  0.7818608E-02  0.8920997E-01
          2   -1    0    0  501    0  0.00000000000E+00  0.00000000000E+00  0.16028155516E+04  0.16028155516E+04  0.00000000000E+00 0. -1.
         -2   -1    0    0    0  501 -0.00000000000E+00 -0.00000000000E+00 -0.32624950780E+03  0.32624950780E+03  0.00000000000E+00 0.  1.
         23    2    1    2    0    0 -0.63188810705E+03  0.17451217587E+02  0.18131093517E+03  0.66448177713E+03  0.95264117585E+02 0.  0.
         13    1    3    3    0    0 -0.11948220421E+03 -0.13157762545E+02  0.36781214128E+00  0.12020507113E+03  0.00000000000E+00 0. -1.
        -13    1    3    3    0    0 -0.51240590283E+03  0.30608980132E+02  0.18094312302E+03  0.54427670600E+03  0.00000000000E+00 0.  1.
         22    1    1    2    0    0  0.63188810705E+03 -0.17451217587E+02  0.10952551087E+04  0.12645832823E+04  0.00000000000E+00 0. -1.
<mgrwt>
<rscale>  0 0.14462611E+04</rscale>
<asrwt>0</asrwt>
<pdfrwt beam="1">  1        2 0.24658700E+00 0.14462611E+04</pdfrwt>
<pdfrwt beam="2">  1       -2 0.50192233E-01 0.14462611E+04</pdfrwt>
<totfact> 0.40462998E+01</totfact>
</mgrwt>
</event>
<event>
 6    1  0.1762360E-005  0.2754821E+04  0.7818608E-02  0.8317434E-01
          2   -1    0    0  501    0  0.00000000000E+00  0.00000000000E+00  0.14426643787E+04  0.14426643787E+04  0.00000000000E+00 0.  1.
         -2   -1    0    0    0  501 -0.00000000000E+00 -0.00000000000E+00 -0.13151080461E+04  0.13151080461E+04  0.00000000000E+00 0. -1.
         23    2    1    2    0    0  0.15184600883E+02  0.74255516269E+03  0.12232417418E+04  0.14340861864E+04  0.93081089248E+02 0.  0.
         11    1    3    3    0    0 -0.46749547236E+01  0.65161804868E+03  0.10176285133E+04  0.12083855873E+04  0.00000000000E+00 0. -1.
        -11    1    3    3    0    0  0.19859555607E+02  0.90937114007E+02  0.20561322854E+03  0.22570059903E+03  0.00000000000E+00 0.  1.
         22    1    1    2    0    0 -0.15184600883E+02 -0.74255516269E+03 -0.10956854092E+04  0.13236862384E+04  0.00000000000E+00 0. -1.
<mgrwt>
<rscale>  0 0.27548209E+04</rscale>
<asrwt>0</asrwt>
<pdfrwt beam="1">  1        2 0.22194837E+00 0.27548209E+04</pdfrwt>
<pdfrwt beam="2">  1       -2 0.20232431E+00 0.27548209E+04</pdfrwt>
<totfact> 0.15345268E+00</totfact>
</mgrwt>
</event>
<event>
 6    1  0.1762360E-005  0.2584125E+04  0.7818608E-02  0.8373614E-01
         -1   -1    0    0    0  501 -0.00000000000E+00  0.00000000000E+00  0.92816454648E+03  0.92816454648E+03  0.00000000000E+00 0.  1.
          1   -1    0    0  501    0  0.00000000000E+00 -0.00000000000E+00 -0.17986310079E+04  0.17986310079E+04  0.00000000000E+00 0. -1.
         23    2    1    2    0    0 -0.80498934785E+03 -0.12745155469E+03  0.61995041569E+03  0.10280918673E+04  0.91556653182E+02 0.  0.
         11    1    3    3    0    0 -0.39630161519E+03 -0.10840798311E+03  0.32046370439E+03  0.52106069401E+03  0.00000000000E+00 0.  1.
        -11    1    3    3    0    0 -0.40868773266E+03 -0.19043571579E+02  0.29948671130E+03  0.50703117329E+03  0.00000000000E+00 0. -1.
         22    1    1    2    0    0  0.80498934785E+03  0.12745155469E+03 -0.14904168771E+04  0.16987036870E+04  0.00000000000E+00 0. -1.
<mgrwt>
<rscale>  0 0.25841250E+04</rscale>
<asrwt>0</asrwt>
<pdfrwt beam="1">  1        1 0.27671246E+00 0.25841250E+04</pdfrwt>
<pdfrwt beam="2">  1       -1 0.14279455E+00 0.25841250E+04</pdfrwt>
<totfact> 0.14327762E+00</totfact>
</mgrwt>
</event>
<event>
 6    1  0.1762360E-005  0.5414736E+04  0.7818608E-02  0.7767532E-01
         -1   -1    0    0    0  501 -0.00000000000E+00  0.00000000000E+00  0.20063989251E+04  0.20063989251E+04  0.00000000000E+00 0.  1.
          1   -1    0    0  501    0  0.00000000000E+00 -0.00000000000E+00 -0.36532321512E+04  0.36532321512E+04  0.00000000000E+00 0. -1.
         23    2    1    2    0    0 -0.13394884994E+04  0.12787467312E+04 -0.28868071589E+04  0.34309637623E+04  0.91837480903E+02 0.  0.
         13    1    3    3    0    0 -0.87092501822E+03  0.87189088606E+03 -0.18601975311E+04  0.22313760237E+04  0.00000000000E+00 0.  1.
        -13    1    3    3    0    0 -0.46856348116E+03  0.40685584514E+03 -0.10266096278E+04  0.11995877386E+04  0.00000000000E+00 0. -1.
         22    1    1    2    0    0  0.13394884994E+04 -0.12787467312E+04  0.12399739328E+04  0.22286673140E+04  0.00000000000E+00 0.  1.
<mgrwt>
<rscale>  0 0.54147358E+04</rscale>
<asrwt>0</asrwt>
<pdfrwt beam="1">  1        1 0.56203570E+00 0.54147358E+04</pdfrwt>
<pdfrwt beam="2">  1       -1 0.30867676E+00 0.54147358E+04</pdfrwt>
<totfact> 0.38122699E-03</totfact>
</mgrwt>
</event>
<event>
 6    1  0.1762360E-005  0.2152339E+04  0.7818608E-02  0.8538532E-01
         -2   -1    0    0    0  501 -0.00000000000E+00  0.00000000000E+00  0.12815451797E+04  0.12815451797E+04  0.00000000000E+00 0.  1.
          2   -1    0    0  501    0  0.00000000000E+00 -0.00000000000E+00 -0.90370664470E+03  0.90370664470E+03  0.00000000000E+00 0. -1.
         23    2    1    2    0    0 -0.63846358449E+03 -0.85580629063E+03  0.30877183892E+03  0.11152937111E+04  0.92194672915E+02 0.  0.
         11    1    3    3    0    0 -0.14924119879E+03 -0.25004627308E+03  0.55043620198E+02  0.29635430522E+03  0.00000000000E+00 0.  1.
        -11    1    3    3    0    0 -0.48922238570E+03 -0.60576001754E+03  0.25372821873E+03  0.81893940588E+03  0.00000000000E+00 0. -1.
         22    1    1    2    0    0  0.63846358449E+03  0.85580629063E+03  0.69066696115E+02  0.10699581133E+04  0.00000000000E+00 0. -1.
<mgrwt>
<rscale>  0 0.21523391E+04</rscale>
<asrwt>0</asrwt>
<pdfrwt beam="1">  1        2 0.13903179E+00 0.21523391E+04</pdfrwt>
<pdfrwt beam="2">  1       -2 0.19716080E+00 0.21523391E+04</pdfrwt>
<totfact> 0.37132943E+00</totfact>
</mgrwt>
</event>
<event>
 6    1  0.1762360E-005  0.3031864E+04  0.7818608E-02  0.8234690E-01
          1   -1    0    0  501    0  0.00000000000E+00  0.00000000000E+00  0.10446454919E+04  0.10446454919E+04  0.00000000000E+00 0.  1.
         -1   -1    0    0    0  501 -0.00000000000E+00 -0.00000000000E+00 -0.21998366886E+04  0.21998366886E+04  0.00000000000E+00 0. -1.
         23    2    1    2    0    0  0.25024087693E+03  0.70891742574E+03  0.82882715852E+03  0.11228051912E+04  0.92480407016E+02 0.  0.
         13    1    3    3    0    0  0.12380653769E+03  0.23472183464E+03  0.32294764510E+03  0.41799232039E+03  0.00000000000E+00 0. -1.
        -13    1    3    3    0    0  0.12643433924E+03  0.47419559110E+03  0.50587951341E+03  0.70481287080E+03  0.00000000000E+00 0.  1.
         22    1    1    2    0    0 -0.25024087693E+03 -0.70891742574E+03 -0.19840183553E+04  0.21216769893E+04  0.00000000000E+00 0. -1.
<mgrwt>
<rscale>  0 0.30318638E+04</rscale>
<asrwt>0</asrwt>
<pdfrwt beam="1">  1        1 0.16071469E+00 0.30318638E+04</pdfrwt>
<pdfrwt beam="2">  1       -1 0.33843641E+00 0.30318638E+04</pdfrwt>
<totfact> 0.21965139E-01</totfact>
</mgrwt>
</event>
<event>
 6    1  0.2178019E-005  0.4557172E+04  0.7818608E-02  0.7900703E-01
          1   -1    0    0  501    0  0.00000000000E+00  0.00000000000E+00  0.24350115702E+04  0.24350115702E+04  0.00000000000E+00 0. -1.
         -1   -1    0    0    0  501 -0.00000000000E+00 -0.00000000000E+00 -0.21322096000E+04  0.21322096000E+04  0.00000000000E+00 0.  1.
         23    2    1    2    0    0 -0.94571330001E+03 -0.77826860347E+03  0.20760632279E+04  0.24121037365E+04  0.90167867682E+02 0.  0.
         11    1    3    3    0    0 -0.56593453983E+03 -0.49794483655E+03  0.12047681508E+04  0.14211605331E+04  0.00000000000E+00 0.  1.
        -11    1    3    3    0    0 -0.37977876018E+03 -0.28032376692E+03  0.87129507709E+03  0.99094320339E+03  0.00000000000E+00 0. -1.
         22    1    1    2    0    0  0.94571330001E+03  0.77826860347E+03 -0.17732612577E+04  0.21551174337E+04  0.00000000000E+00 0.  1.
<mgrwt>
<rscale>  0 0.45571724E+04</rscale>
<asrwt>0</asrwt>
<pdfrwt beam="1">  1        1 0.37461716E+00 0.45571724E+04</pdfrwt>
<pdfrwt beam="2">  1       -1 0.32803225E+00 0.45571724E+04</pdfrwt>
<totfact> 0.24375150E-02</totfact>
</mgrwt>
</event>
<event>
 6    1  0.1762360E-005  0.1105520E+04  0.7818608E-02  0.9199828E-01
         -2   -1    0    0    0  501 -0.00000000000E+00  0.00000000000E+00  0.13679077529E+03  0.13679077529E+03  0.00000000000E+00 0.  1.
          2   -1    0    0  501    0  0.00000000000E+00 -0.00000000000E+00 -0.22336584738E+04  0.22336584738E+04  0.00000000000E+00 0. -1.
         23    2    1    2    0    0 -0.41051175566E+03 -0.23784510299E+03 -0.16475949031E+04  0.17170456684E+04  0.92664276151E+02 0.  0.
         13    1    3    3    0    0 -0.58952774398E+02 -0.49174053333E+02 -0.16999754724E+03  0.18652796895E+03  0.00000000000E+00 0.  1.
        -13    1    3    3    0    0 -0.35155898126E+03 -0.18867104965E+03 -0.14775973559E+04  0.15305176995E+04  0.00000000000E+00 0. -1.
         22    1    1    2    0    0  0.41051175566E+03  0.23784510299E+03 -0.44927279537E+03  0.65340358065E+03  0.00000000000E+00 0.  1.
<mgrwt>
<rscale>  0 0.11055205E+04</rscale>
<asrwt>0</asrwt>
<pdfrwt beam="1">  1        2 0.34363974E+00 0.11055205E+04</pdfrwt>
<pdfrwt beam="2">  1       -2 0.21044736E-01 0.11055205E+04</pdfrwt>
<totfact> 0.96308871E+01</totfact>
</mgrwt>
</event>
<event>
 6    1  0.1762360E-005  0.1854688E+04  0.7818608E-02  0.8677746E-01
          2   -1    0    0  501    0  0.00000000000E+00  0.00000000000E+00  0.28165203493E+04  0.28165203493E+04  0.00000000000E+00 0. -1.
         -2   -1    0    0    0  501 -0.00000000000E+00 -0.00000000000E+00 -0.30532964884E+03  0.30532964884E+03  0.00000000000E+00 0.  1.
         23    2    1    2    0    0  0.12200662509E+03  0.58933270693E+03  0.24411946637E+04  0.25159637867E+04  0.91889792874E+02 0.  0.
         11    1    3    3    0    0  0.61371083068E+02  0.27676928063E+03  0.13402672492E+04  0.13699211451E+04  0.00000000000E+00 0. -1.
        -11    1    3    3    0    0  0.60635542019E+02  0.31256342629E+03  0.11009274145E+04  0.11460426416E+04  0.00000000000E+00 0.  1.
         22    1    1    2    0    0 -0.12200662509E+03 -0.58933270693E+03  0.69996036757E+02  0.60588621141E+03  0.00000000000E+00 0.  1.
<mgrwt>
<rscale>  0 0.18546883E+04</rscale>
<asrwt>0</asrwt>
<pdfrwt beam="1">  1        2 0.43331081E+00 0.18546883E+04</pdfrwt>
<pdfrwt beam="2">  1       -2 0.46973794E-01 0.18546883E+04</pdfrwt>
<totfact> 0.91456711E+00</totfact>
</mgrwt>
</event>
<event>
 6    1  0.1762360E-005  0.1772736E+04  0.7818608E-02  0.8720934E-01
         -2   -1    0    0    0  501 -0.00000000000E+00  0.00000000000E+00  0.68032835679E+03  0.68032835679E+03  0.00000000000E+00 0.  1.
          2   -1    0    0  501    0  0.00000000000E+00 -0.00000000000E+00 -0.11548069693E+04  0.11548069693E+04  0.00000000000E+00 0. -1.
         23    2    1    2    0    0  0.66766380587E+03  0.24733820115E+03  0.30463497071E+03  0.77968797118E+03  0.90331188466E+02 0.  0.
         13    1    3    3    0    0  0.17990843070E+03  0.47061304143E+02  0.42084984281E+02  0.19066451082E+03  0.00000000000E+00 0.  1.
        -13    1    3    3    0    0  0.48775537517E+03  0.20027689700E+03  0.26254998643E+03  0.58902346036E+03  0.00000000000E+00 0. -1.
         22    1    1    2    0    0 -0.66766380587E+03 -0.24733820115E+03 -0.77911358319E+03  0.10554473549E+04  0.00000000000E+00 0. -1.
<mgrwt>
<rscale>  0 0.17727357E+04</rscale>
<asrwt>0</asrwt>
<pdfrwt beam="1">  1        2 0.17766261E+00 0.17727357E+04</pdfrwt>
<pdfrwt beam="2">  1       -2 0.10466590E+00 0.17727357E+04</pdfrwt>
<totfact> 0.14135508E+01</totfact>
</mgrwt>
</event>
<event>
 6    1  0.1762360E-005  0.3219288E+04  0.7818608E-02  0.8183742E-01
         -1   -1    0    0    0  501 -0.00000000000E+00  0.00000000000E+00  0.15595453214E+04  0.15595453214E+04  0.00000000000E+00 0.  1.
          1   -1    0    0  501    0  0.00000000000E+00 -0.00000000000E+00 -0.16613518305E+04  0.16613518305E+04  0.00000000000E+00 0. -1.
         23    2    1    2    0    0  0.62800035216E+03 -0.32835948864E+03 -0.14954459112E+04  0.16574281951E+04  0.92224467405E+02 0.  0.
         11    1    3    3    0    0  0.38606025644E+03 -0.15236745403E+03 -0.89691418581E+03  0.98828812568E+03  0.00000000000E+00 0. -1.
        -11    1    3    3    0    0  0.24194009572E+03 -0.17599203462E+03 -0.59853172540E+03  0.66914006940E+03  0.00000000000E+00 0.  1.
         22    1    1    2    0    0 -0.62800035216E+03  0.32835948864E+03  0.13936394021E+04  0.15634689569E+04  0.00000000000E+00 0.  1.
<mgrwt>
<rscale>  0 0.32192878E+04</rscale>
<asrwt>0</asrwt>
<pdfrwt beam="1">  1        1 0.25559259E+00 0.32192878E+04</pdfrwt>
<pdfrwt beam="2">  1       -1 0.23993005E+00 0.32192878E+04</pdfrwt>
<totfact> 0.34336767E-01</totfact>
</mgrwt>
</event>
<event>
 6    1  0.1762360E-005  0.1786477E+04  0.7818608E-02  0.8713524E-01
          1   -1    0    0  501    0  0.00000000000E+00  0.00000000000E+00  0.15860916872E+04  0.15860916872E+04  0.00000000000E+00 0. -1.
         -1   -1    0    0    0  501 -0.00000000000E+00 -0.00000000000E+00 -0.50304478748E+03  0.50304478748E+03  0.00000000000E+00 0.  1.
         23    2    1    2    0    0 -0.49226328129E+03 -0.18135725409E+03 -0.29921061007E+03  0.61067463376E+03  0.90459534720E+02 0.  0.
         11    1    3    3    0    0 -0.26507109580E+03 -0.10931454570E+03 -0.11289490451E+03  0.30815193524E+03  0.00000000000E+00 0. -1.
        -11    1    3    3    0    0 -0.22719218550E+03 -0.72042708395E+02 -0.18631570556E+03  0.30252269852E+03  0.00000000000E+00 0.  1.
         22    1    1    2    0    0  0.49226328129E+03  0.18135725409E+03  0.13822575098E+04  0.14784618410E+04  0.00000000000E+00 0. -1.
<mgrwt>
<rscale>  0 0.17864772E+04</rscale>
<asrwt>0</asrwt>
<pdfrwt beam="1">  1        1 0.24401410E+00 0.17864772E+04</pdfrwt>
<pdfrwt beam="2">  1       -1 0.77391506E-01 0.17864772E+04</pdfrwt>
<totfact> 0.90184859E+00</totfact>
</mgrwt>
</event>
<event>
 6    1  0.1762360E-005  0.1073988E+04  0.7818608E-02  0.9230922E-01
          1   -1    0    0  501    0  0.00000000000E+00  0.00000000000E+00  0.25729145553E+03  0.25729145553E+03  0.00000000000E+00 0. -1.
         -1   -1    0    0    0  501 -0.00000000000E+00 -0.00000000000E+00 -0.11207631899E+04  0.11207631899E+04  0.00000000000E+00 0.  1.
         23    2    1    2    0    0 -0.43628476228E+03  0.20520602760E+03 -0.72454951300E+03  0.87630441754E+03  0.10238910028E+03 0.  0.
         11    1    3    3    0    0 -0.14602059854E+03  0.26300872210E+02 -0.17343433717E+03  0.22823939272E+03  0.00000000000E+00 0. -1.
        -11    1    3    3    0    0 -0.29026416374E+03  0.17890515539E+03 -0.55111517583E+03  0.64806502483E+03  0.00000000000E+00 0.  1.
         22    1    1    2    0    0  0.43628476228E+03 -0.20520602760E+03 -0.13892222133E+03  0.50175022784E+03  0.00000000000E+00 0. -1.
<mgrwt>
<rscale>  0 0.10739884E+04</rscale>
<asrwt>0</asrwt>
<pdfrwt beam="1">  1        1 0.39583301E-01 0.10739884E+04</pdfrwt>
<pdfrwt beam="2">  1       -1 0.17242510E+00 0.10739884E+04</pdfrwt>
<totfact> 0.25260767E+01</totfact>
</mgrwt>
</event>
<event>
 6    1  0.1762360E-005  0.3317611E+04  0.7818608E-02  0.8158429E-01
         -1   -1    0    0    0  501 -0.00000000000E+00  0.00000000000E+00  0.85752706328E+03  0.85752706328E+03  0.00000000000E+00 0.  1.
          1   -1    0    0  501    0  0.00000000000E+00 -0.00000000000E+00 -0.32088030748E+04  0.32088030748E+04  0.00000000000E+00 0. -1.
         23    2    1    2    0    0 -0.11995159278E+04  0.11306832953E+04 -0.13900689613E+04  0.21581367075E+04  0.89326120195E+02 0.  0.
         11    1    3    3    0    0 -0.91328698229E+02  0.10950729932E+03 -0.96963051246E+02  0.17243727274E+03  0.00000000000E+00 0. -1.
        -11    1    3    3    0    0 -0.11081872295E+04  0.10211759960E+04 -0.12931059101E+04  0.19856994347E+04  0.00000000000E+00 0.  1.
         22    1    1    2    0    0  0.11995159278E+04 -0.11306832953E+04 -0.96120705017E+03  0.19081934306E+04  0.00000000000E+00 0.  1.
<mgrwt>
<rscale>  0 0.33176109E+04</rscale>
<asrwt>0</asrwt>
<pdfrwt beam="1">  1        1 0.49366201E+00 0.33176109E+04</pdfrwt>
<pdfrwt beam="2">  1       -1 0.13192724E+00 0.33176109E+04</pdfrwt>
<totfact> 0.16925635E-01</totfact>
</mgrwt>
</event>
<event>
 6    1  0.1762360E-005  0.1816751E+04  0.7818608E-02  0.8697442E-01
          2   -1    0    0  501    0  0.00000000000E+00  0.00000000000E+00  0.72586058903E+03  0.72586058903E+03  0.00000000000E+00 0. -1.
         -2   -1    0    0    0  501 -0.00000000000E+00 -0.00000000000E+00 -0.11367825474E+04  0.11367825474E+04  0.00000000000E+00 0.  1.
         23    2    1    2    0    0 -0.80623759605E+03 -0.15007718892E+03  0.18981559269E+03  0.84606661240E+03  0.85185265485E+02 0.  0.
         11    1    3    3    0    0 -0.17010653714E+03 -0.59802659335E+02  0.64178446835E+02  0.19139348233E+03  0.00000000000E+00 0. -1.
        -11    1    3    3    0    0 -0.63613105891E+03 -0.90274529587E+02  0.12563714585E+03  0.65467313006E+03  0.00000000000E+00 0.  1.
         22    1    1    2    0    0  0.80623759605E+03  0.15007718892E+03 -0.60073755102E+03  0.10165765240E+04  0.00000000000E+00 0.  1.
<mgrwt>
<rscale>  0 0.18167506E+04</rscale>
<asrwt>0</asrwt>
<pdfrwt beam="1">  1        2 0.11167086E+00 0.18167506E+04</pdfrwt>
<pdfrwt beam="2">  1       -2 0.17488962E+00 0.18167506E+04</pdfrwt>
<totfact> 0.72546393E+00</totfact>
</mgrwt>
</event>
<event>
 6    1  0.1762360E-005  0.9387632E+03  0.7818608E-02  0.9378382E-01
          2   -1    0    0  501    0  0.00000000000E+00  0.00000000000E+00  0.32551245874E+03  0.32551245874E+03  0.00000000000E+00 0. -1.
         -2   -1    0    0    0  501 -0.00000000000E+00 -0.00000000000E+00 -0.67683757543E+03  0.67683757543E+03  0.00000000000E+00 0.  1.
         23    2    1    2    0    0 -0.13112017591E+03 -0.18396822563E+03 -0.61118818279E+03  0.65801644344E+03  0.91639710197E+02 0.  0.
         13    1    3    3    0    0 -0.54566111322E+02 -0.81256543548E+02 -0.39297200544E+03  0.40497788017E+03  0.00000000000E+00 0.  1.
        -13    1    3    3    0    0 -0.76554064591E+02 -0.10271168208E+03 -0.21821617736E+03  0.25303856327E+03  0.00000000000E+00 0. -1.
         22    1    1    2    0    0  0.13112017591E+03  0.18396822563E+03  0.25986306611E+03  0.34433359073E+03  0.00000000000E+00 0. -1.
<mgrwt>
<rscale>  0 0.93876315E+03</rscale>
<asrwt>0</asrwt>
<pdfrwt beam="1">  1        2 0.50078840E-01 0.93876315E+03</pdfrwt>
<pdfrwt beam="2">  1       -2 0.10412886E+00 0.93876315E+03</pdfrwt>
<totfact> 0.75277078E+01</totfact>
</mgrwt>
</event>
<event>
 6    1  0.1762360E-005  0.1676590E+04  0.7818608E-02  0.8774830E-01
          2   -1    0    0  501    0  0.00000000000E+00  0.00000000000E+00  0.98191564267E+03  0.98191564267E+03  0.00000000000E+00 0.  1.
         -2   -1    0    0    0  501 -0.00000000000E+00 -0.00000000000E+00 -0.71568082446E+03  0.71568082446E+03  0.00000000000E+00 0. -1.
         23    2    1    2    0    0 -0.40846741568E+03 -0.72615421456E+03  0.67320942572E+02  0.84102638657E+03  0.92993013782E+02 0.  0.
         11    1    3    3    0    0 -0.11574029252E+03 -0.29771578969E+03  0.23310906959E+02  0.32027161149E+03  0.00000000000E+00 0. -1.
        -11    1    3    3    0    0 -0.29272712316E+03 -0.42843842486E+03  0.44010035613E+02  0.52075477508E+03  0.00000000000E+00 0.  1.
         22    1    1    2    0    0  0.40846741568E+03  0.72615421456E+03  0.19891387563E+03  0.85657008056E+03  0.00000000000E+00 0. -1.
<mgrwt>
<rscale>  0 0.16765896E+04</rscale>
<asrwt>0</asrwt>
<pdfrwt beam="1">  1        2 0.15106395E+00 0.16765896E+04</pdfrwt>
<pdfrwt beam="2">  1       -2 0.11010474E+00 0.16765896E+04</pdfrwt>
<totfact> 0.16171334E+01</totfact>
</mgrwt>
</event>
<event>
 6    1  0.1762360E-005  0.5071768E+04  0.7818608E-02  0.7817531E-01
          2   -1    0    0  501    0  0.00000000000E+00  0.00000000000E+00  0.45266503485E+04  0.45266503485E+04  0.00000000000E+00 0. -1.
         -2   -1    0    0    0  501 -0.00000000000E+00 -0.00000000000E+00 -0.14206326362E+04  0.14206326362E+04  0.00000000000E+00 0.  1.
         23    2    1    2    0    0 -0.15167716590E+04  0.27958831203E+03 -0.80583553400E+03  0.17423618546E+04  0.87681437149E+02 0.  0.
         13    1    3    3    0    0 -0.90661783664E+03  0.12653797812E+03 -0.45928920928E+03  0.10241651915E+04  0.00000000000E+00 0.  1.
        -13    1    3    3    0    0 -0.61015382241E+03  0.15305033391E+03 -0.34654632472E+03  0.71819666310E+03  0.00000000000E+00 0. -1.
         22    1    1    2    0    0  0.15167716590E+04 -0.27958831203E+03  0.39118532463E+04  0.42049211301E+04  0.00000000000E+00 0. -1.
<mgrwt>
<rscale>  0 0.50717678E+04</rscale>
<asrwt>0</asrwt>
<pdfrwt beam="1">  1        2 0.69640774E+00 0.50717678E+04</pdfrwt>
<pdfrwt beam="2">  1       -2 0.21855887E+00 0.50717678E+04</pdfrwt>
<totfact> 0.83790588E-03</totfact>
</mgrwt>
</event>
<event>
 6    1  0.1762360E-005  0.6853896E+03  0.7818608E-02  0.9742549E-01
          1   -1    0    0  501    0  0.00000000000E+00  0.00000000000E+00  0.23452393028E+03  0.23452393028E+03  0.00000000000E+00 0. -1.
         -1   -1    0    0    0  501 -0.00000000000E+00 -0.00000000000E+00 -0.50075797096E+03  0.50075797096E+03  0.00000000000E+00 0.  1.
         23    2    1    2    0    0 -0.31019799990E+02  0.19923381064E+03 -0.42474842800E+03  0.47879964009E+03  0.90451804685E+02 0.  0.
         11    1    3    3    0    0 -0.11055816432E+01  0.77791774339E+02 -0.77927335063E+02  0.11011563021E+03  0.00000000000E+00 0.  1.
        -11    1    3    3    0    0 -0.29914218347E+02  0.12144203630E+03 -0.34682109294E+03  0.36868400989E+03  0.00000000000E+00 0. -1.
         22    1    1    2    0    0  0.31019799990E+02 -0.19923381064E+03  0.15851438732E+03  0.25648226114E+03  0.00000000000E+00 0. -1.
<mgrwt>
<rscale>  0 0.68538960E+03</rscale>
<asrwt>0</asrwt>
<pdfrwt beam="1">  1        1 0.36080605E-01 0.68538960E+03</pdfrwt>
<pdfrwt beam="2">  1       -1 0.77039687E-01 0.68538960E+03</pdfrwt>
<totfact> 0.20731491E+02</totfact>
</mgrwt>
</event>
<event>
 6    1  0.1762360E-005  0.1643840E+04  0.7818608E-02  0.8794059E-01
          2   -1    0    0  501    0  0.00000000000E+00  0.00000000000E+00  0.19365956980E+04  0.19365956980E+04  0.00000000000E+00 0.  1.
         -2   -1    0    0    0  501 -0.00000000000E+00 -0.00000000000E+00 -0.34883503601E+03  0.34883503601E+03  0.00000000000E+00 0. -1.
         23    2    1    2    0    0 -0.62594165847E+03  0.29379033980E+03  0.18515074396E+03  0.72164356636E+03  0.91503635567E+02 0.  0.
         13    1    3    3    0    0 -0.14598920163E+03  0.84029124884E+02  0.77292511915E+01  0.16862230619E+03  0.00000000000E+00 0.  1.
        -13    1    3    3    0    0 -0.47995245684E+03  0.20976121491E+03  0.17742149277E+03  0.55302126017E+03  0.00000000000E+00 0. -1.
         22    1    1    2    0    0  0.62594165847E+03 -0.29379033980E+03  0.14026099181E+04  0.15637871677E+04  0.00000000000E+00 0.  1.
<mgrwt>
<rscale>  0 0.16438399E+04</rscale>
<asrwt>0</asrwt>
<pdfrwt beam="1">  1        2 0.29793779E+00 0.16438399E+04</pdfrwt>
<pdfrwt beam="2">  1       -2 0.53666930E-01 0.16438399E+04</pdfrwt>
<totfact> 0.22657674E+01</totfact>
</mgrwt>
</event>
<event>
 6    1  0.1762360E-005  0.1328824E+04  0.7818608E-02  0.9007015E-01
          2   -1    0    0  501    0  0.00000000000E+00  0.00000000000E+00  0.12699519971E+04  0.12699519971E+04  0.00000000000E+00 0. -1.
         -2   -1    0    0    0  501 -0.00000000000E+00 -0.00000000000E+00 -0.34760605435E+03  0.34760605435E+03  0.00000000000E+00 0.  1.
         23    2    1    2    0    0  0.12529380254E+03  0.30622478547E+03  0.11602040194E+04  0.12100674126E+04  0.93368196396E+02 0.  0.
         13    1    3    3    0    0 -0.11722548794E+02  0.55852619190E+02  0.15687224145E+03  0.16693062439E+03  0.00000000000E+00 0. -1.
        -13    1    3    3    0    0  0.13701635133E+03  0.25037216628E+03  0.10033317780E+04  0.10431367882E+04  0.00000000000E+00 0.  1.
         22    1    1    2    0    0 -0.12529380254E+03 -0.30622478547E+03 -0.23785807663E+03  0.40749063892E+03  0.00000000000E+00 0.  1.
<mgrwt>
<rscale>  0 0.13288235E+04</rscale>
<asrwt>0</asrwt>
<pdfrwt beam="1">  1        2 0.19537723E+00 0.13288235E+04</pdfrwt>
<pdfrwt beam="2">  1       -2 0.53477855E-01 0.13288235E+04</pdfrwt>
<totfact> 0.55487892E+01</totfact>
</mgrwt>
</event>
<event>
 6    1  0.1762360E-005  0.1545134E+04  0.7818608E-02  0.8854982E-01
          2   -1    0    0  501    0  0.00000000000E+00  0.00000000000E+00  0.27417121521E+04  0.27417121521E+04  0.00000000000E+00 0. -1.
         -2   -1    0    0    0  501 -0.00000000000E+00 -0.00000000000E+00 -0.21769585942E+03  0.21769585942E+03  0.00000000000E+00 0.  1.
         23    2    1    2    0    0 -0.43957638422E+03  0.61071925692E+03  0.94833934455E+03  0.12132799368E+04  0.80593327044E+02 0.  0.
         11    1    3    3    0    0 -0.30045176323E+03  0.38941367175E+03  0.67354348098E+03  0.83401144509E+03  0.00000000000E+00 0.  1.
        -11    1    3    3    0    0 -0.13912462099E+03  0.22130558516E+03  0.27479586357E+03  0.37926849174E+03  0.00000000000E+00 0. -1.
         22    1    1    2    0    0  0.43957638422E+03 -0.61071925692E+03  0.15756769481E+04  0.17461280747E+04  0.00000000000E+00 0.  1.
<mgrwt>
<rscale>  0 0.15451335E+04</rscale>
<asrwt>0</asrwt>
<pdfrwt beam="1">  1        2 0.42180184E+00 0.15451335E+04</pdfrwt>
<pdfrwt beam="2">  1       -2 0.33491673E-01 0.15451335E+04</pdfrwt>
<totfact> 0.20203522E+01</totfact>
</mgrwt>
</event>
<event>
 6    1  0.1762360E-005  0.5101372E+03  0.7818608E-02  0.1011166E+00
          2   -1    0    0  501    0  0.00000000000E+00  0.00000000000E+00  0.65677674521E+03  0.65677674521E+03  0.00000000000E+00 0. -1.
         -2   -1    0    0    0  501 -0.00000000000E+00 -0.00000000000E+00 -0.99059521923E+02  0.99059521923E+02  0.00000000000E+00 0.  1.
         23    2    1    2    0    0 -0.28805948798E+02 -0.18386491209E+03  0.52838315898E+03  0.56743091713E+03  0.90293933514E+02 0.  0.
         13    1    3    3    0    0 -0.15135449435E+02 -0.13794525543E+03  0.47870279281E+03  0.49841181685E+03  0.00000000000E+00 0. -1.
        -13    1    3    3    0    0 -0.13670499363E+02 -0.45919656660E+02  0.49680366171E+02  0.69019100280E+02  0.00000000000E+00 0.  1.
         22    1    1    2    0    0  0.28805948798E+02  0.18386491209E+03  0.29334064308E+02  0.18840535001E+03  0.00000000000E+00 0.  1.
<mgrwt>
<rscale>  0 0.51013720E+03</rscale>
<asrwt>0</asrwt>
<pdfrwt beam="1">  1        2 0.10104257E+00 0.51013720E+03</pdfrwt>
<pdfrwt beam="2">  1       -2 0.15239927E-01 0.51013720E+03</pdfrwt>
<totfact> 0.15153093E+03</totfact>
</mgrwt>
</event>
<event>
 6    1  0.1762360E-005  0.2725408E+04  0.7818608E-02  0.8326808E-01
         -1   -1    0    0    0  501 -0.00000000000E+00  0.00000000000E+00  0.95924743052E+03  0.95924743052E+03  0.00000000000E+00 0.  1.
          1   -1    0    0  501    0  0.00000000000E+00 -0.00000000000E+00 -0.19358538313E+04  0.19358538313E+04  0.00000000000E+00 0. -1.
         23    2    1    2    0    0  0.10115910340E+04  0.73112128386E+03 -0.10658517099E+04  0.16437741755E+04  0.89994003546E+02 0.  0.
         13    1    3    3    0    0  0.88409131696E+03  0.60153120315E+03 -0.92261129577E+03  0.14123274578E+04  0.00000000000E+00 0.  1.
        -13    1    3    3    0    0  0.12749971706E+03  0.12959008072E+03 -0.14324041416E+03  0.23144671767E+03  0.00000000000E+00 0. -1.
         22    1    1    2    0    0 -0.10115910340E+04 -0.73112128386E+03  0.89245309120E+02  0.12513270863E+04  0.00000000000E+00 0. -1.
<mgrwt>
<rscale>  0 0.27254085E+04</rscale>
<asrwt>0</asrwt>
<pdfrwt beam="1">  1        1 0.29782367E+00 0.27254085E+04</pdfrwt>
<pdfrwt beam="2">  1       -1 0.14757653E+00 0.27254085E+04</pdfrwt>
<totfact> 0.10461599E+00</totfact>
</mgrwt>
</event>
<event>
 6    1  0.1762360E-005  0.1317633E+04  0.7818608E-02  0.9015698E-01
         -2   -1    0    0    0  501 -0.00000000000E+00  0.00000000000E+00  0.12561101714E+03  0.12561101714E+03  0.00000000000E+00 0.  1.
          2   -1    0    0  501    0  0.00000000000E+00 -0.00000000000E+00 -0.34554235057E+04  0.34554235057E+04  0.00000000000E+00 0. -1.
         23    2    1    2    0    0 -0.46856270088E+03  0.29319262901E+03 -0.26315612352E+04  0.26904910173E+04  0.90080283899E+02 0.  0.
         13    1    3    3    0    0 -0.16213762320E+03  0.15312642572E+03 -0.10248079180E+04  0.10487933924E+04  0.00000000000E+00 0. -1.
        -13    1    3    3    0    0 -0.30642507768E+03  0.14006620329E+03 -0.16067533172E+04  0.16416976249E+04  0.00000000000E+00 0.  1.
         22    1    1    2    0    0  0.46856270088E+03 -0.29319262901E+03 -0.69825125341E+03  0.89054350554E+03  0.00000000000E+00 0.  1.
<mgrwt>
<rscale>  0 0.13176331E+04</rscale>
<asrwt>0</asrwt>
<pdfrwt beam="1">  1        2 0.53160356E+00 0.13176331E+04</pdfrwt>
<pdfrwt beam="2">  1       -2 0.19324774E-01 0.13176331E+04</pdfrwt>
<totfact> 0.19786145E+01</totfact>
</mgrwt>
</event>
<event>
 6    1  0.1762360E-005  0.5701882E+04  0.7818608E-02  0.7728505E-01
          2   -1    0    0  501    0  0.00000000000E+00  0.00000000000E+00  0.26577635423E+04  0.26577635423E+04  0.00000000000E+00 0. -1.
         -2   -1    0    0    0  501 -0.00000000000E+00 -0.00000000000E+00 -0.30581589175E+04  0.30581589175E+04  0.00000000000E+00 0.  1.
         23    2    1    2    0    0 -0.24666541083E+04 -0.45758746789E+03  0.11558084442E+04  0.27637132687E+04  0.91918938160E+02 0.  0.
         13    1    3    3    0    0 -0.16085377345E+04 -0.27223080175E+03  0.71220976983E+03  0.17800971909E+04  0.00000000000E+00 0.  1.
        -13    1    3    3    0    0 -0.85811637381E+03 -0.18535666614E+03  0.44359867435E+03  0.98361607783E+03  0.00000000000E+00 0. -1.
         22    1    1    2    0    0  0.24666541083E+04  0.45758746789E+03 -0.15562038193E+04  0.29522091911E+04  0.00000000000E+00 0.  1.
<mgrwt>
<rscale>  0 0.57018815E+04</rscale>
<asrwt>0</asrwt>
<pdfrwt beam="1">  1        2 0.40888670E+00 0.57018815E+04</pdfrwt>
<pdfrwt beam="2">  1       -2 0.47048599E+00 0.57018815E+04</pdfrwt>
<totfact> 0.49643237E-03</totfact>
</mgrwt>
</event>
<event>
 6    1  0.1762360E-005  0.1644514E+04  0.7818608E-02  0.8793659E-01
         -2   -1    0    0    0  501 -0.00000000000E+00  0.00000000000E+00  0.19862805551E+04  0.19862805551E+04  0.00000000000E+00 0. -1.
          2   -1    0    0  501    0  0.00000000000E+00 -0.00000000000E+00 -0.34038805543E+03  0.34038805543E+03  0.00000000000E+00 0.  1.
         23    2    1    2    0    0 -0.42736676909E+03 -0.37419806782E+03 -0.10656647335E+02  0.57543429562E+03  0.91348317780E+02 0.  0.
         13    1    3    3    0    0 -0.25749964337E+03 -0.24256673404E+03 -0.49018672870E+02  0.35713795246E+03  0.00000000000E+00 0. -1.
        -13    1    3    3    0    0 -0.16986712572E+03 -0.13163133377E+03  0.38362025535E+02  0.21829634316E+03  0.00000000000E+00 0.  1.
         22    1    1    2    0    0  0.42736676909E+03  0.37419806782E+03  0.16565491470E+04  0.17512343149E+04  0.00000000000E+00 0. -1.
<mgrwt>
<rscale>  0 0.16445135E+04</rscale>
<asrwt>0</asrwt>
<pdfrwt beam="1">  1        2 0.52367394E-01 0.16445135E+04</pdfrwt>
<pdfrwt beam="2">  1       -2 0.30558162E+00 0.16445135E+04</pdfrwt>
<totfact> 0.26841491E+00</totfact>
</mgrwt>
</event>
<event>
 6    1  0.1762360E-005  0.2328353E+04  0.7818608E-02  0.8466825E-01
          1   -1    0    0  501    0  0.00000000000E+00  0.00000000000E+00  0.31555051517E+04  0.31555051517E+04  0.00000000000E+00 0. -1.
         -1   -1    0    0    0  501 -0.00000000000E+00 -0.00000000000E+00 -0.42950540722E+03  0.42950540722E+03  0.00000000000E+00 0.  1.
         23    2    1    2    0    0  0.97045866138E+03 -0.62897445693E+03  0.15473013023E+04  0.19337295718E+04  0.88146785179E+02 0.  0.
         11    1    3    3    0    0  0.50529489345E+03 -0.34381141485E+03  0.88698673714E+03  0.10771604756E+04  0.00000000000E+00 0.  1.
        -11    1    3    3    0    0  0.46516376793E+03 -0.28516304208E+03  0.66031456517E+03  0.85656909619E+03  0.00000000000E+00 0. -1.
         22    1    1    2    0    0 -0.97045866138E+03  0.62897445693E+03  0.11786984422E+04  0.16512809871E+04  0.00000000000E+00 0.  1.
<mgrwt>
<rscale>  0 0.23283527E+04</rscale>
<asrwt>0</asrwt>
<pdfrwt beam="1">  1        1 0.48546232E+00 0.23283527E+04</pdfrwt>
<pdfrwt beam="2">  1       -1 0.66077757E-01 0.23283527E+04</pdfrwt>
<totfact> 0.96132089E-01</totfact>
</mgrwt>
</event>
<event>
 6    1  0.1762360E-005  0.3532507E+04  0.7818608E-02  0.8106129E-01
          2   -1    0    0  501    0  0.00000000000E+00  0.00000000000E+00  0.28107842426E+04  0.28107842426E+04  0.00000000000E+00 0. -1.
         -2   -1    0    0    0  501 -0.00000000000E+00 -0.00000000000E+00 -0.11098864561E+04  0.11098864561E+04  0.00000000000E+00 0.  1.
         23    2    1    2    0    0 -0.72505282674E+03 -0.68473255626E+03 -0.76538078592E+03  0.12603905871E+04  0.90644411458E+02 0.  0.
         11    1    3    3    0    0 -0.28715232951E+03 -0.26337788897E+03 -0.35491175311E+03  0.52705476493E+03  0.00000000000E+00 0.  1.
        -11    1    3    3    0    0 -0.43790049723E+03 -0.42135466729E+03 -0.41046903281E+03  0.73333582213E+03  0.00000000000E+00 0. -1.
         22    1    1    2    0    0  0.72505282674E+03  0.68473255626E+03  0.24662785725E+04  0.26602801116E+04  0.00000000000E+00 0. -1.
<mgrwt>
<rscale>  0 0.35325070E+04</rscale>
<asrwt>0</asrwt>
<pdfrwt beam="1">  1        2 0.43242834E+00 0.35325070E+04</pdfrwt>
<pdfrwt beam="2">  1       -2 0.17075176E+00 0.35325070E+04</pdfrwt>
<totfact> 0.39283936E-01</totfact>
</mgrwt>
</event>
<event>
 6    1  0.1762360E-005  0.2011167E+04  0.7818608E-02  0.8601418E-01
         -1   -1    0    0    0  501 -0.00000000000E+00  0.00000000000E+00  0.14768294755E+04  0.14768294755E+04  0.00000000000E+00 0.  1.
          1   -1    0    0  501    0  0.00000000000E+00 -0.00000000000E+00 -0.68470875534E+03  0.68470875534E+03  0.00000000000E+00 0. -1.
         23    2    1    2    0    0 -0.63160922110E+03 -0.45136101425E+03  0.10803349502E+04  0.13334534431E+04  0.91200366542E+02 0.  0.
         11    1    3    3    0    0 -0.24146347988E+03 -0.14966157800E+03  0.46435086210E+03  0.54435734879E+03  0.00000000000E+00 0.  1.
        -11    1    3    3    0    0 -0.39014574123E+03 -0.30169943624E+03  0.61598408809E+03  0.78909609428E+03  0.00000000000E+00 0. -1.
         22    1    1    2    0    0  0.63160922110E+03  0.45136101425E+03 -0.28821423003E+03  0.82808478778E+03  0.00000000000E+00 0. -1.
<mgrwt>
<rscale>  0 0.20111669E+04</rscale>
<asrwt>0</asrwt>
<pdfrwt beam="1">  1        1 0.10533981E+00 0.20111669E+04</pdfrwt>
<pdfrwt beam="2">  1       -1 0.22720453E+00 0.20111669E+04</pdfrwt>
<totfact> 0.25718432E+00</totfact>
</mgrwt>
</event>
<event>
 6    1  0.1762360E-005  0.6276753E+04  0.7818608E-02  0.7657004E-01
         -2   -1    0    0    0  501 -0.00000000000E+00  0.00000000000E+00  0.22251634309E+04  0.22251634309E+04  0.00000000000E+00 0.  1.
          2   -1    0    0  501    0  0.00000000000E+00 -0.00000000000E+00 -0.44263749827E+04  0.44263749827E+04  0.00000000000E+00 0. -1.
         23    2    1    2    0    0  0.76734762845E+03  0.63837947113E+03  0.20515297295E+04  0.22832253368E+04  0.89403443392E+02 0.  0.
         11    1    3    3    0    0  0.71322560079E+03  0.56110277513E+03  0.18403574395E+04  0.20519363019E+04  0.00000000000E+00 0.  1.
        -11    1    3    3    0    0  0.54122027657E+02  0.77276695995E+02  0.21117228999E+03  0.23128903493E+03  0.00000000000E+00 0. -1.
         22    1    1    2    0    0 -0.76734762845E+03 -0.63837947113E+03 -0.42527412812E+04  0.43683130768E+04  0.00000000000E+00 0. -1.
<mgrwt>
<rscale>  0 0.62767532E+04</rscale>
<asrwt>0</asrwt>
<pdfrwt beam="1">  1        2 0.68098077E+00 0.62767532E+04</pdfrwt>
<pdfrwt beam="2">  1       -2 0.34233283E+00 0.62767532E+04</pdfrwt>
<totfact> 0.16422157E-03</totfact>
</mgrwt>
</event>
<event>
 6    1  0.1762360E-005  0.6247867E+03  0.7818608E-02  0.9855275E-01
         -1   -1    0    0    0  501 -0.00000000000E+00  0.00000000000E+00  0.81586870310E+03  0.81586870310E+03  0.00000000000E+00 0.  1.
          1   -1    0    0  501    0  0.00000000000E+00 -0.00000000000E+00 -0.11961435349E+03  0.11961435349E+03  0.00000000000E+00 0. -1.
         23    2    1    2    0    0  0.18540280070E+03  0.24053996064E+03  0.31196000777E+03  0.44567103924E+03  0.95236325006E+02 0.  0.
         11    1    3    3    0    0  0.12430647966E+03  0.16111720376E+03  0.26734914920E+03  0.33598574644E+03  0.00000000000E+00 0. -1.
        -11    1    3    3    0    0  0.61096321038E+02  0.79422756877E+02  0.44610858566E+02  0.10968529280E+03  0.00000000000E+00 0.  1.
         22    1    1    2    0    0 -0.18540280070E+03 -0.24053996064E+03  0.38429434184E+03  0.48981201735E+03  0.00000000000E+00 0.  1.
<mgrwt>
<rscale>  0 0.62478671E+03</rscale>
<asrwt>0</asrwt>
<pdfrwt beam="1">  1        1 0.18402209E-01 0.62478671E+03</pdfrwt>
<pdfrwt beam="2">  1       -1 0.12551826E+00 0.62478671E+03</pdfrwt>
<totfact> 0.16556360E+02</totfact>
</mgrwt>
</event>
<event>
 6    1  0.1762360E-005  0.1259415E+04  0.7818608E-02  0.9062384E-01
          1   -1    0    0  501    0  0.00000000000E+00  0.00000000000E+00  0.46093439737E+03  0.46093439737E+03  0.00000000000E+00 0. -1.
         -1   -1    0    0    0  501 -0.00000000000E+00 -0.00000000000E+00 -0.86027731538E+03  0.86027731538E+03  0.00000000000E+00 0.  1.
         23    2    1    2    0    0  0.43194117750E+03 -0.12259730488E+03 -0.65916103020E+03  0.80245480301E+03  0.88527776182E+02 0.  0.
         13    1    3    3    0    0  0.28578338506E+03 -0.10916813989E+03 -0.38778423562E+03  0.49392958946E+03  0.00000000000E+00 0. -1.
        -13    1    3    3    0    0  0.14615779244E+03 -0.13429164989E+02 -0.27137679457E+03  0.30852521355E+03  0.00000000000E+00 0.  1.
         22    1    1    2    0    0 -0.43194117750E+03  0.12259730488E+03  0.25981811219E+03  0.51875690974E+03  0.00000000000E+00 0. -1.
<mgrwt>
<rscale>  0 0.12594148E+04</rscale>
<asrwt>0</asrwt>
<pdfrwt beam="1">  1        1 0.70912985E-01 0.12594148E+04</pdfrwt>
<pdfrwt beam="2">  1       -1 0.13235036E+00 0.12594148E+04</pdfrwt>
<totfact> 0.23673396E+01</totfact>
</mgrwt>
</event>
<event>
 6    1  0.1762360E-005  0.5003382E+04  0.7818608E-02  0.7827986E-01
         -2   -1    0    0    0  501 -0.00000000000E+00  0.00000000000E+00  0.16068749864E+04  0.16068749864E+04  0.00000000000E+00 0.  1.
          2   -1    0    0  501    0  0.00000000000E+00 -0.00000000000E+00 -0.38948011076E+04  0.38948011076E+04  0.00000000000E+00 0. -1.
         23    2    1    2    0    0  0.23462189242E+04  0.78822621731E+03 -0.15379664063E+04  0.29154658582E+04  0.92502393963E+02 0.  0.
         13    1    3    3    0    0  0.17745480326E+04  0.63456473033E+03 -0.11881660090E+04  0.22278760248E+04  0.00000000000E+00 0. -1.
        -13    1    3    3    0    0  0.57167089168E+03  0.15366148698E+03 -0.34980039732E+03  0.68758983336E+03  0.00000000000E+00 0.  1.
         22    1    1    2    0    0 -0.23462189242E+04 -0.78822621731E+03 -0.74995971482E+03  0.25862102358E+04  0.00000000000E+00 0. -1.
<mgrwt>
<rscale>  0 0.50033822E+04</rscale>
<asrwt>0</asrwt>
<pdfrwt beam="1">  1        2 0.59920016E+00 0.50033822E+04</pdfrwt>
<pdfrwt beam="2">  1       -2 0.24721154E+00 0.50033822E+04</pdfrwt>
<totfact> 0.20110991E-02</totfact>
</mgrwt>
</event>
<event>
 6    1  0.1762360E-005  0.2552142E+04  0.7818608E-02  0.8384642E-01
         -2   -1    0    0    0  501 -0.00000000000E+00  0.00000000000E+00  0.58429423799E+03  0.58429423799E+03  0.00000000000E+00 0.  1.
          2   -1    0    0  501    0  0.00000000000E+00 -0.00000000000E+00 -0.27868794077E+04  0.27868794077E+04  0.00000000000E+00 0. -1.
         23    2    1    2    0    0  0.77071838213E+03  0.24125549664E+03 -0.24049711989E+04  0.25386046431E+04  0.91738908106E+02 0.  0.
         11    1    3    3    0    0  0.66325607650E+03  0.23854399717E+03 -0.21142164739E+04  0.22286146280E+04  0.00000000000E+00 0. -1.
        -11    1    3    3    0    0  0.10746230563E+03  0.27114994776E+01 -0.29075472496E+03  0.30999001508E+03  0.00000000000E+00 0.  1.
         22    1    1    2    0    0 -0.77071838213E+03 -0.24125549664E+03  0.20238602921E+03  0.83256900256E+03  0.00000000000E+00 0.  1.
<mgrwt>
<rscale>  0 0.25521423E+04</rscale>
<asrwt>0</asrwt>
<pdfrwt beam="1">  1        2 0.42875067E+00 0.25521423E+04</pdfrwt>
<pdfrwt beam="2">  1       -2 0.89891422E-01 0.25521423E+04</pdfrwt>
<totfact> 0.22161129E+00</totfact>
</mgrwt>
</event>
<event>
 6    1  0.1762360E-005  0.1134322E+04  0.7818608E-02  0.9172370E-01
         -2   -1    0    0    0  501 -0.00000000000E+00  0.00000000000E+00  0.22701478095E+03  0.22701478095E+03  0.00000000000E+00 0. -1.
          2   -1    0    0  501    0  0.00000000000E+00 -0.00000000000E+00 -0.14169642614E+04  0.14169642614E+04  0.00000000000E+00 0.  1.
         23    2    1    2    0    0 -0.47772234961E+03 -0.13881226615E+03 -0.98213415288E+03  0.11048364833E+04  0.92675089019E+02 0.  0.
         11    1    3    3    0    0 -0.63794280844E+02  0.50641088562E+01 -0.17629079223E+03  0.18754679121E+03  0.00000000000E+00 0. -1.
        -11    1    3    3    0    0 -0.41392806877E+03 -0.14387637501E+03 -0.80584336065E+03  0.91728969213E+03  0.00000000000E+00 0.  1.
         22    1    1    2    0    0  0.47772234961E+03  0.13881226615E+03 -0.20781532755E+03  0.53914255899E+03  0.00000000000E+00 0. -1.
<mgrwt>
<rscale>  0 0.11343224E+04</rscale>
<asrwt>0</asrwt>
<pdfrwt beam="1">  1        2 0.21799450E+00 0.11343224E+04</pdfrwt>
<pdfrwt beam="2">  1       -2 0.34925351E-01 0.11343224E+04</pdfrwt>
<totfact> 0.10776513E+02</totfact>
</mgrwt>
</event>
<event>
 6    1  0.1762360E-005  0.1326014E+04  0.7818608E-02  0.9009186E-01
          2   -1    0    0  501    0  0.00000000000E+00  0.00000000000E+00  0.38345274494E+03  0.38345274494E+03  0.00000000000E+00 0.  1.
         -2   -1    0    0    0  501 -0.00000000000E+00 -0.00000000000E+00 -0.11463696363E+04  0.11463696363E+04  0.00000000000E+00 0. -1.
         23    2    1    2    0    0 -0.19227233560E+03 -0.34092722320E+03 -0.99657208969E+03  0.10739772604E+04  0.84090447224E+02 0.  0.
         13    1    3    3    0    0 -0.14395343161E+03 -0.24804031104E+03 -0.61991306552E+03  0.68303645230E+03  0.00000000000E+00 0. -1.
        -13    1    3    3    0    0 -0.48318903990E+02 -0.92886912168E+02 -0.37665902417E+03  0.39094080808E+03  0.00000000000E+00 0.  1.
         22    1    1    2    0    0  0.19227233560E+03  0.34092722320E+03  0.23365519829E+03  0.45584512090E+03  0.00000000000E+00 0.  1.
<mgrwt>
<rscale>  0 0.13260145E+04</rscale>
<asrwt>0</asrwt>
<pdfrwt beam="1">  1        2 0.58992729E-01 0.13260145E+04</pdfrwt>
<pdfrwt beam="2">  1       -2 0.17636456E+00 0.13260145E+04</pdfrwt>
<totfact> 0.15664739E+01</totfact>
</mgrwt>
</event>
<event>
 6    1  0.1762360E-005  0.2417266E+04  0.7818608E-02  0.8433068E-01
          2   -1    0    0  501    0  0.00000000000E+00  0.00000000000E+00  0.20705975900E+04  0.20705975900E+04  0.00000000000E+00 0. -1.
         -2   -1    0    0    0  501 -0.00000000000E+00 -0.00000000000E+00 -0.70549377503E+03  0.70549377503E+03  0.00000000000E+00 0.  1.
         23    2    1    2    0    0 -0.37833813956E+02  0.11973057078E+04  0.85232682949E+03  0.14730516142E+04  0.91911253081E+02 0.  0.
         11    1    3    3    0    0 -0.67220440162E+02  0.70574271877E+03  0.50934783640E+03  0.87294134460E+03  0.00000000000E+00 0. -1.
        -11    1    3    3    0    0  0.29386626206E+02  0.49156298902E+03  0.34297899309E+03  0.60011026959E+03  0.00000000000E+00 0.  1.
         22    1    1    2    0    0  0.37833813956E+02 -0.11973057078E+04  0.51277698547E+03  0.13030397508E+04  0.00000000000E+00 0.  1.
<mgrwt>
<rscale>  0 0.24172660E+04</rscale>
<asrwt>0</asrwt>
<pdfrwt beam="1">  1        2 0.31855347E+00 0.24172660E+04</pdfrwt>
<pdfrwt beam="2">  1       -2 0.10853750E+00 0.24172660E+04</pdfrwt>
<totfact> 0.37185879E+00</totfact>
</mgrwt>
</event>
<event>
 6    1  0.1762360E-005  0.2480392E+04  0.7818608E-02  0.8410005E-01
         -2   -1    0    0    0  501 -0.00000000000E+00  0.00000000000E+00  0.47595204630E+03  0.47595204630E+03  0.00000000000E+00 0.  1.
          2   -1    0    0  501    0  0.00000000000E+00 -0.00000000000E+00 -0.32315980412E+04  0.32315980412E+04  0.00000000000E+00 0. -1.
         23    2    1    2    0    0 -0.82786645288E+03  0.22352855628E+03 -0.27154061323E+04  0.28490938418E+04  0.92614127962E+02 0.  0.
         11    1    3    3    0    0 -0.17246467748E+03  0.85701399526E+01 -0.55827573086E+03  0.58437086165E+03  0.00000000000E+00 0.  1.
        -11    1    3    3    0    0 -0.65540177541E+03  0.21495841633E+03 -0.21571304014E+04  0.22647229801E+04  0.00000000000E+00 0. -1.
         22    1    1    2    0    0  0.82786645288E+03 -0.22352855628E+03 -0.40239862609E+02  0.85845624573E+03  0.00000000000E+00 0.  1.
<mgrwt>
<rscale>  0 0.24803917E+04</rscale>
<asrwt>0</asrwt>
<pdfrwt beam="1">  1        2 0.49716891E+00 0.24803917E+04</pdfrwt>
<pdfrwt beam="2">  1       -2 0.73223394E-01 0.24803917E+04</pdfrwt>
<totfact> 0.18610075E+00</totfact>
</mgrwt>
</event>
<event>
 6    1  0.1762360E-005  0.5464458E+03  0.7818608E-02  0.1002320E+00
         -2   -1    0    0    0  501 -0.00000000000E+00  0.00000000000E+00  0.34575540011E+03  0.34575540011E+03  0.00000000000E+00 0.  1.
          2   -1    0    0  501    0  0.00000000000E+00 -0.00000000000E+00 -0.21590626372E+03  0.21590626372E+03  0.00000000000E+00 0. -1.
         23    2    1    2    0    0  0.84227390416E+02  0.18843643465E+03 -0.10496917273E+03  0.24902420367E+03  0.91607770356E+02 0.  0.
         11    1    3    3    0    0  0.95197322632E+02  0.18663702216E+03 -0.84859660771E+02  0.22604661091E+03  0.00000000000E+00 0.  1.
        -11    1    3    3    0    0 -0.10969932216E+02  0.17994124964E+01 -0.20109511956E+02  0.22977592765E+02  0.00000000000E+00 0. -1.
         22    1    1    2    0    0 -0.84227390416E+02 -0.18843643465E+03  0.23481830912E+03  0.31263746016E+03  0.00000000000E+00 0.  1.
<mgrwt>
<rscale>  0 0.54644581E+03</rscale>
<asrwt>0</asrwt>
<pdfrwt beam="1">  1        2 0.33216348E-01 0.54644581E+03</pdfrwt>
<pdfrwt beam="2">  1       -2 0.53193138E-01 0.54644581E+03</pdfrwt>
<totfact> 0.53280196E+02</totfact>
</mgrwt>
</event>
<event>
 6    1  0.1762360E-005  0.8579786E+03  0.7818608E-02  0.9479691E-01
         -1   -1    0    0    0  501 -0.00000000000E+00  0.00000000000E+00  0.43592396927E+03  0.43592396927E+03  0.00000000000E+00 0.  1.
          1   -1    0    0  501    0  0.00000000000E+00 -0.00000000000E+00 -0.42216491558E+03  0.42216491558E+03  0.00000000000E+00 0. -1.
         23    2    1    2    0    0 -0.73590127581E+02  0.18593808308E+03  0.38157958038E+03  0.43942384276E+03  0.86613277325E+02 0.  0.
         13    1    3    3    0    0 -0.59038236509E+02  0.14460931601E+03  0.20635692668E+03  0.25880600618E+03  0.00000000000E+00 0. -1.
        -13    1    3    3    0    0 -0.14551891072E+02  0.41328767064E+02  0.17522265370E+03  0.18061783658E+03  0.00000000000E+00 0.  1.
         22    1    1    2    0    0  0.73590127581E+02 -0.18593808308E+03 -0.36782052669E+03  0.41866504209E+03  0.00000000000E+00 0. -1.
<mgrwt>
<rscale>  0 0.85797857E+03</rscale>
<asrwt>0</asrwt>
<pdfrwt beam="1">  1        1 0.64948449E-01 0.85797857E+03</pdfrwt>
<pdfrwt beam="2">  1       -1 0.67065226E-01 0.85797857E+03</pdfrwt>
<totfact> 0.12698961E+02</totfact>
</mgrwt>
</event>
<event>
 6    1  0.1762360E-005  0.3012395E+04  0.7818608E-02  0.8240200E-01
         -1   -1    0    0    0  501 -0.00000000000E+00  0.00000000000E+00  0.17473345161E+04  0.17473345161E+04  0.00000000000E+00 0.  1.
          1   -1    0    0  501    0  0.00000000000E+00 -0.00000000000E+00 -0.12983379360E+04  0.12983379360E+04  0.00000000000E+00 0. -1.
         23    2    1    2    0    0 -0.90934838562E+03 -0.11520884973E+04 -0.11093789217E+03  0.14747653876E+04  0.91669736204E+02 0.  0.
         11    1    3    3    0    0 -0.31116409965E+03 -0.43589059180E+03 -0.46028285963E+01  0.53557902401E+03  0.00000000000E+00 0.  1.
        -11    1    3    3    0    0 -0.59818428598E+03 -0.71619790548E+03 -0.10633506357E+03  0.93918636359E+03  0.00000000000E+00 0. -1.
         22    1    1    2    0    0  0.90934838562E+03  0.11520884973E+04  0.55993447232E+03  0.15709070645E+04  0.00000000000E+00 0. -1.
<mgrwt>
<rscale>  0 0.30123949E+04</rscale>
<asrwt>0</asrwt>
<pdfrwt beam="1">  1        1 0.19974430E+00 0.30123949E+04</pdfrwt>
<pdfrwt beam="2">  1       -1 0.26882069E+00 0.30123949E+04</pdfrwt>
<totfact> 0.40549397E-01</totfact>
</mgrwt>
</event>
<event>
 6    1  0.1762360E-005  0.2886657E+04  0.7818608E-02  0.8276859E-01
          2   -1    0    0  501    0  0.00000000000E+00  0.00000000000E+00  0.13479286580E+04  0.13479286580E+04  0.00000000000E+00 0. -1.
         -2   -1    0    0    0  501 -0.00000000000E+00 -0.00000000000E+00 -0.15454801361E+04  0.15454801361E+04  0.00000000000E+00 0.  1.
         23    2    1    2    0    0 -0.51688103723E+03  0.61300821229E+03 -0.13000914663E+04  0.15301261745E+04  0.90017855164E+02 0.  0.
         11    1    3    3    0    0 -0.21305757752E+03  0.21303789908E+03 -0.42183513609E+03  0.51838553203E+03  0.00000000000E+00 0.  1.
        -11    1    3    3    0    0 -0.30382345971E+03  0.39997031322E+03 -0.87825633022E+03  0.10117406425E+04  0.00000000000E+00 0. -1.
         22    1    1    2    0    0  0.51688103723E+03 -0.61300821229E+03  0.11025399882E+04  0.13632826195E+04  0.00000000000E+00 0. -1.
<mgrwt>
<rscale>  0 0.28866569E+04</rscale>
<asrwt>0</asrwt>
<pdfrwt beam="1">  1        2 0.20737364E+00 0.28866569E+04</pdfrwt>
<pdfrwt beam="2">  1       -2 0.23776618E+00 0.28866569E+04</pdfrwt>
<totfact> 0.10245138E+00</totfact>
</mgrwt>
</event>
<event>
 6    1  0.1762360E-005  0.2510227E+04  0.7818608E-02  0.8399351E-01
         -2   -1    0    0    0  501 -0.00000000000E+00  0.00000000000E+00  0.55281362502E+03  0.55281362502E+03  0.00000000000E+00 0. -1.
          2   -1    0    0  501    0  0.00000000000E+00 -0.00000000000E+00 -0.28496210731E+04  0.28496210731E+04  0.00000000000E+00 0.  1.
         23    2    1    2    0    0 -0.41372387065E+03  0.10759027360E+04 -0.48242747678E+03  0.12528512923E+04  0.90365655269E+02 0.  0.
         11    1    3    3    0    0 -0.16351154570E+03  0.53230394868E+03 -0.20687134435E+03  0.59403642352E+03  0.00000000000E+00 0. -1.
        -11    1    3    3    0    0 -0.25021232495E+03  0.54359878734E+03 -0.27555613243E+03  0.65881486874E+03  0.00000000000E+00 0.  1.
         22    1    1    2    0    0  0.41372387065E+03 -0.10759027360E+04 -0.18143799713E+04  0.21495834059E+04  0.00000000000E+00 0.  1.
<mgrwt>
<rscale>  0 0.25102266E+04</rscale>
<asrwt>0</asrwt>
<pdfrwt beam="1">  1        2 0.43840324E+00 0.25102266E+04</pdfrwt>
<pdfrwt beam="2">  1       -2 0.85048251E-01 0.25102266E+04</pdfrwt>
<totfact> 0.23131998E+00</totfact>
</mgrwt>
</event>
<event>
 6    1  0.1762360E-005  0.3158358E+04  0.7818608E-02  0.8199902E-01
          1   -1    0    0  501    0  0.00000000000E+00  0.00000000000E+00  0.15060110903E+04  0.15060110903E+04  0.00000000000E+00 0. -1.
         -1   -1    0    0    0  501 -0.00000000000E+00 -0.00000000000E+00 -0.16559017667E+04  0.16559017667E+04  0.00000000000E+00 0.  1.
         23    2    1    2    0    0  0.47899814481E+03 -0.27911863986E+03  0.14035743856E+04  0.15124886737E+04  0.10126447610E+03 0.  0.
         13    1    3    3    0    0  0.24086205710E+03 -0.91245789946E+02  0.71838229342E+03  0.76316016945E+03  0.00000000000E+00 0.  1.
        -13    1    3    3    0    0  0.23813608771E+03 -0.18787284991E+03  0.68519209222E+03  0.74932850423E+03  0.00000000000E+00 0. -1.
         22    1    1    2    0    0 -0.47899814481E+03  0.27911863986E+03 -0.15534650620E+04  0.16494241834E+04  0.00000000000E+00 0.  1.
<mgrwt>
<rscale>  0 0.31583581E+04</rscale>
<asrwt>0</asrwt>
<pdfrwt beam="1">  1        1 0.23169401E+00 0.31583581E+04</pdfrwt>
<pdfrwt beam="2">  1       -1 0.25475412E+00 0.31583581E+04</pdfrwt>
<totfact> 0.35311646E-01</totfact>
</mgrwt>
</event>
<event>
 6    1  0.1762360E-005  0.1096088E+04  0.7818608E-02  0.9209013E-01
         -2   -1    0    0    0  501 -0.00000000000E+00  0.00000000000E+00  0.10964216638E+03  0.10964216638E+03  0.00000000000E+00 0. -1.
          2   -1    0    0  501    0  0.00000000000E+00 -0.00000000000E+00 -0.27393874910E+04  0.27393874910E+04  0.00000000000E+00 0.  1.
         23    2    1    2    0    0 -0.39614137838E+03 -0.25097154499E+03 -0.59037720344E+03  0.75643866969E+03  0.61151538130E+02 0.  0.
         11    1    3    3    0    0 -0.29868144657E+03 -0.21694473242E+03 -0.47587975116E+03  0.60227664824E+03  0.00000000000E+00 0. -1.
        -11    1    3    3    0    0 -0.97459931807E+02 -0.34026812568E+02 -0.11449745227E+03  0.15416202145E+03  0.00000000000E+00 0.  1.
         22    1    1    2    0    0  0.39614137838E+03  0.25097154499E+03 -0.20393681211E+04  0.20925909876E+04  0.00000000000E+00 0.  1.
<mgrwt>
<rscale>  0 0.10960883E+04</rscale>
<asrwt>0</asrwt>
<pdfrwt beam="1">  1        2 0.42144422E+00 0.10960883E+04</pdfrwt>
<pdfrwt beam="2">  1       -2 0.16868026E-01 0.10960883E+04</pdfrwt>
<totfact> 0.72756942E+01</totfact>
</mgrwt>
</event>
<event>
 6    1  0.1762360E-005  0.8862300E+03  0.7818608E-02  0.9442960E-01
          2   -1    0    0  501    0  0.00000000000E+00  0.00000000000E+00  0.45561533636E+03  0.45561533636E+03  0.00000000000E+00 0. -1.
         -2   -1    0    0    0  501 -0.00000000000E+00 -0.00000000000E+00 -0.43095766413E+03  0.43095766413E+03  0.00000000000E+00 0.  1.
         23    2    1    2    0    0 -0.20779173596E+03  0.33435440736E+03  0.20558486755E+03  0.45332373591E+03  0.90923025246E+02 0.  0.
         11    1    3    3    0    0 -0.12718566371E+03  0.25712956612E+03  0.11308497658E+03  0.30835048039E+03  0.00000000000E+00 0. -1.
        -11    1    3    3    0    0 -0.80606072251E+02  0.77224841237E+02  0.92499890961E+02  0.14497325552E+03  0.00000000000E+00 0.  1.
         22    1    1    2    0    0  0.20779173596E+03 -0.33435440736E+03 -0.18092719532E+03  0.43324926458E+03  0.00000000000E+00 0.  1.
<mgrwt>
<rscale>  0 0.88623004E+03</rscale>
<asrwt>0</asrwt>
<pdfrwt beam="1">  1        2 0.70094667E-01 0.88623004E+03</pdfrwt>
<pdfrwt beam="2">  1       -2 0.66301179E-01 0.88623004E+03</pdfrwt>
<totfact> 0.14408746E+02</totfact>
</mgrwt>
</event>
<event>
 6    1  0.1762360E-005  0.1632508E+04  0.7818608E-02  0.8800823E-01
          2   -1    0    0  501    0  0.00000000000E+00  0.00000000000E+00  0.18509722427E+04  0.18509722427E+04  0.00000000000E+00 0. -1.
         -2   -1    0    0    0  501 -0.00000000000E+00 -0.00000000000E+00 -0.35995688396E+03  0.35995688396E+03  0.00000000000E+00 0.  1.
         23    2    1    2    0    0  0.12175532008E+03  0.73920517236E+03  0.31927757880E+03  0.82016743976E+03  0.97405400852E+02 0.  0.
         11    1    3    3    0    0 -0.16404218679E+02  0.98119739593E+02  0.35960224124E+02  0.10578147006E+03  0.00000000000E+00 0. -1.
        -11    1    3    3    0    0  0.13815953876E+03  0.64108543276E+03  0.28331735467E+03  0.71438596971E+03  0.00000000000E+00 0.  1.
         22    1    1    2    0    0 -0.12175532008E+03 -0.73920517236E+03  0.11717377800E+04  0.13907616869E+04  0.00000000000E+00 0. -1.
<mgrwt>
<rscale>  0 0.16325075E+04</rscale>
<asrwt>0</asrwt>
<pdfrwt beam="1">  1        2 0.28476496E+00 0.16325075E+04</pdfrwt>
<pdfrwt beam="2">  1       -2 0.55377983E-01 0.16325075E+04</pdfrwt>
<totfact> 0.23701237E+01</totfact>
</mgrwt>
</event>
<event>
 6    1  0.1762360E-005  0.1557075E+04  0.7818608E-02  0.8847361E-01
          2   -1    0    0  501    0  0.00000000000E+00  0.00000000000E+00  0.39545831470E+04  0.39545831470E+04  0.00000000000E+00 0. -1.
         -2   -1    0    0    0  501 -0.00000000000E+00 -0.00000000000E+00 -0.15327051692E+03  0.15327051692E+03  0.00000000000E+00 0.  1.
         23    2    1    2    0    0 -0.49300157831E+03  0.59404422278E+03  0.21066422845E+04  0.22456381353E+04  0.94920098408E+02 0.  0.
         13    1    3    3    0    0 -0.25187821488E+03  0.36974039372E+03  0.11544875313E+04  0.12381405631E+04  0.00000000000E+00 0.  1.
        -13    1    3    3    0    0 -0.24112336343E+03  0.22430382906E+03  0.95215475311E+03  0.10074975722E+04  0.00000000000E+00 0. -1.
         22    1    1    2    0    0  0.49300157831E+03 -0.59404422278E+03  0.16946703456E+04  0.18622155287E+04  0.00000000000E+00 0. -1.
<mgrwt>
<rscale>  0 0.15570755E+04</rscale>
<asrwt>0</asrwt>
<pdfrwt beam="1">  1        2 0.60839733E+00 0.15570755E+04</pdfrwt>
<pdfrwt beam="2">  1       -2 0.23580082E-01 0.15570755E+04</pdfrwt>
<totfact> 0.58286193E+00</totfact>
</mgrwt>
</event>
<event>
 6    1  0.1762360E-005  0.4396428E+04  0.7818608E-02  0.7929024E-01
         -2   -1    0    0    0  501 -0.00000000000E+00  0.00000000000E+00  0.13077216469E+04  0.13077216469E+04  0.00000000000E+00 0.  1.
          2   -1    0    0  501    0  0.00000000000E+00 -0.00000000000E+00 -0.36950864388E+04  0.36950864388E+04  0.00000000000E+00 0. -1.
         23    2    1    2    0    0 -0.25206081522E+03 -0.30765897643E+03 -0.36532161476E+04  0.36759439799E+04  0.91581774264E+02 0.  0.
         11    1    3    3    0    0 -0.15887267175E+03 -0.14443980685E+03 -0.16454922483E+04  0.16594421119E+04  0.00000000000E+00 0.  1.
        -11    1    3    3    0    0 -0.93188143472E+02 -0.16321916958E+03 -0.20077238994E+04  0.20165018680E+04  0.00000000000E+00 0. -1.
         22    1    1    2    0    0  0.25206081522E+03  0.30765897643E+03  0.12658513558E+04  0.13268641058E+04  0.00000000000E+00 0.  1.
<mgrwt>
<rscale>  0 0.43964279E+04</rscale>
<asrwt>0</asrwt>
<pdfrwt beam="1">  1        2 0.56847483E+00 0.43964279E+04</pdfrwt>
<pdfrwt beam="2">  1       -2 0.20118795E+00 0.43964279E+04</pdfrwt>
<totfact> 0.58594926E-02</totfact>
</mgrwt>
</event>
<event>
 6    1  0.1762360E-005  0.1178926E+04  0.7818608E-02  0.9131506E-01
         -2   -1    0    0    0  501 -0.00000000000E+00  0.00000000000E+00  0.12336176985E+03  0.12336176985E+03  0.00000000000E+00 0.  1.
          2   -1    0    0  501    0  0.00000000000E+00 -0.00000000000E+00 -0.28166454915E+04  0.28166454915E+04  0.00000000000E+00 0. -1.
         23    2    1    2    0    0  0.50969857217E+03  0.30136486643E+02 -0.63944731661E+03  0.82365548980E+03  0.93886382749E+02 0.  0.
         13    1    3    3    0    0  0.72968177178E+02  0.21634884221E+02 -0.14598386933E+03  0.16463205399E+03  0.00000000000E+00 0. -1.
        -13    1    3    3    0    0  0.43673039499E+03  0.85016024221E+01 -0.49346344728E+03  0.65902343581E+03  0.00000000000E+00 0.  1.
         22    1    1    2    0    0 -0.50969857217E+03 -0.30136486643E+02 -0.20538364050E+04  0.21163517715E+04  0.00000000000E+00 0. -1.
<mgrwt>
<rscale>  0 0.11789256E+04</rscale>
<asrwt>0</asrwt>
<pdfrwt beam="1">  1        2 0.43333012E+00 0.11789256E+04</pdfrwt>
<pdfrwt beam="2">  1       -2 0.18978732E-01 0.11789256E+04</pdfrwt>
<totfact> 0.52932407E+01</totfact>
</mgrwt>
</event>
<event>
 6    1  0.1762360E-005  0.9259895E+03  0.7818608E-02  0.9393664E-01
         -2   -1    0    0    0  501 -0.00000000000E+00  0.00000000000E+00  0.30046742239E+03  0.30046742239E+03  0.00000000000E+00 0. -1.
          2   -1    0    0  501    0  0.00000000000E+00 -0.00000000000E+00 -0.71343554654E+03  0.71343554654E+03  0.00000000000E+00 0.  1.
         23    2    1    2    0    0 -0.34090560893E+03 -0.30052088136E+03 -0.27344704078E+03  0.53851305840E+03  0.93239453130E+02 0.  0.
         13    1    3    3    0    0 -0.18221260507E+03 -0.18479654477E+03 -0.10569830032E+03  0.28022014042E+03  0.00000000000E+00 0. -1.
        -13    1    3    3    0    0 -0.15869300386E+03 -0.11572433659E+03 -0.16774874045E+03  0.25829291798E+03  0.00000000000E+00 0.  1.
         22    1    1    2    0    0  0.34090560893E+03  0.30052088136E+03 -0.13952108337E+03  0.47538991054E+03  0.00000000000E+00 0.  1.
<mgrwt>
<rscale>  0 0.92598950E+03</rscale>
<asrwt>0</asrwt>
<pdfrwt beam="1">  1        2 0.10975931E+00 0.92598950E+03</pdfrwt>
<pdfrwt beam="2">  1       -2 0.46225757E-01 0.92598950E+03</pdfrwt>
<totfact> 0.17777784E+02</totfact>
</mgrwt>
</event>
<event>
 6    1  0.1762360E-005  0.3692665E+04  0.7818608E-02  0.8069589E-01
          2   -1    0    0  501    0  0.00000000000E+00  0.00000000000E+00  0.13656046836E+04  0.13656046836E+04  0.00000000000E+00 0. -1.
         -2   -1    0    0    0  501 -0.00000000000E+00 -0.00000000000E+00 -0.24962893443E+04  0.24962893443E+04  0.00000000000E+00 0.  1.
         23    2    1    2    0    0  0.13093633625E+03 -0.99295663168E+03 -0.21864288548E+04  0.24066610568E+04  0.91864621211E+02 0.  0.
         13    1    3    3    0    0  0.12982021169E+03 -0.77414682700E+03 -0.16448771562E+04  0.18225744035E+04  0.00000000000E+00 0. -1.
        -13    1    3    3    0    0  0.11161245513E+01 -0.21880980469E+03 -0.54155169858E+03  0.58408665333E+03  0.00000000000E+00 0.  1.
         22    1    1    2    0    0 -0.13093633625E+03  0.99295663168E+03  0.10557441942E+04  0.14552329711E+04  0.00000000000E+00 0.  1.
<mgrwt>
<rscale>  0 0.36926654E+04</rscale>
<asrwt>0</asrwt>
<pdfrwt beam="1">  1        2 0.21009303E+00 0.36926654E+04</pdfrwt>
<pdfrwt beam="2">  1       -2 0.38404451E+00 0.36926654E+04</pdfrwt>
<totfact> 0.11540986E-01</totfact>
</mgrwt>
</event>
<event>
 6    1  0.1762360E-005  0.1278838E+04  0.7818608E-02  0.9046517E-01
          1   -1    0    0  501    0  0.00000000000E+00  0.00000000000E+00  0.87106101538E+03  0.87106101538E+03  0.00000000000E+00 0. -1.
         -1   -1    0    0    0  501 -0.00000000000E+00 -0.00000000000E+00 -0.46937784607E+03  0.46937784607E+03  0.00000000000E+00 0.  1.
         23    2    1    2    0    0 -0.15969050668E+03  0.36827252094E+03 -0.31551152404E+03  0.51855448042E+03  0.90694651222E+02 0.  0.
         11    1    3    3    0    0 -0.34378666048E+02  0.12164636946E+03 -0.52614843098E+02  0.13692353193E+03  0.00000000000E+00 0. -1.
        -11    1    3    3    0    0 -0.12531184063E+03  0.24662615148E+03 -0.26289668094E+03  0.38163094849E+03  0.00000000000E+00 0.  1.
         22    1    1    2    0    0  0.15969050668E+03 -0.36827252094E+03  0.71719469335E+03  0.82188438102E+03  0.00000000000E+00 0. -1.
<mgrwt>
<rscale>  0 0.12788381E+04</rscale>
<asrwt>0</asrwt>
<pdfrwt beam="1">  1        1 0.13400939E+00 0.12788381E+04</pdfrwt>
<pdfrwt beam="2">  1       -1 0.72211977E-01 0.12788381E+04</pdfrwt>
<totfact> 0.36621400E+01</totfact>
</mgrwt>
</event>
<event>
 6    1  0.1762360E-005  0.3592301E+04  0.7818608E-02  0.8092258E-01
          1   -1    0    0  501    0  0.00000000000E+00  0.00000000000E+00  0.35273789602E+04  0.35273789602E+04  0.00000000000E+00 0. -1.
         -1   -1    0    0    0  501 -0.00000000000E+00 -0.00000000000E+00 -0.91460445329E+03  0.91460445329E+03  0.00000000000E+00 0.  1.
         23    2    1    2    0    0  0.11206356000E+04 -0.12372661823E+04  0.21228729484E+04  0.27022549028E+04  0.94552899931E+02 0.  0.
         13    1    3    3    0    0  0.81502634229E+03 -0.87410286565E+03  0.15812414173E+04  0.19820817789E+04  0.00000000000E+00 0. -1.
        -13    1    3    3    0    0  0.30560925767E+03 -0.36316331670E+03  0.54163153108E+03  0.72017312393E+03  0.00000000000E+00 0.  1.
         22    1    1    2    0    0 -0.11206356000E+04  0.12372661823E+04  0.48990155855E+03  0.17397285107E+04  0.00000000000E+00 0.  1.
<mgrwt>
<rscale>  0 0.35923009E+04</rscale>
<asrwt>0</asrwt>
<pdfrwt beam="1">  1        1 0.54267368E+00 0.35923009E+04</pdfrwt>
<pdfrwt beam="2">  1       -1 0.14070838E+00 0.35923009E+04</pdfrwt>
<totfact> 0.79485304E-02</totfact>
</mgrwt>
</event>
<event>
 6    1  0.1762360E-005  0.3515661E+04  0.7818608E-02  0.8110089E-01
          2   -1    0    0  501    0  0.00000000000E+00  0.00000000000E+00  0.24088841079E+04  0.24088841079E+04  0.00000000000E+00 0. -1.
         -2   -1    0    0    0  501 -0.00000000000E+00 -0.00000000000E+00 -0.12827382062E+04  0.12827382062E+04  0.00000000000E+00 0.  1.
         23    2    1    2    0    0  0.13733847353E+04  0.10070518380E+04  0.11170825996E+03  0.17093451477E+04  0.95095020654E+02 0.  0.
         11    1    3    3    0    0  0.97671369066E+02  0.10195182746E+03  0.18485151312E+02  0.14239231818E+03  0.00000000000E+00 0.  1.
        -11    1    3    3    0    0  0.12757133662E+04  0.90510001056E+03  0.93223108653E+02  0.15669528295E+04  0.00000000000E+00 0. -1.
         22    1    1    2    0    0 -0.13733847353E+04 -0.10070518380E+04  0.10144376417E+04  0.19822771664E+04  0.00000000000E+00 0. -1.
<mgrwt>
<rscale>  0 0.35156608E+04</rscale>
<asrwt>0</asrwt>
<pdfrwt beam="1">  1        2 0.37059755E+00 0.35156608E+04</pdfrwt>
<pdfrwt beam="2">  1       -2 0.19734434E+00 0.35156608E+04</pdfrwt>
<totfact> 0.44647284E-01</totfact>
</mgrwt>
</event>
<event>
 6    1  0.1762360E-005  0.2381844E+04  0.7818608E-02  0.8446332E-01
          1   -1    0    0  501    0  0.00000000000E+00  0.00000000000E+00  0.88303024597E+03  0.88303024597E+03  0.00000000000E+00 0. -1.
         -1   -1    0    0    0  501 -0.00000000000E+00 -0.00000000000E+00 -0.16061686228E+04  0.16061686228E+04  0.00000000000E+00 0.  1.
         23    2    1    2    0    0 -0.53299938545E+03 -0.10535907705E+04 -0.21097827007E+03  0.12021674660E+04  0.80950165402E+02 0.  0.
         13    1    3    3    0    0 -0.35607366877E+03 -0.62355607694E+03 -0.14406534664E+03  0.73236975824E+03  0.00000000000E+00 0. -1.
        -13    1    3    3    0    0 -0.17692571667E+03 -0.43003469360E+03 -0.66912923433E+02  0.46979770779E+03  0.00000000000E+00 0.  1.
         22    1    1    2    0    0  0.53299938545E+03  0.10535907705E+04 -0.51216010672E+03  0.12870314027E+04  0.00000000000E+00 0.  1.
<mgrwt>
<rscale>  0 0.23818442E+04</rscale>
<asrwt>0</asrwt>
<pdfrwt beam="1">  1        1 0.13585081E+00 0.23818442E+04</pdfrwt>
<pdfrwt beam="2">  1       -1 0.24710286E+00 0.23818442E+04</pdfrwt>
<totfact> 0.12283594E+00</totfact>
</mgrwt>
</event>
<event>
 6    1  0.1762360E-005  0.1862330E+04  0.7818608E-02  0.8673838E-01
          2   -1    0    0  501    0  0.00000000000E+00  0.00000000000E+00  0.68142669588E+03  0.68142669588E+03  0.00000000000E+00 0. -1.
         -2   -1    0    0    0  501 -0.00000000000E+00 -0.00000000000E+00 -0.12724304540E+04  0.12724304540E+04  0.00000000000E+00 0.  1.
         23    2    1    2    0    0  0.21983355587E+03  0.44131943329E+03 -0.11223228087E+04  0.12290195350E+04  0.88266052422E+02 0.  0.
         13    1    3    3    0    0  0.14441806116E+03  0.20548858335E+03 -0.62164821892E+03  0.67046897196E+03  0.00000000000E+00 0. -1.
        -13    1    3    3    0    0  0.75415494712E+02  0.23583084994E+03 -0.50067458978E+03  0.55855056304E+03  0.00000000000E+00 0.  1.
         22    1    1    2    0    0 -0.21983355587E+03 -0.44131943329E+03  0.53131905055E+03  0.72483761490E+03  0.00000000000E+00 0. -1.
<mgrwt>
<rscale>  0 0.18623298E+04</rscale>
<asrwt>0</asrwt>
<pdfrwt beam="1">  1        2 0.10483488E+00 0.18623298E+04</pdfrwt>
<pdfrwt beam="2">  1       -2 0.19575853E+00 0.18623298E+04</pdfrwt>
<totfact> 0.56447111E+00</totfact>
</mgrwt>
</event>
<event>
 6    1  0.1762360E-005  0.3660943E+04  0.7818608E-02  0.8076673E-01
          1   -1    0    0  501    0  0.00000000000E+00  0.00000000000E+00  0.31896940975E+04  0.31896940975E+04  0.00000000000E+00 0. -1.
         -1   -1    0    0    0  501 -0.00000000000E+00 -0.00000000000E+00 -0.10504536288E+04  0.10504536288E+04  0.00000000000E+00 0.  1.
         23    2    1    2    0    0  0.17563360170E+04  0.45715007178E+03  0.80441054408E+03  0.19872666108E+04  0.91923153943E+02 0.  0.
         11    1    3    3    0    0  0.71395804554E+03  0.21125245561E+03  0.37150587651E+03  0.83209392924E+03  0.00000000000E+00 0.  1.
        -11    1    3    3    0    0  0.10423779715E+04  0.24589761618E+03  0.43290466757E+03  0.11551726816E+04  0.00000000000E+00 0. -1.
         22    1    1    2    0    0 -0.17563360170E+04 -0.45715007178E+03  0.13348299247E+04  0.22528811155E+04  0.00000000000E+00 0. -1.
<mgrwt>
<rscale>  0 0.36609429E+04</rscale>
<asrwt>0</asrwt>
<pdfrwt beam="1">  1        1 0.49072217E+00 0.36609429E+04</pdfrwt>
<pdfrwt beam="2">  1       -1 0.16160825E+00 0.36609429E+04</pdfrwt>
<totfact> 0.98879316E-02</totfact>
</mgrwt>
</event>
<event>
 6    1  0.1762360E-005  0.2373438E+04  0.7818608E-02  0.8449515E-01
         -2   -1    0    0    0  501 -0.00000000000E+00  0.00000000000E+00  0.10172654084E+04  0.10172654084E+04  0.00000000000E+00 0.  1.
          2   -1    0    0  501    0  0.00000000000E+00 -0.00000000000E+00 -0.13844002666E+04  0.13844002666E+04  0.00000000000E+00 0. -1.
         23    2    1    2    0    0 -0.88488416229E+03  0.78652153176E+03 -0.23539326054E+03  0.12104511900E+04  0.90255170030E+02 0.  0.
         13    1    3    3    0    0 -0.40950597883E+03  0.40919664671E+03 -0.14539592761E+03  0.59688945220E+03  0.00000000000E+00 0. -1.
        -13    1    3    3    0    0 -0.47537818346E+03  0.37732488505E+03 -0.89997332938E+02  0.61356173783E+03  0.00000000000E+00 0.  1.
         22    1    1    2    0    0  0.88488416229E+03 -0.78652153176E+03 -0.13174159769E+03  0.11912144850E+04  0.00000000000E+00 0. -1.
<mgrwt>
<rscale>  0 0.23734384E+04</rscale>
<asrwt>0</asrwt>
<pdfrwt beam="1">  1        2 0.21298466E+00 0.23734384E+04</pdfrwt>
<pdfrwt beam="2">  1       -2 0.15650237E+00 0.23734384E+04</pdfrwt>
<totfact> 0.35611721E+00</totfact>
</mgrwt>
</event>
<event>
 6    1  0.1762360E-005  0.2466890E+04  0.7818608E-02  0.8414877E-01
         -1   -1    0    0    0  501 -0.00000000000E+00  0.00000000000E+00  0.10506638416E+04  0.10506638416E+04  0.00000000000E+00 0.  1.
          1   -1    0    0  501    0  0.00000000000E+00 -0.00000000000E+00 -0.14480244523E+04  0.14480244523E+04  0.00000000000E+00 0. -1.
         23    2    1    2    0    0  0.37455857886E+03 -0.39590438361E+03  0.91992380373E+03  0.10731102923E+04  0.90947704073E+02 0.  0.
         13    1    3    3    0    0  0.28216917298E+03 -0.23661826272E+03  0.60121256645E+03  0.70502779696E+03  0.00000000000E+00 0.  1.
        -13    1    3    3    0    0  0.92389405884E+02 -0.15928612090E+03  0.31871123727E+03  0.36808249537E+03  0.00000000000E+00 0. -1.
         22    1    1    2    0    0 -0.37455857886E+03  0.39590438361E+03 -0.13172844145E+04  0.14255780016E+04  0.00000000000E+00 0. -1.
<mgrwt>
<rscale>  0 0.24668903E+04</rscale>
<asrwt>0</asrwt>
<pdfrwt beam="1">  1        1 0.22277299E+00 0.24668903E+04</pdfrwt>
<pdfrwt beam="2">  1       -1 0.16164059E+00 0.24668903E+04</pdfrwt>
<totfact> 0.17991944E+00</totfact>
</mgrwt>
</event>
<event>
 6    1  0.1762360E-005  0.1974673E+04  0.7818608E-02  0.8618554E-01
          3   -1    0    0  501    0  0.00000000000E+00  0.00000000000E+00  0.72018078507E+03  0.72018078507E+03  0.00000000000E+00 0. -1.
         -3   -1    0    0    0  501 -0.00000000000E+00 -0.00000000000E+00 -0.13535952484E+04  0.13535952484E+04  0.00000000000E+00 0.  1.
         23    2    1    2    0    0  0.11610498457E+03  0.28568539314E+03  0.66530830161E+03  0.73894371012E+03  0.91138132724E+02 0.  0.
         11    1    3    3    0    0  0.11735012627E+03  0.20415910346E+03  0.54400286663E+03  0.59278251540E+03  0.00000000000E+00 0. -1.
        -11    1    3    3    0    0 -0.12451416931E+01  0.81526289674E+02  0.12130543498E+03  0.14616119472E+03  0.00000000000E+00 0.  1.
         22    1    1    2    0    0 -0.11610498457E+03 -0.28568539314E+03 -0.12987227649E+04  0.13348323233E+04  0.00000000000E+00 0.  1.
<mgrwt>
<rscale>  0 0.19746729E+04</rscale>
<asrwt>0</asrwt>
<pdfrwt beam="1">  1        3 0.11079704E+00 0.19746729E+04</pdfrwt>
<pdfrwt beam="2">  1       -3 0.20824542E+00 0.19746729E+04</pdfrwt>
<totfact> 0.21707044E-01</totfact>
</mgrwt>
</event>
<event>
 6    1  0.2620111E-005  0.2766204E+04  0.7818608E-02  0.8313838E-01
         -1   -1    0    0    0  501 -0.00000000000E+00  0.00000000000E+00  0.12474965653E+04  0.12474965653E+04  0.00000000000E+00 0.  1.
          1   -1    0    0  501    0  0.00000000000E+00 -0.00000000000E+00 -0.15334477646E+04  0.15334477646E+04  0.00000000000E+00 0. -1.
         23    2    1    2    0    0 -0.50144655709E+03 -0.55789893459E+03 -0.13095312739E+04  0.15119226437E+04  0.91312935930E+02 0.  0.
         13    1    3    3    0    0 -0.18145804559E+03 -0.15052945863E+03 -0.36130762056E+03  0.43142709338E+03  0.00000000000E+00 0.  1.
        -13    1    3    3    0    0 -0.31998851149E+03 -0.40736947596E+03 -0.94822365335E+03  0.10804955503E+04  0.00000000000E+00 0. -1.
         22    1    1    2    0    0  0.50144655709E+03  0.55789893459E+03  0.10235800746E+04  0.12690216862E+04  0.00000000000E+00 0.  1.
<mgrwt>
<rscale>  0 0.27662038E+04</rscale>
<asrwt>0</asrwt>
<pdfrwt beam="1">  1        1 0.23591504E+00 0.27662038E+04</pdfrwt>
<pdfrwt beam="2">  1       -1 0.19192255E+00 0.27662038E+04</pdfrwt>
<totfact> 0.92242151E-01</totfact>
</mgrwt>
</event>
<event>
 6    1  0.1762360E-005  0.3810577E+04  0.7818608E-02  0.8043889E-01
         -1   -1    0    0    0  501 -0.00000000000E+00  0.00000000000E+00  0.13822656272E+04  0.13822656272E+04  0.00000000000E+00 0.  1.
          1   -1    0    0  501    0  0.00000000000E+00 -0.00000000000E+00 -0.26262135919E+04  0.26262135919E+04  0.00000000000E+00 0. -1.
         23    2    1    2    0    0 -0.48554709491E+02  0.65547105847E+03 -0.25023762040E+04  0.25887463211E+04  0.87869107697E+02 0.  0.
         13    1    3    3    0    0  0.12642943333E+01  0.80020014720E+02 -0.21032642156E+03  0.22503778528E+03  0.00000000000E+00 0. -1.
        -13    1    3    3    0    0 -0.49819003824E+02  0.57545104375E+03 -0.22920497825E+04  0.23637085358E+04  0.00000000000E+00 0.  1.
         22    1    1    2    0    0  0.48554709491E+02 -0.65547105847E+03  0.12584282393E+04  0.14197328980E+04  0.00000000000E+00 0.  1.
<mgrwt>
<rscale>  0 0.38105773E+04</rscale>
<asrwt>0</asrwt>
<pdfrwt beam="1">  1        1 0.40403285E+00 0.38105773E+04</pdfrwt>
<pdfrwt beam="2">  1       -1 0.21265625E+00 0.38105773E+04</pdfrwt>
<totfact> 0.10843009E-01</totfact>
</mgrwt>
</event>
<event>
 6    1  0.1762360E-005  0.1713979E+04  0.7818608E-02  0.8753432E-01
         -1   -1    0    0    0  501 -0.00000000000E+00  0.00000000000E+00  0.36587529206E+03  0.36587529206E+03  0.00000000000E+00 0.  1.
          1   -1    0    0  501    0  0.00000000000E+00 -0.00000000000E+00 -0.20073254098E+04  0.20073254098E+04  0.00000000000E+00 0. -1.
         23    2    1    2    0    0  0.12192052755E+03 -0.11540863561E+03 -0.19832355205E+04  0.19924106944E+04  0.91068529393E+02 0.  0.
         11    1    3    3    0    0  0.68902727066E+02 -0.10135401114E+02 -0.92885201562E+03  0.93145927397E+03  0.00000000000E+00 0. -1.
        -11    1    3    3    0    0  0.53017800484E+02 -0.10527323450E+03 -0.10543835049E+04  0.10609514204E+04  0.00000000000E+00 0.  1.
         22    1    1    2    0    0 -0.12192052755E+03  0.11540863561E+03  0.34178540280E+03  0.38079000746E+03  0.00000000000E+00 0.  1.
<mgrwt>
<rscale>  0 0.17139787E+04</rscale>
<asrwt>0</asrwt>
<pdfrwt beam="1">  1        1 0.30881929E+00 0.17139787E+04</pdfrwt>
<pdfrwt beam="2">  1       -1 0.56288507E-01 0.17139787E+04</pdfrwt>
<totfact> 0.89453509E+00</totfact>
</mgrwt>
</event>
<event>
 6    1  0.1762360E-005  0.2786938E+04  0.7818608E-02  0.8307335E-01
          1   -1    0    0  501    0  0.00000000000E+00  0.00000000000E+00  0.76591340054E+03  0.76591340054E+03  0.00000000000E+00 0. -1.
         -1   -1    0    0    0  501 -0.00000000000E+00 -0.00000000000E+00 -0.25352162546E+04  0.25352162546E+04  0.00000000000E+00 0.  1.
         23    2    1    2    0    0 -0.11514632925E+04  0.76248973405E+03 -0.68005736293E+03  0.15422339651E+04  0.93537574047E+02 0.  0.
         13    1    3    3    0    0 -0.50440502443E+03  0.28091502632E+03 -0.26932188428E+03  0.63708080965E+03  0.00000000000E+00 0. -1.
        -13    1    3    3    0    0 -0.64705826807E+03  0.48157470774E+03 -0.41073547865E+03  0.90515315546E+03  0.00000000000E+00 0.  1.
         22    1    1    2    0    0  0.11514632925E+04 -0.76248973405E+03 -0.10892454912E+04  0.17588956901E+04  0.00000000000E+00 0.  1.
<mgrwt>
<rscale>  0 0.27869382E+04</rscale>
<asrwt>0</asrwt>
<pdfrwt beam="1">  1        1 0.11783283E+00 0.27869382E+04</pdfrwt>
<pdfrwt beam="2">  1       -1 0.39003327E+00 0.27869382E+04</pdfrwt>
<totfact> 0.17175804E-01</totfact>
</mgrwt>
</event>
<event>
 6    1  0.1762360E-005  0.2586360E+04  0.7818608E-02  0.8372849E-01
          2   -1    0    0  501    0  0.00000000000E+00  0.00000000000E+00  0.11074259897E+04  0.11074259897E+04  0.00000000000E+00 0. -1.
         -2   -1    0    0    0  501 -0.00000000000E+00 -0.00000000000E+00 -0.15100910623E+04  0.15100910623E+04  0.00000000000E+00 0.  1.
         23    2    1    2    0    0 -0.92102302113E+03 -0.68925941386E+03 -0.79507667113E+03  0.14020546677E+04  0.10123454488E+03 0.  0.
         11    1    3    3    0    0 -0.34553868251E+03 -0.25807592910E+03 -0.23932726011E+03  0.49323189650E+03  0.00000000000E+00 0.  1.
        -11    1    3    3    0    0 -0.57548433862E+03 -0.43118348476E+03 -0.55574941102E+03  0.90882277115E+03  0.00000000000E+00 0. -1.
         22    1    1    2    0    0  0.92102302113E+03  0.68925941386E+03  0.39241159850E+03  0.12154623843E+04  0.00000000000E+00 0. -1.
<mgrwt>
<rscale>  0 0.25863597E+04</rscale>
<asrwt>0</asrwt>
<pdfrwt beam="1">  1        2 0.17037323E+00 0.25863597E+04</pdfrwt>
<pdfrwt beam="2">  1       -2 0.23232170E+00 0.25863597E+04</pdfrwt>
<totfact> 0.15783933E+00</totfact>
</mgrwt>
</event>
<event>
 6    1  0.1762360E-005  0.1138196E+04  0.7818608E-02  0.9168743E-01
         -1   -1    0    0    0  501 -0.00000000000E+00  0.00000000000E+00  0.32955768529E+03  0.32955768529E+03  0.00000000000E+00 0.  1.
          1   -1    0    0  501    0  0.00000000000E+00 -0.00000000000E+00 -0.98274941862E+03  0.98274941862E+03  0.00000000000E+00 0. -1.
         23    2    1    2    0    0 -0.50710040054E+03 -0.11465557847E+03 -0.58473164743E+03  0.78791841099E+03  0.92777179078E+02 0.  0.
         13    1    3    3    0    0 -0.42147104295E+03 -0.12344333519E+03 -0.45634615861E+03  0.63334659825E+03  0.00000000000E+00 0. -1.
        -13    1    3    3    0    0 -0.85629357594E+02  0.87877567147E+01 -0.12838548883E+03  0.15457181273E+03  0.00000000000E+00 0.  1.
         22    1    1    2    0    0  0.50710040054E+03  0.11465557847E+03 -0.68460085890E+02  0.52438869292E+03  0.00000000000E+00 0.  1.
<mgrwt>
<rscale>  0 0.11381962E+04</rscale>
<asrwt>0</asrwt>
<pdfrwt beam="1">  1        1 0.15119222E+00 0.11381962E+04</pdfrwt>
<pdfrwt beam="2">  1       -1 0.50701183E-01 0.11381962E+04</pdfrwt>
<totfact> 0.60628839E+01</totfact>
</mgrwt>
</event>
<event>
 6    1  0.1762360E-005  0.4936979E+04  0.7818608E-02  0.7838303E-01
         -2   -1    0    0    0  501 -0.00000000000E+00  0.00000000000E+00  0.16575416949E+04  0.16575416949E+04  0.00000000000E+00 0. -1.
          2   -1    0    0  501    0  0.00000000000E+00 -0.00000000000E+00 -0.36761920682E+04  0.36761920682E+04  0.00000000000E+00 0.  1.
         23    2    1    2    0    0  0.27134337090E+03 -0.23354092633E+04 -0.20050780628E+03  0.23616291138E+04  0.96566240614E+02 0.  0.
         13    1    3    3    0    0  0.20492209562E+03 -0.19437087819E+04 -0.19630450590E+03  0.19643147287E+04  0.00000000000E+00 0.  1.
        -13    1    3    3    0    0  0.66421275272E+02 -0.39170048140E+03 -0.42033003777E+01  0.39731438518E+03  0.00000000000E+00 0. -1.
         22    1    1    2    0    0 -0.27134337090E+03  0.23354092633E+04 -0.18181425670E+04  0.29721046493E+04  0.00000000000E+00 0.  1.
<mgrwt>
<rscale>  0 0.49369795E+04</rscale>
<asrwt>0</asrwt>
<pdfrwt beam="1">  1        2 0.56556800E+00 0.49369795E+04</pdfrwt>
<pdfrwt beam="2">  1       -2 0.25500642E+00 0.49369795E+04</pdfrwt>
<totfact> 0.26548141E-02</totfact>
</mgrwt>
</event>
<event>
 6    1  0.1762360E-005  0.3110269E+04  0.7818608E-02  0.8212925E-01
         -2   -1    0    0    0  501 -0.00000000000E+00  0.00000000000E+00  0.18634658304E+04  0.18634658304E+04  0.00000000000E+00 0.  1.
          2   -1    0    0  501    0  0.00000000000E+00 -0.00000000000E+00 -0.12978203004E+04  0.12978203004E+04  0.00000000000E+00 0. -1.
         23    2    1    2    0    0  0.87236427363E+03 -0.12848572420E+04  0.22376647047E+03  0.15710789589E+04  0.79624766783E+02 0.  0.
         13    1    3    3    0    0  0.54270119709E+03 -0.84867675116E+03  0.17128922304E+03  0.10218203439E+04  0.00000000000E+00 0. -1.
        -13    1    3    3    0    0  0.32966307654E+03 -0.43618049083E+03  0.52477247426E+02  0.54925861497E+03  0.00000000000E+00 0.  1.
         22    1    1    2    0    0 -0.87236427363E+03  0.12848572420E+04  0.34187905949E+03  0.15902071719E+04  0.00000000000E+00 0.  1.
<mgrwt>
<rscale>  0 0.31102693E+04</rscale>
<asrwt>0</asrwt>
<pdfrwt beam="1">  1        2 0.19966466E+00 0.31102693E+04</pdfrwt>
<pdfrwt beam="2">  1       -2 0.28668705E+00 0.31102693E+04</pdfrwt>
<totfact> 0.53914609E-01</totfact>
</mgrwt>
</event>
<event>
 6    1  0.1832503E-005  0.4319251E+04  0.7818608E-02  0.7943068E-01
         -2   -1    0    0    0  501 -0.00000000000E+00  0.00000000000E+00  0.19286426355E+04  0.19286426355E+04  0.00000000000E+00 0.  1.
          2   -1    0    0  501    0  0.00000000000E+00 -0.00000000000E+00 -0.24182713926E+04  0.24182713926E+04  0.00000000000E+00 0. -1.
         23    2    1    2    0    0  0.66919072936E+03  0.13192612209E+04 -0.18271353222E+04  0.23526246276E+04  0.90292589049E+02 0.  0.
         13    1    3    3    0    0  0.30749091095E+03  0.62484115548E+03 -0.79001911740E+03  0.10531416504E+04  0.00000000000E+00 0. -1.
        -13    1    3    3    0    0  0.36169981842E+03  0.69442006537E+03 -0.10371162048E+04  0.12994829772E+04  0.00000000000E+00 0.  1.
         22    1    1    2    0    0 -0.66919072936E+03 -0.13192612209E+04  0.13375065651E+04  0.19942894004E+04  0.00000000000E+00 0. -1.
<mgrwt>
<rscale>  0 0.43192505E+04</rscale>
<asrwt>0</asrwt>
<pdfrwt beam="1">  1        2 0.37204175E+00 0.43192505E+04</pdfrwt>
<pdfrwt beam="2">  1       -2 0.29671425E+00 0.43192505E+04</pdfrwt>
<totfact> 0.99325683E-02</totfact>
</mgrwt>
</event>
<event>
 6    1  0.1762360E-005  0.2023705E+04  0.7818608E-02  0.8595617E-01
         -2   -1    0    0    0  501 -0.00000000000E+00  0.00000000000E+00  0.35651088515E+03  0.35651088515E+03  0.00000000000E+00 0.  1.
          2   -1    0    0  501    0  0.00000000000E+00 -0.00000000000E+00 -0.28718502907E+04  0.28718502907E+04  0.00000000000E+00 0. -1.
         23    2    1    2    0    0 -0.33501727820E+02  0.20891578421E+03 -0.28353664329E+04  0.28447135916E+04  0.91238362474E+02 0.  0.
         13    1    3    3    0    0  0.18827304210E+02  0.10118354056E+03 -0.16818299148E+04  0.16849760944E+04  0.00000000000E+00 0. -1.
        -13    1    3    3    0    0 -0.52329032030E+02  0.10773224365E+03 -0.11535365181E+04  0.11597374972E+04  0.00000000000E+00 0.  1.
         22    1    1    2    0    0  0.33501727820E+02 -0.20891578421E+03  0.32002702735E+03  0.38364758424E+03  0.00000000000E+00 0.  1.
<mgrwt>
<rscale>  0 0.20237054E+04</rscale>
<asrwt>0</asrwt>
<pdfrwt beam="1">  1        2 0.44182310E+00 0.20237054E+04</pdfrwt>
<pdfrwt beam="2">  1       -2 0.54847832E-01 0.20237054E+04</pdfrwt>
<totfact> 0.60722831E+00</totfact>
</mgrwt>
</event>
<event>
 6    1  0.1762360E-005  0.3683278E+04  0.7818608E-02  0.8071678E-01
         -1   -1    0    0    0  501 -0.00000000000E+00  0.00000000000E+00  0.10805544618E+04  0.10805544618E+04  0.00000000000E+00 0.  1.
          1   -1    0    0  501    0  0.00000000000E+00 -0.00000000000E+00 -0.31387912956E+04  0.31387912956E+04  0.00000000000E+00 0. -1.
         23    2    1    2    0    0 -0.11320774230E+03  0.18023751460E+04 -0.14361398656E+04  0.23092732986E+04  0.94198165706E+02 0.  0.
         11    1    3    3    0    0 -0.10099654433E+03  0.14535956596E+04 -0.11116253248E+04  0.18327169739E+04  0.00000000000E+00 0. -1.
        -11    1    3    3    0    0 -0.12211197970E+02  0.34877948639E+03 -0.32451454080E+03  0.47655632476E+03  0.00000000000E+00 0.  1.
         22    1    1    2    0    0  0.11320774230E+03 -0.18023751460E+04 -0.62209696822E+03  0.19100724587E+04  0.00000000000E+00 0.  1.
<mgrwt>
<rscale>  0 0.36832784E+04</rscale>
<asrwt>0</asrwt>
<pdfrwt beam="1">  1        1 0.48289095E+00 0.36832784E+04</pdfrwt>
<pdfrwt beam="2">  1       -1 0.16623915E+00 0.36832784E+04</pdfrwt>
<totfact> 0.99461470E-02</totfact>
</mgrwt>
</event>
<event>
 6    1  0.1762360E-005  0.2291727E+04  0.7818608E-02  0.8481190E-01
          2   -1    0    0  501    0  0.00000000000E+00  0.00000000000E+00  0.11089806547E+04  0.11089806547E+04  0.00000000000E+00 0.  1.
         -2   -1    0    0    0  501 -0.00000000000E+00 -0.00000000000E+00 -0.11839726957E+04  0.11839726957E+04  0.00000000000E+00 0. -1.
         23    2    1    2    0    0 -0.23922901353E+03  0.22610318144E+03  0.10588595238E+04  0.11122872077E+04  0.87442390584E+02 0.  0.
         13    1    3    3    0    0 -0.69494994299E+02  0.39666369082E+02  0.37470212873E+03  0.38315096287E+03  0.00000000000E+00 0.  1.
        -13    1    3    3    0    0 -0.16973401923E+03  0.18643681236E+03  0.68415739509E+03  0.72913624484E+03  0.00000000000E+00 0. -1.
         22    1    1    2    0    0  0.23922901353E+03 -0.22610318144E+03 -0.11338515648E+04  0.11806661428E+04  0.00000000000E+00 0. -1.
<mgrwt>
<rscale>  0 0.22917267E+04</rscale>
<asrwt>0</asrwt>
<pdfrwt beam="1">  1        2 0.17061241E+00 0.22917267E+04</pdfrwt>
<pdfrwt beam="2">  1       -2 0.18214965E+00 0.22917267E+04</pdfrwt>
<totfact> 0.34195239E+00</totfact>
</mgrwt>
</event>
<event>
 6    1  0.1762360E-005  0.2872017E+04  0.7818608E-02  0.8281252E-01
         -2   -1    0    0    0  501 -0.00000000000E+00  0.00000000000E+00  0.80094957050E+03  0.80094957050E+03  0.00000000000E+00 0.  1.
          2   -1    0    0  501    0  0.00000000000E+00 -0.00000000000E+00 -0.25745945073E+04  0.25745945073E+04  0.00000000000E+00 0. -1.
         23    2    1    2    0    0 -0.42458995515E+03  0.55901377111E+03  0.58270989160E+03  0.91684907768E+03  0.91040579746E+02 0.  0.
         13    1    3    3    0    0 -0.25417111477E+03  0.37692626742E+03  0.32970395447E+03  0.56158798442E+03  0.00000000000E+00 0. -1.
        -13    1    3    3    0    0 -0.17041884038E+03  0.18208750370E+03  0.25300593713E+03  0.35526109326E+03  0.00000000000E+00 0.  1.
         22    1    1    2    0    0  0.42458995515E+03 -0.55901377111E+03 -0.23563548284E+04  0.24586950001E+04  0.00000000000E+00 0. -1.
<mgrwt>
<rscale>  0 0.28720170E+04</rscale>
<asrwt>0</asrwt>
<pdfrwt beam="1">  1        2 0.39609147E+00 0.28720170E+04</pdfrwt>
<pdfrwt beam="2">  1       -2 0.12322301E+00 0.28720170E+04</pdfrwt>
<totfact> 0.13537116E+00</totfact>
</mgrwt>
</event>
<event>
 6    1  0.1762360E-005  0.1624525E+04  0.7818608E-02  0.8805621E-01
         -2   -1    0    0    0  501 -0.00000000000E+00  0.00000000000E+00  0.44438299906E+03  0.44438299906E+03  0.00000000000E+00 0.  1.
          2   -1    0    0  501    0  0.00000000000E+00 -0.00000000000E+00 -0.14846884356E+04  0.14846884356E+04  0.00000000000E+00 0. -1.
         23    2    1    2    0    0 -0.50587577383E+03 -0.34939530634E+03 -0.11470839474E+04  0.13050609948E+04  0.96929041211E+02 0.  0.
         11    1    3    3    0    0 -0.11270145753E+03 -0.12047565848E+03 -0.35872330783E+03  0.39483973254E+03  0.00000000000E+00 0.  1.
        -11    1    3    3    0    0 -0.39317431629E+03 -0.22891964787E+03 -0.78836063959E+03  0.91022126224E+03  0.00000000000E+00 0. -1.
         22    1    1    2    0    0  0.50587577383E+03  0.34939530634E+03  0.10677851091E+03  0.62401043984E+03  0.00000000000E+00 0.  1.
<mgrwt>
<rscale>  0 0.16245249E+04</rscale>
<asrwt>0</asrwt>
<pdfrwt beam="1">  1        2 0.22841361E+00 0.16245249E+04</pdfrwt>
<pdfrwt beam="2">  1       -2 0.68366615E-01 0.16245249E+04</pdfrwt>
<totfact> 0.24256145E+01</totfact>
</mgrwt>
</event>
<event>
 6    1  0.1762360E-005  0.2660486E+04  0.7818608E-02  0.8347941E-01
         -2   -1    0    0    0  501 -0.00000000000E+00  0.00000000000E+00  0.64178128415E+03  0.64178128415E+03  0.00000000000E+00 0.  1.
          2   -1    0    0  501    0  0.00000000000E+00 -0.00000000000E+00 -0.27572422060E+04  0.27572422060E+04  0.00000000000E+00 0. -1.
         23    2    1    2    0    0 -0.10014347359E+04 -0.13167220987E+03 -0.21616074087E+04  0.23879158800E+04  0.96884258006E+02 0.  0.
         13    1    3    3    0    0 -0.39581959181E+03 -0.45855744660E+01 -0.83325818303E+03  0.92250386251E+03  0.00000000000E+00 0.  1.
        -13    1    3    3    0    0 -0.60561514409E+03 -0.12708663541E+03 -0.13283492257E+04  0.14654120175E+04  0.00000000000E+00 0. -1.
         22    1    1    2    0    0  0.10014347359E+04  0.13167220987E+03  0.46146486813E+02  0.10111076102E+04  0.00000000000E+00 0.  1.
<mgrwt>
<rscale>  0 0.26604860E+04</rscale>
<asrwt>0</asrwt>
<pdfrwt beam="1">  1        2 0.42419112E+00 0.26604860E+04</pdfrwt>
<pdfrwt beam="2">  1       -2 0.98735581E-01 0.26604860E+04</pdfrwt>
<totfact> 0.18380857E+00</totfact>
</mgrwt>
</event>
<event>
 6    1  0.1762360E-005  0.1554467E+04  0.7818608E-02  0.8849020E-01
         -1   -1    0    0    0  501 -0.00000000000E+00  0.00000000000E+00  0.34669497897E+03  0.34669497897E+03  0.00000000000E+00 0.  1.
          1   -1    0    0  501    0  0.00000000000E+00 -0.00000000000E+00 -0.17424305174E+04  0.17424305174E+04  0.00000000000E+00 0. -1.
         23    2    1    2    0    0 -0.16648105782E+03  0.56601940215E+03 -0.13738991672E+04  0.14987267046E+04  0.10241536681E+03 0.  0.
         11    1    3    3    0    0 -0.12852024364E+03  0.49889862809E+03 -0.12592100732E+04  0.13605246424E+04  0.00000000000E+00 0. -1.
        -11    1    3    3    0    0 -0.37960814184E+02  0.67120774067E+02 -0.11468909394E+03  0.13820206219E+03  0.00000000000E+00 0.  1.
         22    1    1    2    0    0  0.16648105782E+03 -0.56601940215E+03 -0.21836371291E+02  0.59039879179E+03  0.00000000000E+00 0.  1.
<mgrwt>
<rscale>  0 0.15544670E+04</rscale>
<asrwt>0</asrwt>
<pdfrwt beam="1">  1        1 0.26806623E+00 0.15544670E+04</pdfrwt>
<pdfrwt beam="2">  1       -1 0.53337690E-01 0.15544670E+04</pdfrwt>
<totfact> 0.15227409E+01</totfact>
</mgrwt>
</event>
<event>
 6    1  0.1762360E-005  0.2425835E+04  0.7818608E-02  0.8429894E-01
          2   -1    0    0  501    0  0.00000000000E+00  0.00000000000E+00  0.94848048849E+03  0.94848048849E+03  0.00000000000E+00 0. -1.
         -2   -1    0    0    0  501 -0.00000000000E+00 -0.00000000000E+00 -0.15510793257E+04  0.15510793257E+04  0.00000000000E+00 0.  1.
         23    2    1    2    0    0  0.35324233427E+03 -0.29620726701E+03  0.85232539974E+03  0.97334769689E+03  0.91805556704E+02 0.  0.
         13    1    3    3    0    0  0.20466251585E+03 -0.19316520763E+03  0.42955091916E+03  0.51353046159E+03  0.00000000000E+00 0.  1.
        -13    1    3    3    0    0  0.14857981842E+03 -0.10304205938E+03  0.42277448058E+03  0.45981723530E+03  0.00000000000E+00 0. -1.
         22    1    1    2    0    0 -0.35324233427E+03  0.29620726701E+03 -0.14549242369E+04  0.15262121173E+04  0.00000000000E+00 0.  1.
<mgrwt>
<rscale>  0 0.24258347E+04</rscale>
<asrwt>0</asrwt>
<pdfrwt beam="1">  1        2 0.14592008E+00 0.24258347E+04</pdfrwt>
<pdfrwt beam="2">  1       -2 0.23862759E+00 0.24258347E+04</pdfrwt>
<totfact> 0.18442851E+00</totfact>
</mgrwt>
</event>
<event>
 6    1  0.1762360E-005  0.2168368E+04  0.7818608E-02  0.8531710E-01
          1   -1    0    0  501    0  0.00000000000E+00  0.00000000000E+00  0.14583655092E+04  0.14583655092E+04  0.00000000000E+00 0. -1.
         -1   -1    0    0    0  501 -0.00000000000E+00 -0.00000000000E+00 -0.80600859111E+03  0.80600859111E+03  0.00000000000E+00 0.  1.
         23    2    1    2    0    0 -0.49142490703E+03  0.85711713306E+03  0.78765265893E+03  0.12671513787E+04  0.95538926028E+02 0.  0.
         13    1    3    3    0    0 -0.77874686800E+02  0.16824752519E+03  0.10650707830E+03  0.21381172630E+03  0.00000000000E+00 0.  1.
        -13    1    3    3    0    0 -0.41355022023E+03  0.68886960787E+03  0.68114558063E+03  0.10533396524E+04  0.00000000000E+00 0. -1.
         22    1    1    2    0    0  0.49142490703E+03 -0.85711713306E+03 -0.13529574084E+03  0.99722272162E+03  0.00000000000E+00 0.  1.
<mgrwt>
<rscale>  0 0.21683682E+04</rscale>
<asrwt>0</asrwt>
<pdfrwt beam="1">  1        1 0.22436392E+00 0.21683682E+04</pdfrwt>
<pdfrwt beam="2">  1       -1 0.12400132E+00 0.21683682E+04</pdfrwt>
<totfact> 0.36499523E+00</totfact>
</mgrwt>
</event>
<event>
 6    1  0.1762360E-005  0.1667459E+04  0.7818608E-02  0.8780145E-01
         -1   -1    0    0    0  501 -0.00000000000E+00  0.00000000000E+00  0.94627999022E+03  0.94627999022E+03  0.00000000000E+00 0.  1.
          1   -1    0    0  501    0  0.00000000000E+00 -0.00000000000E+00 -0.73456538011E+03  0.73456538011E+03  0.00000000000E+00 0. -1.
         23    2    1    2    0    0 -0.56592196121E+03  0.10266063033E+03 -0.49847511646E+03  0.76696555388E+03  0.94614205615E+02 0.  0.
         11    1    3    3    0    0 -0.14624678034E+03  0.62799919037E+02 -0.10797224050E+03  0.19232772891E+03  0.00000000000E+00 0. -1.
        -11    1    3    3    0    0 -0.41967518087E+03  0.39860711288E+02 -0.39050287597E+03  0.57463782497E+03  0.00000000000E+00 0.  1.
         22    1    1    2    0    0  0.56592196121E+03 -0.10266063033E+03  0.71018972657E+03  0.91387981646E+03  0.00000000000E+00 0.  1.
<mgrwt>
<rscale>  0 0.16674586E+04</rscale>
<asrwt>0</asrwt>
<pdfrwt beam="1">  1        1 0.11301006E+00 0.16674586E+04</pdfrwt>
<pdfrwt beam="2">  1       -1 0.14558154E+00 0.16674586E+04</pdfrwt>
<totfact> 0.91266745E+00</totfact>
</mgrwt>
</event>
<event>
 6    1  0.1762360E-005  0.4033214E+04  0.7818608E-02  0.7997880E-01
          2   -1    0    0  501    0  0.00000000000E+00  0.00000000000E+00  0.31798877248E+04  0.31798877248E+04  0.00000000000E+00 0. -1.
         -2   -1    0    0    0  501 -0.00000000000E+00 -0.00000000000E+00 -0.12788825744E+04  0.12788825744E+04  0.00000000000E+00 0.  1.
         23    2    1    2    0    0  0.14552465738E+03 -0.16328781822E+04  0.22473639886E+04  0.27832306761E+04  0.90881876266E+02 0.  0.
         11    1    3    3    0    0  0.49867286027E+02 -0.21793934289E+03  0.29430075561E+03  0.36959063590E+03  0.00000000000E+00 0. -1.
        -11    1    3    3    0    0  0.95657371350E+02 -0.14149388393E+04  0.19530632330E+04  0.24136400402E+04  0.00000000000E+00 0.  1.
         22    1    1    2    0    0 -0.14552465738E+03  0.16328781822E+04 -0.34635883823E+03  0.16755396231E+04  0.00000000000E+00 0.  1.
<mgrwt>
<rscale>  0 0.40332136E+04</rscale>
<asrwt>0</asrwt>
<pdfrwt beam="1">  1        2 0.48921349E+00 0.40332136E+04</pdfrwt>
<pdfrwt beam="2">  1       -2 0.19675117E+00 0.40332136E+04</pdfrwt>
<totfact> 0.14678609E-01</totfact>
</mgrwt>
</event>
<event>
 6    1  0.1762360E-005  0.3670668E+04  0.7818608E-02  0.8074493E-01
          1   -1    0    0  501    0  0.00000000000E+00  0.00000000000E+00  0.16238579060E+04  0.16238579060E+04  0.00000000000E+00 0. -1.
         -1   -1    0    0    0  501 -0.00000000000E+00 -0.00000000000E+00 -0.20743510269E+04  0.20743510269E+04  0.00000000000E+00 0.  1.
         23    2    1    2    0    0 -0.15238949165E+04  0.65625863659E+03  0.56233145176E+03  0.17543095708E+04  0.91947234252E+02 0.  0.
         13    1    3    3    0    0 -0.67937089525E+03  0.30666032339E+03  0.29898096360E+03  0.80310334568E+03  0.00000000000E+00 0. -1.
        -13    1    3    3    0    0 -0.84452402129E+03  0.34959831321E+03  0.26335048816E+03  0.95120622514E+03  0.00000000000E+00 0.  1.
         22    1    1    2    0    0  0.15238949165E+04 -0.65625863659E+03 -0.10128245727E+04  0.19438993621E+04  0.00000000000E+00 0. -1.
<mgrwt>
<rscale>  0 0.36706682E+04</rscale>
<asrwt>0</asrwt>
<pdfrwt beam="1">  1        1 0.24982429E+00 0.36706682E+04</pdfrwt>
<pdfrwt beam="2">  1       -1 0.31913093E+00 0.36706682E+04</pdfrwt>
<totfact> 0.10714772E-01</totfact>
</mgrwt>
</event>
<event>
 6    1  0.1762360E-005  0.1481605E+04  0.7818608E-02  0.8896778E-01
          1   -1    0    0  501    0  0.00000000000E+00  0.00000000000E+00  0.41738892828E+03  0.41738892828E+03  0.00000000000E+00 0. -1.
         -1   -1    0    0    0  501 -0.00000000000E+00 -0.00000000000E+00 -0.13148130736E+04  0.13148130736E+04  0.00000000000E+00 0.  1.
         23    2    1    2    0    0 -0.55224499464E+03 -0.48722856921E+03 -0.50538030529E+03  0.89789715037E+03  0.91890298255E+02 0.  0.
         13    1    3    3    0    0 -0.23595196528E+03 -0.26699491797E+03 -0.22738513537E+03  0.42268619084E+03  0.00000000000E+00 0.  1.
        -13    1    3    3    0    0 -0.31629302936E+03 -0.22023365125E+03 -0.27799516993E+03  0.47521095954E+03  0.00000000000E+00 0. -1.
         22    1    1    2    0    0  0.55224499464E+03  0.48722856921E+03 -0.39204384004E+03  0.83430485152E+03  0.00000000000E+00 0.  1.
<mgrwt>
<rscale>  0 0.14816051E+04</rscale>
<asrwt>0</asrwt>
<pdfrwt beam="1">  1        1 0.64213682E-01 0.14816051E+04</pdfrwt>
<pdfrwt beam="2">  1       -1 0.20227893E+00 0.14816051E+04</pdfrwt>
<totfact> 0.79690350E+00</totfact>
</mgrwt>
</event>
<event>
 6    1  0.1762360E-005  0.3982165E+04  0.7818608E-02  0.8008154E-01
         -2   -1    0    0    0  501 -0.00000000000E+00  0.00000000000E+00  0.44955209233E+04  0.44955209233E+04  0.00000000000E+00 0. -1.
          2   -1    0    0  501    0  0.00000000000E+00 -0.00000000000E+00 -0.88185780629E+03  0.88185780629E+03  0.00000000000E+00 0.  1.
         23    2    1    2    0    0  0.10602010203E+04  0.10210161752E+04 -0.53477792218E+00  0.14749529895E+04  0.94793467765E+02 0.  0.
         13    1    3    3    0    0  0.53078879716E+03  0.55094599349E+03  0.37435422043E+02  0.76595015879E+03  0.00000000000E+00 0.  1.
        -13    1    3    3    0    0  0.52941222316E+03  0.47007018174E+03 -0.37970199965E+02  0.70900283066E+03  0.00000000000E+00 0. -1.
         22    1    1    2    0    0 -0.10602010203E+04 -0.10210161752E+04  0.36141978950E+04  0.39024257402E+04  0.00000000000E+00 0. -1.
<mgrwt>
<rscale>  0 0.39821654E+04</rscale>
<asrwt>0</asrwt>
<pdfrwt beam="1">  1        2 0.13567043E+00 0.39821654E+04</pdfrwt>
<pdfrwt beam="2">  1       -2 0.69161859E+00 0.39821654E+04</pdfrwt>
<totfact> 0.57986338E-03</totfact>
</mgrwt>
</event>
<event>
 6    1  0.1762360E-005  0.2091348E+04  0.7818608E-02  0.8565064E-01
         -2   -1    0    0    0  501 -0.00000000000E+00  0.00000000000E+00  0.15282115251E+04  0.15282115251E+04  0.00000000000E+00 0.  1.
          2   -1    0    0  501    0  0.00000000000E+00 -0.00000000000E+00 -0.71549892595E+03  0.71549892595E+03  0.00000000000E+00 0. -1.
         23    2    1    2    0    0  0.21824363513E+03  0.99510517732E+03  0.16408003042E+03  0.10359899505E+04  0.92132095011E+02 0.  0.
         13    1    3    3    0    0  0.17682892325E+03  0.69244008466E+03  0.79875509731E+02  0.71911183830E+03  0.00000000000E+00 0. -1.
        -13    1    3    3    0    0  0.41414711878E+02  0.30266509267E+03  0.84204520690E+02  0.31687811219E+03  0.00000000000E+00 0.  1.
         22    1    1    2    0    0 -0.21824363513E+03 -0.99510517732E+03  0.64863256868E+03  0.12077205005E+04  0.00000000000E+00 0.  1.
<mgrwt>
<rscale>  0 0.20913476E+04</rscale>
<asrwt>0</asrwt>
<pdfrwt beam="1">  1        2 0.11007676E+00 0.20913476E+04</pdfrwt>
<pdfrwt beam="2">  1       -2 0.23510946E+00 0.20913476E+04</pdfrwt>
<totfact> 0.29181182E+00</totfact>
</mgrwt>
</event>
<event>
 6    1  0.1762360E-005  0.2431490E+04  0.7818608E-02  0.8427808E-01
          1   -1    0    0  501    0  0.00000000000E+00  0.00000000000E+00  0.16661390278E+04  0.16661390278E+04  0.00000000000E+00 0. -1.
         -1   -1    0    0    0  501 -0.00000000000E+00 -0.00000000000E+00 -0.88710219280E+03  0.88710219280E+03  0.00000000000E+00 0.  1.
         23    2    1    2    0    0 -0.16399998332E+02  0.41118272783E+03  0.15894030015E+04  0.16443773587E+04  0.91841172644E+02 0.  0.
         13    1    3    3    0    0 -0.36414769510E+02  0.33709007712E+03  0.13889668406E+04  0.14297498522E+04  0.00000000000E+00 0. -1.
        -13    1    3    3    0    0  0.20014771178E+02  0.74092650708E+02  0.20043616093E+03  0.21462750654E+03  0.00000000000E+00 0.  1.
         22    1    1    2    0    0  0.16399998332E+02 -0.41118272783E+03 -0.81036616652E+03  0.90886386189E+03  0.00000000000E+00 0.  1.
<mgrwt>
<rscale>  0 0.24314897E+04</rscale>
<asrwt>0</asrwt>
<pdfrwt beam="1">  1        1 0.25632908E+00 0.24314897E+04</pdfrwt>
<pdfrwt beam="2">  1       -1 0.13647726E+00 0.24314897E+04</pdfrwt>
<totfact> 0.20122002E+00</totfact>
</mgrwt>
</event>
<event>
 6    1  0.1762360E-005  0.1564485E+04  0.7818608E-02  0.8842668E-01
          1   -1    0    0  501    0  0.00000000000E+00  0.00000000000E+00  0.24533443222E+04  0.24533443222E+04  0.00000000000E+00 0. -1.
         -1   -1    0    0    0  501 -0.00000000000E+00 -0.00000000000E+00 -0.24941599015E+03  0.24941599015E+03  0.00000000000E+00 0.  1.
         23    2    1    2    0    0  0.14878176669E+03  0.28574293203E+03  0.23321255531E+04  0.23560333811E+04  0.91096983475E+02 0.  0.
         11    1    3    3    0    0  0.87675648500E+02  0.18328491479E+03  0.11409689641E+04  0.11589178384E+04  0.00000000000E+00 0.  1.
        -11    1    3    3    0    0  0.61106118192E+02  0.10245801724E+03  0.11911565890E+04  0.11971155427E+04  0.00000000000E+00 0. -1.
         22    1    1    2    0    0 -0.14878176669E+03 -0.28574293203E+03 -0.12819722108E+03  0.34672693117E+03  0.00000000000E+00 0.  1.
<mgrwt>
<rscale>  0 0.15644850E+04</rscale>
<asrwt>0</asrwt>
<pdfrwt beam="1">  1        1 0.37743757E+00 0.15644850E+04</pdfrwt>
<pdfrwt beam="2">  1       -1 0.38371693E-01 0.15644850E+04</pdfrwt>
<totfact> 0.92477083E+00</totfact>
</mgrwt>
</event>
<event>
 6    1  0.1762360E-005  0.2073469E+04  0.7818608E-02  0.8573021E-01
         -2   -1    0    0    0  501 -0.00000000000E+00  0.00000000000E+00  0.34750435117E+03  0.34750435117E+03  0.00000000000E+00 0.  1.
          2   -1    0    0  501    0  0.00000000000E+00 -0.00000000000E+00 -0.30929642696E+04  0.30929642696E+04  0.00000000000E+00 0. -1.
         23    2    1    2    0    0  0.28723106722E+03  0.85786591706E+03 -0.22088487670E+04  0.23886192278E+04  0.89740305279E+02 0.  0.
         13    1    3    3    0    0  0.11533150171E+03  0.21885388453E+03 -0.59889967305E+03  0.64798086117E+03  0.00000000000E+00 0. -1.
        -13    1    3    3    0    0  0.17189956551E+03  0.63901203252E+03 -0.16099490940E+04  0.17406383667E+04  0.00000000000E+00 0.  1.
         22    1    1    2    0    0 -0.28723106722E+03 -0.85786591706E+03 -0.53661115143E+03  0.10518493930E+04  0.00000000000E+00 0.  1.
<mgrwt>
<rscale>  0 0.20734691E+04</rscale>
<asrwt>0</asrwt>
<pdfrwt beam="1">  1        2 0.47584065E+00 0.20734691E+04</pdfrwt>
<pdfrwt beam="2">  1       -2 0.53462209E-01 0.20734691E+04</pdfrwt>
<totfact> 0.46415368E+00</totfact>
</mgrwt>
</event>
<event>
 6    1  0.1762360E-005  0.1787385E+04  0.7818608E-02  0.8713037E-01
         -2   -1    0    0    0  501 -0.00000000000E+00  0.00000000000E+00  0.83150367171E+03  0.83150367171E+03  0.00000000000E+00 0.  1.
          2   -1    0    0  501    0  0.00000000000E+00 -0.00000000000E+00 -0.96053199588E+03  0.96053199588E+03  0.00000000000E+00 0. -1.
         23    2    1    2    0    0  0.12013769860E+03 -0.78899362464E+03 -0.46256501483E+03  0.92705547684E+03  0.92311742696E+02 0.  0.
         11    1    3    3    0    0  0.86085146853E+02 -0.44111314359E+03 -0.21164262512E+03  0.49677364939E+03  0.00000000000E+00 0.  1.
        -11    1    3    3    0    0  0.34052551749E+02 -0.34788048105E+03 -0.25092238971E+03  0.43028182745E+03  0.00000000000E+00 0. -1.
         22    1    1    2    0    0 -0.12013769860E+03  0.78899362464E+03  0.33353669066E+03  0.86498019074E+03  0.00000000000E+00 0.  1.
<mgrwt>
<rscale>  0 0.17873845E+04</rscale>
<asrwt>0</asrwt>
<pdfrwt beam="1">  1        2 0.14777415E+00 0.17873845E+04</pdfrwt>
<pdfrwt beam="2">  1       -2 0.12792364E+00 0.17873845E+04</pdfrwt>
<totfact> 0.11422400E+01</totfact>
</mgrwt>
</event>
<event>
 6    1  0.1762360E-005  0.3049760E+04  0.7818608E-02  0.8229663E-01
          2   -1    0    0  501    0  0.00000000000E+00  0.00000000000E+00  0.17471870066E+04  0.17471870066E+04  0.00000000000E+00 0. -1.
         -2   -1    0    0    0  501 -0.00000000000E+00 -0.00000000000E+00 -0.13308591233E+04  0.13308591233E+04  0.00000000000E+00 0.  1.
         23    2    1    2    0    0 -0.11456893645E+04 -0.70464681631E+03  0.93038631438E+03  0.16381199768E+04  0.93204660595E+02 0.  0.
         13    1    3    3    0    0 -0.14463452507E+03 -0.73764469183E+02  0.80185472117E+02  0.18108023828E+03  0.00000000000E+00 0. -1.
        -13    1    3    3    0    0 -0.10010548394E+04 -0.63088234712E+03  0.85020084226E+03  0.14570397385E+04  0.00000000000E+00 0.  1.
         22    1    1    2    0    0  0.11456893645E+04  0.70464681631E+03 -0.51405843103E+03  0.14399261530E+04  0.00000000000E+00 0.  1.
<mgrwt>
<rscale>  0 0.30497605E+04</rscale>
<asrwt>0</asrwt>
<pdfrwt beam="1">  1        2 0.26879800E+00 0.30497605E+04</pdfrwt>
<pdfrwt beam="2">  1       -2 0.20474756E+00 0.30497605E+04</pdfrwt>
<totfact> 0.97466648E-01</totfact>
</mgrwt>
</event>
<event>
 6    1  0.1762360E-005  0.2550280E+04  0.7818608E-02  0.8385289E-01
         -2   -1    0    0    0  501 -0.00000000000E+00  0.00000000000E+00  0.51970004689E+03  0.51970004689E+03  0.00000000000E+00 0.  1.
          2   -1    0    0  501    0  0.00000000000E+00 -0.00000000000E+00 -0.31286920881E+04  0.31286920881E+04  0.00000000000E+00 0. -1.
         23    2    1    2    0    0 -0.42598189828E+02  0.51065729611E+03 -0.29740423241E+04  0.30192282543E+04  0.90697443377E+02 0.  0.
         11    1    3    3    0    0  0.24293639928E+02  0.24621909594E+03 -0.14577830125E+04  0.14786295465E+04  0.00000000000E+00 0.  1.
        -11    1    3    3    0    0 -0.66891829755E+02  0.26443820017E+03 -0.15162593115E+04  0.15405987078E+04  0.00000000000E+00 0. -1.
         22    1    1    2    0    0  0.42598189828E+02 -0.51065729611E+03  0.36505028282E+03  0.62916388074E+03  0.00000000000E+00 0.  1.
<mgrwt>
<rscale>  0 0.25502795E+04</rscale>
<asrwt>0</asrwt>
<pdfrwt beam="1">  1        2 0.48133725E+00 0.25502795E+04</pdfrwt>
<pdfrwt beam="2">  1       -2 0.79953852E-01 0.25502795E+04</pdfrwt>
<totfact> 0.17735726E+00</totfact>
</mgrwt>
</event>
<event>
 6    1  0.1762360E-005  0.1812910E+04  0.7818608E-02  0.8699464E-01
         -2   -1    0    0    0  501 -0.00000000000E+00  0.00000000000E+00  0.73480086813E+03  0.73480086813E+03  0.00000000000E+00 0.  1.
          2   -1    0    0  501    0  0.00000000000E+00 -0.00000000000E+00 -0.11182091584E+04  0.11182091584E+04  0.00000000000E+00 0. -1.
         23    2    1    2    0    0 -0.76420120160E+03  0.16256377656E+03  0.27363389736E+03  0.83215994236E+03  0.84759671464E+02 0.  0.
         13    1    3    3    0    0 -0.63814636449E+03  0.10552454618E+03  0.23876604660E+03  0.68947475470E+03  0.00000000000E+00 0.  1.
        -13    1    3    3    0    0 -0.12605483711E+03  0.57039230382E+02  0.34867850766E+02  0.14268518767E+03  0.00000000000E+00 0. -1.
         22    1    1    2    0    0  0.76420120160E+03 -0.16256377656E+03 -0.65704218760E+03  0.10208500841E+04  0.00000000000E+00 0. -1.
<mgrwt>
<rscale>  0 0.18129104E+04</rscale>
<asrwt>0</asrwt>
<pdfrwt beam="1">  1        2 0.17203218E+00 0.18129104E+04</pdfrwt>
<pdfrwt beam="2">  1       -2 0.11304629E+00 0.18129104E+04</pdfrwt>
<totfact> 0.12312253E+01</totfact>
</mgrwt>
</event>
<event>
 6    1  0.1762360E-005  0.6617550E+04  0.7818608E-02  0.7618217E-01
         -1   -1    0    0    0  501 -0.00000000000E+00  0.00000000000E+00  0.22073017773E+04  0.22073017773E+04  0.00000000000E+00 0.  1.
          1   -1    0    0  501    0  0.00000000000E+00 -0.00000000000E+00 -0.49598975607E+04  0.49598975607E+04  0.00000000000E+00 0. -1.
         23    2    1    2    0    0  0.71842514566E+03  0.78431867945E+03 -0.47692418396E+04  0.48872537692E+04  0.91056023062E+02 0.  0.
         13    1    3    3    0    0  0.34884358025E+03  0.31402711459E+03 -0.21080488771E+04  0.21596700999E+04  0.00000000000E+00 0.  1.
        -13    1    3    3    0    0  0.36958156541E+03  0.47029156486E+03 -0.26611929625E+04  0.27275836693E+04  0.00000000000E+00 0. -1.
         22    1    1    2    0    0 -0.71842514566E+03 -0.78431867945E+03  0.20166460562E+04  0.22799455688E+04  0.00000000000E+00 0.  1.
<mgrwt>
<rscale>  0 0.66175496E+04</rscale>
<asrwt>0</asrwt>
<pdfrwt beam="1">  1        1 0.76306116E+00 0.66175496E+04</pdfrwt>
<pdfrwt beam="2">  1       -1 0.33958489E+00 0.66175496E+04</pdfrwt>
<totfact> 0.11084961E-04</totfact>
</mgrwt>
</event>
<event>
 6    1  0.1762360E-005  0.4083011E+03  0.7818608E-02  0.1040943E+00
         -1   -1    0    0    0  501 -0.00000000000E+00  0.00000000000E+00  0.58837949244E+02  0.58837949244E+02  0.00000000000E+00 0.  1.
          1   -1    0    0  501    0  0.00000000000E+00 -0.00000000000E+00 -0.70834310920E+03  0.70834310920E+03  0.00000000000E+00 0. -1.
         23    2    1    2    0    0 -0.11813522771E+03 -0.12099024212E+03 -0.51911216188E+03  0.55364674116E+03  0.91938602732E+02 0.  0.
         11    1    3    3    0    0 -0.13113239558E+02 -0.59626068453E+02 -0.99280699868E+02  0.11654991402E+03  0.00000000000E+00 0.  1.
        -11    1    3    3    0    0 -0.10502198815E+03 -0.61364173664E+02 -0.41983146201E+03  0.43709682714E+03  0.00000000000E+00 0. -1.
         22    1    1    2    0    0  0.11813522771E+03  0.12099024212E+03 -0.13039299808E+03  0.21353431729E+03  0.00000000000E+00 0.  1.
<mgrwt>
<rscale>  0 0.40830114E+03</rscale>
<asrwt>0</asrwt>
<pdfrwt beam="1">  1        1 0.10897586E+00 0.40830114E+03</pdfrwt>
<pdfrwt beam="2">  1       -1 0.90519922E-02 0.40830114E+03</pdfrwt>
<totfact> 0.19767900E+03</totfact>
</mgrwt>
</event>
<event>
 6    1  0.1762360E-005  0.2686508E+04  0.7818608E-02  0.8339396E-01
         -1   -1    0    0    0  501 -0.00000000000E+00  0.00000000000E+00  0.12129993358E+04  0.12129993358E+04  0.00000000000E+00 0.  1.
          1   -1    0    0  501    0  0.00000000000E+00 -0.00000000000E+00 -0.14874954146E+04  0.14874954146E+04  0.00000000000E+00 0. -1.
         23    2    1    2    0    0  0.28632672870E+03  0.97288961190E+03 -0.10204072044E+04  0.14415743399E+04  0.91697995031E+02 0.  0.
         13    1    3    3    0    0  0.21300816378E+03  0.60023913302E+03 -0.67763094753E+03  0.92996945955E+03  0.00000000000E+00 0. -1.
        -13    1    3    3    0    0  0.73318564926E+02  0.37265047888E+03 -0.34277625684E+03  0.51160488038E+03  0.00000000000E+00 0.  1.
         22    1    1    2    0    0 -0.28632672870E+03 -0.97288961190E+03  0.74591112558E+03  0.12589204104E+04  0.00000000000E+00 0.  1.
<mgrwt>
<rscale>  0 0.26865077E+04</rscale>
<asrwt>0</asrwt>
<pdfrwt beam="1">  1        1 0.22884545E+00 0.26865077E+04</pdfrwt>
<pdfrwt beam="2">  1       -1 0.18661528E+00 0.26865077E+04</pdfrwt>
<totfact> 0.10891604E+00</totfact>
</mgrwt>
</event>
<event>
 6    1  0.1762360E-005  0.3142796E+04  0.7818608E-02  0.8204090E-01
         -2   -1    0    0    0  501 -0.00000000000E+00  0.00000000000E+00  0.10716043499E+04  0.10716043499E+04  0.00000000000E+00 0. -1.
          2   -1    0    0  501    0  0.00000000000E+00 -0.00000000000E+00 -0.23042947672E+04  0.23042947672E+04  0.00000000000E+00 0.  1.
         23    2    1    2    0    0  0.15738767644E+03 -0.10425028739E+04 -0.18666334668E+04  0.21456686862E+04  0.89389533682E+02 0.  0.
         13    1    3    3    0    0  0.28191025743E+02 -0.48399129933E+03 -0.84759417401E+03  0.97645183986E+03  0.00000000000E+00 0.  1.
        -13    1    3    3    0    0  0.12919665070E+03 -0.55851157459E+03 -0.10190392928E+04  0.11692168464E+04  0.00000000000E+00 0. -1.
         22    1    1    2    0    0 -0.15738767644E+03  0.10425028739E+04  0.63394304955E+03  0.12302304308E+04  0.00000000000E+00 0. -1.
<mgrwt>
<rscale>  0 0.31427964E+04</rscale>
<asrwt>0</asrwt>
<pdfrwt beam="1">  1        2 0.35450688E+00 0.31427964E+04</pdfrwt>
<pdfrwt beam="2">  1       -2 0.16486221E+00 0.31427964E+04</pdfrwt>
<totfact> 0.88501451E-01</totfact>
</mgrwt>
</event>
<event>
 6    1  0.1762360E-005  0.2171689E+04  0.7818608E-02  0.8530305E-01
         -2   -1    0    0    0  501 -0.00000000000E+00  0.00000000000E+00  0.74314051572E+03  0.74314051572E+03  0.00000000000E+00 0.  1.
          2   -1    0    0  501    0  0.00000000000E+00 -0.00000000000E+00 -0.15865883641E+04  0.15865883641E+04  0.00000000000E+00 0. -1.
         23    2    1    2    0    0 -0.27637750598E+03 -0.64169600569E+03  0.46750465998E+03  0.84421389546E+03  0.77318850565E+02 0.  0.
         11    1    3    3    0    0 -0.16994518163E+03 -0.47292074735E+03  0.31524615596E+03  0.59322469342E+03  0.00000000000E+00 0.  1.
        -11    1    3    3    0    0 -0.10643232435E+03 -0.16877525834E+03  0.15225850403E+03  0.25098920204E+03  0.00000000000E+00 0. -1.
         22    1    1    2    0    0  0.27637750598E+03  0.64169600569E+03 -0.13109525083E+04  0.14855149843E+04  0.00000000000E+00 0. -1.
<mgrwt>
<rscale>  0 0.21716888E+04</rscale>
<asrwt>0</asrwt>
<pdfrwt beam="1">  1        2 0.24409052E+00 0.21716888E+04</pdfrwt>
<pdfrwt beam="2">  1       -2 0.11432931E+00 0.21716888E+04</pdfrwt>
<totfact> 0.62186027E+00</totfact>
</mgrwt>
</event>
<event>
 6    1  0.1762360E-005  0.5199263E+04  0.7818608E-02  0.7798483E-01
         -2   -1    0    0    0  501 -0.00000000000E+00  0.00000000000E+00  0.21855483834E+04  0.21855483834E+04  0.00000000000E+00 0. -1.
          2   -1    0    0  501    0  0.00000000000E+00 -0.00000000000E+00 -0.30921688404E+04  0.30921688404E+04  0.00000000000E+00 0.  1.
         23    2    1    2    0    0  0.17027277471E+02  0.18948972556E+04  0.13517727162E+04  0.23296220317E+04  0.94465851268E+02 0.  0.
         11    1    3    3    0    0  0.47975331521E+02  0.61267249608E+03  0.45297604156E+03  0.76345040056E+03  0.00000000000E+00 0. -1.
        -11    1    3    3    0    0 -0.30948054050E+02  0.12822247595E+04  0.89879667461E+03  0.15661716311E+04  0.00000000000E+00 0.  1.
         22    1    1    2    0    0 -0.17027277471E+02 -0.18948972556E+04 -0.22583931732E+04  0.29480951921E+04  0.00000000000E+00 0.  1.
<mgrwt>
<rscale>  0 0.51992633E+04</rscale>
<asrwt>0</asrwt>
<pdfrwt beam="1">  1        2 0.47571828E+00 0.51992633E+04</pdfrwt>
<pdfrwt beam="2">  1       -2 0.33623821E+00 0.51992633E+04</pdfrwt>
<totfact> 0.20694218E-02</totfact>
</mgrwt>
</event>
<event>
 6    1  0.1762360E-005  0.1744725E+04  0.7818608E-02  0.8736259E-01
          2   -1    0    0  501    0  0.00000000000E+00  0.00000000000E+00  0.16900868328E+04  0.16900868328E+04  0.00000000000E+00 0. -1.
         -2   -1    0    0    0  501 -0.00000000000E+00 -0.00000000000E+00 -0.45028227007E+03  0.45028227007E+03  0.00000000000E+00 0.  1.
         23    2    1    2    0    0 -0.40862882566E+03 -0.43817821175E+03 -0.15245953738E+03  0.62465904259E+03  0.89315992624E+02 0.  0.
         11    1    3    3    0    0 -0.25060137981E+03 -0.20451647508E+03 -0.72978387512E+02  0.33159295105E+03  0.00000000000E+00 0. -1.
        -11    1    3    3    0    0 -0.15802744584E+03 -0.23366173667E+03 -0.79481149866E+02  0.29306609154E+03  0.00000000000E+00 0.  1.
         22    1    1    2    0    0  0.40862882566E+03  0.43817821175E+03  0.13922641001E+04  0.15157100603E+04  0.00000000000E+00 0. -1.
<mgrwt>
<rscale>  0 0.17447248E+04</rscale>
<asrwt>0</asrwt>
<pdfrwt beam="1">  1        2 0.26001336E+00 0.17447248E+04</pdfrwt>
<pdfrwt beam="2">  1       -2 0.69274196E-01 0.17447248E+04</pdfrwt>
<totfact> 0.17908568E+01</totfact>
</mgrwt>
</event>
<event>
 6    1  0.1762360E-005  0.4952340E+04  0.7818608E-02  0.7835901E-01
          2   -1    0    0  501    0  0.00000000000E+00  0.00000000000E+00  0.42416002336E+04  0.42416002336E+04  0.00000000000E+00 0. -1.
         -2   -1    0    0    0  501 -0.00000000000E+00 -0.00000000000E+00 -0.14455437142E+04  0.14455437142E+04  0.00000000000E+00 0.  1.
         23    2    1    2    0    0  0.11726957271E+04  0.21797339084E+04  0.14294702814E+04  0.28597753610E+04  0.92057863114E+02 0.  0.
         13    1    3    3    0    0  0.53773377936E+03  0.10009270177E+04  0.60331951553E+03  0.12864707342E+04  0.00000000000E+00 0.  1.
        -13    1    3    3    0    0  0.63496194776E+03  0.11788068908E+04  0.82615076585E+03  0.15733046268E+04  0.00000000000E+00 0. -1.
         22    1    1    2    0    0 -0.11726957271E+04 -0.21797339084E+04  0.13665862380E+04  0.28273685868E+04  0.00000000000E+00 0. -1.
<mgrwt>
<rscale>  0 0.49523403E+04</rscale>
<asrwt>0</asrwt>
<pdfrwt beam="1">  1        2 0.65255388E+00 0.49523403E+04</pdfrwt>
<pdfrwt beam="2">  1       -2 0.22239134E+00 0.49523403E+04</pdfrwt>
<totfact> 0.14816372E-02</totfact>
</mgrwt>
</event>
<event>
 6    1  0.1762360E-005  0.2221930E+04  0.7818608E-02  0.8509356E-01
          2   -1    0    0  501    0  0.00000000000E+00  0.00000000000E+00  0.12984291193E+04  0.12984291193E+04  0.00000000000E+00 0. -1.
         -2   -1    0    0    0  501 -0.00000000000E+00 -0.00000000000E+00 -0.95056631810E+03  0.95056631810E+03  0.00000000000E+00 0.  1.
         23    2    1    2    0    0 -0.76142578308E+03  0.71203158560E+03 -0.20867598097E+03  0.10672621265E+04  0.93512456834E+02 0.  0.
         11    1    3    3    0    0 -0.46040046556E+03  0.44732567586E+03 -0.17295677596E+03  0.66481794148E+03  0.00000000000E+00 0.  1.
        -11    1    3    3    0    0 -0.30102531752E+03  0.26470590974E+03 -0.35719205006E+02  0.40244418501E+03  0.00000000000E+00 0. -1.
         22    1    1    2    0    0  0.76142578308E+03 -0.71203158560E+03  0.55653878214E+03  0.11817333109E+04  0.00000000000E+00 0. -1.
<mgrwt>
<rscale>  0 0.22219298E+04</rscale>
<asrwt>0</asrwt>
<pdfrwt beam="1">  1        2 0.19975833E+00 0.22219298E+04</pdfrwt>
<pdfrwt beam="2">  1       -2 0.14624097E+00 0.22219298E+04</pdfrwt>
<totfact> 0.48437607E+00</totfact>
</mgrwt>
</event>
<event>
 6    1  0.1762360E-005  0.1008255E+04  0.7818608E-02  0.9299537E-01
         -2   -1    0    0    0  501 -0.00000000000E+00  0.00000000000E+00  0.10826985044E+04  0.10826985044E+04  0.00000000000E+00 0.  1.
          2   -1    0    0  501    0  0.00000000000E+00 -0.00000000000E+00 -0.23473241557E+03  0.23473241557E+03  0.00000000000E+00 0. -1.
         23    2    1    2    0    0  0.15672574657E+02 -0.45293712890E+03  0.15026448396E+03  0.48545423654E+03  0.87685393883E+02 0.  0.
         13    1    3    3    0    0  0.44166192396E+02 -0.13070885728E+03  0.39130123688E+02  0.14341068476E+03  0.00000000000E+00 0.  1.
        -13    1    3    3    0    0 -0.28493617739E+02 -0.32222827162E+03  0.11113436027E+03  0.34204355178E+03  0.00000000000E+00 0. -1.
         22    1    1    2    0    0 -0.15672574657E+02  0.45293712890E+03  0.69770160488E+03  0.83197668344E+03  0.00000000000E+00 0.  1.
<mgrwt>
<rscale>  0 0.10082548E+04</rscale>
<asrwt>0</asrwt>
<pdfrwt beam="1">  1        2 0.36112680E-01 0.10082548E+04</pdfrwt>
<pdfrwt beam="2">  1       -2 0.16656900E+00 0.10082548E+04</pdfrwt>
<totfact> 0.32488633E+01</totfact>
</mgrwt>
</event>
<event>
 6    1  0.1762360E-005  0.3246345E+04  0.7818608E-02  0.8176684E-01
          2   -1    0    0  501    0  0.00000000000E+00  0.00000000000E+00  0.16679615514E+04  0.16679615514E+04  0.00000000000E+00 0.  1.
         -2   -1    0    0    0  501 -0.00000000000E+00 -0.00000000000E+00 -0.15795861935E+04  0.15795861935E+04  0.00000000000E+00 0. -1.
         23    2    1    2    0    0 -0.99101392535E+03 -0.12157623034E+04 -0.36844269996E+03  0.16138803011E+04  0.93129075034E+02 0.  0.
         13    1    3    3    0    0 -0.70455767071E+03 -0.84102688727E+03 -0.29862150600E+03  0.11370587233E+04  0.00000000000E+00 0. -1.
        -13    1    3    3    0    0 -0.28645625464E+03 -0.37473541615E+03 -0.69821193963E+02  0.47682157781E+03  0.00000000000E+00 0.  1.
         22    1    1    2    0    0  0.99101392535E+03  0.12157623034E+04  0.45681805782E+03  0.16336674437E+04  0.00000000000E+00 0.  1.
<mgrwt>
<rscale>  0 0.32463450E+04</rscale>
<asrwt>0</asrwt>
<pdfrwt beam="1">  1        2 0.25660947E+00 0.32463450E+04</pdfrwt>
<pdfrwt beam="2">  1       -2 0.24301326E+00 0.32463450E+04</pdfrwt>
<totfact> 0.60830902E-01</totfact>
</mgrwt>
</event>
<event>
 6    1  0.1762360E-005  0.2323449E+04  0.7818608E-02  0.8468732E-01
          1   -1    0    0  501    0  0.00000000000E+00  0.00000000000E+00  0.10760064772E+04  0.10760064772E+04  0.00000000000E+00 0. -1.
         -1   -1    0    0    0  501 -0.00000000000E+00 -0.00000000000E+00 -0.12542711352E+04  0.12542711352E+04  0.00000000000E+00 0.  1.
         23    2    1    2    0    0  0.28376610301E+03  0.92808166272E+03 -0.72637242888E+03  0.12157010550E+04  0.91942241443E+02 0.  0.
         11    1    3    3    0    0  0.26599755842E+03  0.74810054497E+03 -0.59119131976E+03  0.98990721941E+03  0.00000000000E+00 0. -1.
        -11    1    3    3    0    0  0.17768544587E+02  0.17998111774E+03 -0.13518110912E+03  0.22579383558E+03  0.00000000000E+00 0.  1.
         22    1    1    2    0    0 -0.28376610301E+03 -0.92808166272E+03  0.54810777083E+03  0.11145765574E+04  0.00000000000E+00 0. -1.
<mgrwt>
<rscale>  0 0.23234490E+04</rscale>
<asrwt>0</asrwt>
<pdfrwt beam="1">  1        1 0.16553946E+00 0.23234490E+04</pdfrwt>
<pdfrwt beam="2">  1       -1 0.19296479E+00 0.23234490E+04</pdfrwt>
<totfact> 0.20087857E+00</totfact>
</mgrwt>
</event>
<event>
 6    1  0.1762360E-005  0.3823813E+04  0.7818608E-02  0.8041064E-01
          1   -1    0    0  501    0  0.00000000000E+00  0.00000000000E+00  0.25717554186E+04  0.25717554186E+04  0.00000000000E+00 0. -1.
         -1   -1    0    0    0  501 -0.00000000000E+00 -0.00000000000E+00 -0.14213587486E+04  0.14213587486E+04  0.00000000000E+00 0.  1.
         23    2    1    2    0    0  0.13338644684E+04 -0.12174672943E+04  0.12273158213E+04  0.21855363436E+04  0.94042284299E+02 0.  0.
         11    1    3    3    0    0  0.66498524870E+03 -0.63902789463E+03  0.67560039084E+03  0.11432400969E+04  0.00000000000E+00 0.  1.
        -11    1    3    3    0    0  0.66887921966E+03 -0.57843939966E+03  0.55171543044E+03  0.10422962466E+04  0.00000000000E+00 0. -1.
         22    1    1    2    0    0 -0.13338644684E+04  0.12174672943E+04 -0.76919151341E+02  0.18075778236E+04  0.00000000000E+00 0.  1.
<mgrwt>
<rscale>  0 0.38238133E+04</rscale>
<asrwt>0</asrwt>
<pdfrwt beam="1">  1        1 0.39565468E+00 0.38238133E+04</pdfrwt>
<pdfrwt beam="2">  1       -1 0.21867058E+00 0.38238133E+04</pdfrwt>
<totfact> 0.10770674E-01</totfact>
</mgrwt>
</event>
<event>
 6    1  0.1762360E-005  0.2063911E+04  0.7818608E-02  0.8577309E-01
         -2   -1    0    0    0  501 -0.00000000000E+00  0.00000000000E+00  0.63023889323E+03  0.63023889323E+03  0.00000000000E+00 0. -1.
          2   -1    0    0  501    0  0.00000000000E+00 -0.00000000000E+00 -0.16897284848E+04  0.16897284848E+04  0.00000000000E+00 0.  1.
         23    2    1    2    0    0  0.55054260378E+03  0.84217438626E+03 -0.28308540283E+03  0.10490785868E+04  0.89853661275E+02 0.  0.
         11    1    3    3    0    0  0.32162852862E+03  0.41167510791E+03 -0.13689279281E+03  0.54005642448E+03  0.00000000000E+00 0.  1.
        -11    1    3    3    0    0  0.22891407515E+03  0.43049927835E+03 -0.14619261002E+03  0.50902216228E+03  0.00000000000E+00 0. -1.
         22    1    1    2    0    0 -0.55054260378E+03 -0.84217438626E+03 -0.77640418872E+03  0.12708887912E+04  0.00000000000E+00 0.  1.
<mgrwt>
<rscale>  0 0.20639114E+04</rscale>
<asrwt>0</asrwt>
<pdfrwt beam="1">  1        2 0.25995822E+00 0.20639114E+04</pdfrwt>
<pdfrwt beam="2">  1       -2 0.96959832E-01 0.20639114E+04</pdfrwt>
<totfact> 0.81599006E+00</totfact>
</mgrwt>
</event>
<event>
 6    1  0.1762360E-005  0.3463692E+04  0.7818608E-02  0.8122449E-01
          2   -1    0    0  501    0  0.00000000000E+00  0.00000000000E+00  0.22152560542E+04  0.22152560542E+04  0.00000000000E+00 0. -1.
         -2   -1    0    0    0  501 -0.00000000000E+00 -0.00000000000E+00 -0.13539246782E+04  0.13539246782E+04  0.00000000000E+00 0.  1.
         23    2    1    2    0    0  0.62025509865E+03 -0.10689271755E+04 -0.81747395238E+03  0.14845443075E+04  0.91029907555E+02 0.  0.
         11    1    3    3    0    0  0.51112034539E+03 -0.90345723214E+03 -0.72278387296E+03  0.12648697580E+04  0.00000000000E+00 0. -1.
        -11    1    3    3    0    0  0.10913475326E+03 -0.16546994337E+03 -0.94690079415E+02  0.21967454943E+03  0.00000000000E+00 0.  1.
         22    1    1    2    0    0 -0.62025509865E+03  0.10689271755E+04  0.16788053283E+04  0.20846364250E+04  0.00000000000E+00 0. -1.
<mgrwt>
<rscale>  0 0.34636916E+04</rscale>
<asrwt>0</asrwt>
<pdfrwt beam="1">  1        2 0.34080862E+00 0.34636916E+04</pdfrwt>
<pdfrwt beam="2">  1       -2 0.20829610E+00 0.34636916E+04</pdfrwt>
<totfact> 0.49002289E-01</totfact>
</mgrwt>
</event>
<event>
 6    1  0.1762360E-005  0.2911545E+04  0.7818608E-02  0.8269451E-01
         -2   -1    0    0    0  501 -0.00000000000E+00  0.00000000000E+00  0.79323506775E+03  0.79323506775E+03  0.00000000000E+00 0.  1.
          2   -1    0    0  501    0  0.00000000000E+00 -0.00000000000E+00 -0.26716847328E+04  0.26716847328E+04  0.00000000000E+00 0. -1.
         23    2    1    2    0    0  0.29625282757E+03  0.53251664323E+03  0.63186910185E+03  0.88169700245E+03  0.82409520700E+02 0.  0.
         13    1    3    3    0    0  0.19193808476E+03  0.37952602253E+03  0.48717408715E+03  0.64669840061E+03  0.00000000000E+00 0. -1.
        -13    1    3    3    0    0  0.10431474281E+03  0.15299062070E+03  0.14469501469E+03  0.23499860184E+03  0.00000000000E+00 0.  1.
         22    1    1    2    0    0 -0.29625282757E+03 -0.53251664323E+03 -0.25103187669E+04  0.25832227981E+04  0.00000000000E+00 0. -1.
<mgrwt>
<rscale>  0 0.29115453E+04</rscale>
<asrwt>0</asrwt>
<pdfrwt beam="1">  1        2 0.41102842E+00 0.29115453E+04</pdfrwt>
<pdfrwt beam="2">  1       -2 0.12203616E+00 0.29115453E+04</pdfrwt>
<totfact> 0.12115957E+00</totfact>
</mgrwt>
</event>
<event>
 6    1  0.1762360E-005  0.2067208E+04  0.7818608E-02  0.8575828E-01
          1   -1    0    0  501    0  0.00000000000E+00  0.00000000000E+00  0.13925749704E+04  0.13925749704E+04  0.00000000000E+00 0. -1.
         -1   -1    0    0    0  501 -0.00000000000E+00 -0.00000000000E+00 -0.76716648907E+03  0.76716648907E+03  0.00000000000E+00 0.  1.
         23    2    1    2    0    0  0.48472626015E+03 -0.79035010837E+03 -0.15867365146E+03  0.94549369561E+03  0.95750507500E+02 0.  0.
         13    1    3    3    0    0  0.19686003709E+03 -0.30526293572E+03 -0.10901412855E+03  0.37924057582E+03  0.00000000000E+00 0. -1.
        -13    1    3    3    0    0  0.28786622307E+03 -0.48508717265E+03 -0.49659522903E+02  0.56625311978E+03  0.00000000000E+00 0.  1.
         22    1    1    2    0    0 -0.48472626015E+03  0.79035010837E+03  0.78408213277E+03  0.12142477638E+04  0.00000000000E+00 0. -1.
<mgrwt>
<rscale>  0 0.20672076E+04</rscale>
<asrwt>0</asrwt>
<pdfrwt beam="1">  1        1 0.21424230E+00 0.20672076E+04</pdfrwt>
<pdfrwt beam="2">  1       -1 0.11802561E+00 0.20672076E+04</pdfrwt>
<totfact> 0.46236567E+00</totfact>
</mgrwt>
</event>
<event>
 6    1  0.1762360E-005  0.2560736E+04  0.7818608E-02  0.8381662E-01
          2   -1    0    0  501    0  0.00000000000E+00  0.00000000000E+00  0.10398355563E+04  0.10398355563E+04  0.00000000000E+00 0. -1.
         -2   -1    0    0    0  501 -0.00000000000E+00 -0.00000000000E+00 -0.15765394981E+04  0.15765394981E+04  0.00000000000E+00 0.  1.
         23    2    1    2    0    0  0.62989036743E+03 -0.10882654479E+04 -0.50629802654E+03  0.13585960278E+04  0.91443508277E+02 0.  0.
         11    1    3    3    0    0  0.35341497582E+03 -0.55904524127E+03 -0.22545603572E+03  0.69875900779E+03  0.00000000000E+00 0. -1.
        -11    1    3    3    0    0  0.27647539160E+03 -0.52922020658E+03 -0.28084199082E+03  0.65983702005E+03  0.00000000000E+00 0.  1.
         22    1    1    2    0    0 -0.62989036743E+03  0.10882654479E+04 -0.30405915194E+02  0.12577790266E+04  0.00000000000E+00 0.  1.
<mgrwt>
<rscale>  0 0.25607357E+04</rscale>
<asrwt>0</asrwt>
<pdfrwt beam="1">  1        2 0.15997470E+00 0.25607357E+04</pdfrwt>
<pdfrwt beam="2">  1       -2 0.24254454E+00 0.25607357E+04</pdfrwt>
<totfact> 0.15059229E+00</totfact>
</mgrwt>
</event>
<event>
 6    1  0.1762360E-005  0.7398392E+03  0.7818608E-02  0.9651427E-01
          1   -1    0    0  501    0  0.00000000000E+00  0.00000000000E+00  0.11099423783E+03  0.11099423783E+03  0.00000000000E+00 0. -1.
         -1   -1    0    0    0  501 -0.00000000000E+00 -0.00000000000E+00 -0.12328615378E+04  0.12328615378E+04  0.00000000000E+00 0.  1.
         23    2    1    2    0    0 -0.31956508068E+03 -0.17657670628E+03 -0.55435198856E+03  0.66904113243E+03  0.83718192031E+02 0.  0.
         13    1    3    3    0    0 -0.46274435993E+02 -0.59700031236E+02 -0.14040624870E+03  0.15943441231E+03  0.00000000000E+00 0. -1.
        -13    1    3    3    0    0 -0.27329064469E+03 -0.11687667504E+03 -0.41394573987E+03  0.50960672012E+03  0.00000000000E+00 0.  1.
         22    1    1    2    0    0  0.31956508068E+03  0.17657670628E+03 -0.56751531140E+03  0.67481464319E+03  0.00000000000E+00 0. -1.
<mgrwt>
<rscale>  0 0.73983924E+03</rscale>
<asrwt>0</asrwt>
<pdfrwt beam="1">  1        1 0.17076037E-01 0.73983924E+03</pdfrwt>
<pdfrwt beam="2">  1       -1 0.18967100E+00 0.73983924E+03</pdfrwt>
<totfact> 0.58816274E+01</totfact>
</mgrwt>
</event>
<event>
 6    1  0.1762360E-005  0.3792660E+04  0.7818608E-02  0.8047732E-01
         -2   -1    0    0    0  501 -0.00000000000E+00  0.00000000000E+00  0.14452527395E+04  0.14452527395E+04  0.00000000000E+00 0.  1.
          2   -1    0    0  501    0  0.00000000000E+00 -0.00000000000E+00 -0.24881932960E+04  0.24881932960E+04  0.00000000000E+00 0. -1.
         23    2    1    2    0    0  0.17237422172E+04  0.77767181905E+03 -0.39115512297E+03  0.19332248125E+04  0.91077745703E+02 0.  0.
         13    1    3    3    0    0  0.86746465043E+03  0.35201066796E+03 -0.16485712664E+03  0.95057051412E+03  0.00000000000E+00 0.  1.
        -13    1    3    3    0    0  0.85627756678E+03  0.42566115109E+03 -0.22629799633E+03  0.98265429834E+03  0.00000000000E+00 0. -1.
         22    1    1    2    0    0 -0.17237422172E+04 -0.77767181905E+03 -0.65178543355E+03  0.20002212230E+04  0.00000000000E+00 0.  1.
<mgrwt>
<rscale>  0 0.37926604E+04</rscale>
<asrwt>0</asrwt>
<pdfrwt beam="1">  1        2 0.38279896E+00 0.37926604E+04</pdfrwt>
<pdfrwt beam="2">  1       -2 0.22234658E+00 0.37926604E+04</pdfrwt>
<totfact> 0.27098580E-01</totfact>
</mgrwt>
</event>
<event>
 6    1  0.1762360E-005  0.2778509E+04  0.7818608E-02  0.8309972E-01
          1   -1    0    0  501    0  0.00000000000E+00  0.00000000000E+00  0.33012689450E+04  0.33012689450E+04  0.00000000000E+00 0. -1.
         -1   -1    0    0    0  501 -0.00000000000E+00 -0.00000000000E+00 -0.58463200496E+03  0.58463200496E+03  0.00000000000E+00 0.  1.
         23    2    1    2    0    0  0.11648436570E+04  0.54637161388E+03  0.63260860298E+03  0.14367058178E+04  0.92451482358E+02 0.  0.
         13    1    3    3    0    0  0.65681914275E+03  0.31056888041E+03  0.40801067363E+03  0.83326893951E+03  0.00000000000E+00 0. -1.
        -13    1    3    3    0    0  0.50802451426E+03  0.23580273347E+03  0.22459792935E+03  0.60343687828E+03  0.00000000000E+00 0.  1.
         22    1    1    2    0    0 -0.11648436570E+04 -0.54637161388E+03  0.20840283371E+04  0.24491951322E+04  0.00000000000E+00 0.  1.
<mgrwt>
<rscale>  0 0.27785086E+04</rscale>
<asrwt>0</asrwt>
<pdfrwt beam="1">  1        1 0.50788752E+00 0.27785086E+04</pdfrwt>
<pdfrwt beam="2">  1       -1 0.89943387E-01 0.27785086E+04</pdfrwt>
<totfact> 0.37367361E-01</totfact>
</mgrwt>
</event>
<event>
 6    1  0.1762360E-005  0.1989444E+04  0.7818608E-02  0.8611572E-01
          2   -1    0    0  501    0  0.00000000000E+00  0.00000000000E+00  0.11333384908E+04  0.11333384908E+04  0.00000000000E+00 0.  1.
         -2   -1    0    0    0  501 -0.00000000000E+00 -0.00000000000E+00 -0.87305971624E+03  0.87305971624E+03  0.00000000000E+00 0. -1.
         23    2    1    2    0    0  0.17531446631E+03 -0.97332704269E+03  0.45734689260E+02  0.99440519391E+03  0.93001794289E+02 0.  0.
         11    1    3    3    0    0  0.84943109981E+02 -0.67689228478E+03  0.54522720917E+02  0.68437652226E+03  0.00000000000E+00 0. -1.
        -11    1    3    3    0    0  0.90371356333E+02 -0.29643475791E+03 -0.87880316568E+01  0.31002867165E+03  0.00000000000E+00 0.  1.
         22    1    1    2    0    0 -0.17531446631E+03  0.97332704269E+03  0.21454408532E+03  0.10119930132E+04  0.00000000000E+00 0.  1.
<mgrwt>
<rscale>  0 0.19894443E+04</rscale>
<asrwt>0</asrwt>
<pdfrwt beam="1">  1        2 0.17435977E+00 0.19894443E+04</pdfrwt>
<pdfrwt beam="2">  1       -2 0.13431688E+00 0.19894443E+04</pdfrwt>
<totfact> 0.77240347E+00</totfact>
</mgrwt>
</event>
<event>
 6    1  0.1762360E-005  0.2104289E+04  0.7818608E-02  0.8559356E-01
         -1   -1    0    0    0  501 -0.00000000000E+00  0.00000000000E+00  0.42454699434E+04  0.42454699434E+04  0.00000000000E+00 0.  1.
          1   -1    0    0  501    0  0.00000000000E+00 -0.00000000000E+00 -0.26075045890E+03  0.26075045890E+03  0.00000000000E+00 0. -1.
         23    2    1    2    0    0 -0.68335091672E+03 -0.29674624630E+02  0.37025608395E+04  0.37663132732E+04  0.91158341178E+02 0.  0.
         11    1    3    3    0    0 -0.59706752993E+03  0.23437349677E+01  0.32712672327E+04  0.33253096753E+04  0.00000000000E+00 0. -1.
        -11    1    3    3    0    0 -0.86283386789E+02 -0.32018359598E+02  0.43129360675E+03  0.44100359796E+03  0.00000000000E+00 0.  1.
         22    1    1    2    0    0  0.68335091672E+03  0.29674624630E+02  0.28215864503E+03  0.73990712910E+03  0.00000000000E+00 0. -1.
<mgrwt>
<rscale>  0 0.21042892E+04</rscale>
<asrwt>0</asrwt>
<pdfrwt beam="1">  1        1 0.40115458E-01 0.21042892E+04</pdfrwt>
<pdfrwt beam="2">  1       -1 0.65314917E+00 0.21042892E+04</pdfrwt>
<totfact> 0.27111027E-02</totfact>
</mgrwt>
</event>
<event>
 6    1  0.1762360E-005  0.3418431E+04  0.7818608E-02  0.8133398E-01
         -2   -1    0    0    0  501 -0.00000000000E+00  0.00000000000E+00  0.85819074093E+03  0.85819074093E+03  0.00000000000E+00 0.  1.
          2   -1    0    0  501    0  0.00000000000E+00 -0.00000000000E+00 -0.34041585095E+04  0.34041585095E+04  0.00000000000E+00 0. -1.
         23    2    1    2    0    0 -0.41198433043E+03 -0.14529043308E+04 -0.22679330003E+04  0.27267824445E+04  0.10564243006E+03 0.  0.
         11    1    3    3    0    0 -0.32845628006E+03 -0.98879108836E+03 -0.15897286041E+04  0.19007441645E+04  0.00000000000E+00 0. -1.
        -11    1    3    3    0    0 -0.83528050366E+02 -0.46411324241E+03 -0.67820439623E+03  0.82603828001E+03  0.00000000000E+00 0.  1.
         22    1    1    2    0    0  0.41198433043E+03  0.14529043308E+04 -0.27803476822E+03  0.15355668059E+04  0.00000000000E+00 0.  1.
<mgrwt>
<rscale>  0 0.34184308E+04</rscale>
<asrwt>0</asrwt>
<pdfrwt beam="1">  1        2 0.52371669E+00 0.34184308E+04</pdfrwt>
<pdfrwt beam="2">  1       -2 0.13202934E+00 0.34184308E+04</pdfrwt>
<totfact> 0.32670255E-01</totfact>
</mgrwt>
</event>
<event>
 6    1  0.1762360E-005  0.4328053E+04  0.7818608E-02  0.7941451E-01
         -2   -1    0    0    0  501 -0.00000000000E+00  0.00000000000E+00  0.38502170115E+04  0.38502170115E+04  0.00000000000E+00 0.  1.
          2   -1    0    0  501    0  0.00000000000E+00 -0.00000000000E+00 -0.12162979861E+04  0.12162979861E+04  0.00000000000E+00 0. -1.
         23    2    1    2    0    0  0.75081695972E+03  0.16173076722E+04 -0.11567050247E+03  0.17893740508E+04  0.95234527065E+02 0.  0.
         11    1    3    3    0    0  0.56581326801E+03  0.12075465277E+04 -0.45238164714E+02  0.13343012263E+04  0.00000000000E+00 0. -1.
        -11    1    3    3    0    0  0.18500369171E+03  0.40976114444E+03 -0.70432337758E+02  0.45507282454E+03  0.00000000000E+00 0.  1.
         22    1    1    2    0    0 -0.75081695972E+03 -0.16173076722E+04  0.27495895278E+04  0.32771409468E+04  0.00000000000E+00 0.  1.
<mgrwt>
<rscale>  0 0.43280532E+04</rscale>
<asrwt>0</asrwt>
<pdfrwt beam="1">  1        2 0.18712277E+00 0.43280532E+04</pdfrwt>
<pdfrwt beam="2">  1       -2 0.59234108E+00 0.43280532E+04</pdfrwt>
<totfact> 0.77759167E-03</totfact>
</mgrwt>
</event>
<event>
 6    1  0.1762360E-005  0.1696079E+04  0.7818608E-02  0.8763604E-01
          1   -1    0    0  501    0  0.00000000000E+00  0.00000000000E+00  0.95709455785E+03  0.95709455785E+03  0.00000000000E+00 0. -1.
         -1   -1    0    0    0  501 -0.00000000000E+00 -0.00000000000E+00 -0.75141068289E+03  0.75141068289E+03  0.00000000000E+00 0.  1.
         23    2    1    2    0    0 -0.39710919703E+03  0.65435319664E+03 -0.25879634553E+03  0.81317530404E+03  0.91677185441E+02 0.  0.
         13    1    3    3    0    0 -0.15835822260E+03  0.34685229959E+03 -0.13933286208E+03  0.40595257216E+03  0.00000000000E+00 0. -1.
        -13    1    3    3    0    0 -0.23875097443E+03  0.30750089705E+03 -0.11946348345E+03  0.40722273188E+03  0.00000000000E+00 0.  1.
         22    1    1    2    0    0  0.39710919703E+03 -0.65435319664E+03  0.46448022050E+03  0.89532993670E+03  0.00000000000E+00 0. -1.
<mgrwt>
<rscale>  0 0.16960791E+04</rscale>
<asrwt>0</asrwt>
<pdfrwt beam="1">  1        1 0.14724532E+00 0.16960791E+04</pdfrwt>
<pdfrwt beam="2">  1       -1 0.11560164E+00 0.16960791E+04</pdfrwt>
<totfact> 0.10558465E+01</totfact>
</mgrwt>
</event>
<event>
 6    1  0.1762360E-005  0.5572815E+03  0.7818608E-02  0.9998225E-01
         -2   -1    0    0    0  501 -0.00000000000E+00  0.00000000000E+00  0.46035118588E+02  0.46035118588E+02  0.00000000000E+00 0.  1.
          2   -1    0    0  501    0  0.00000000000E+00 -0.00000000000E+00 -0.16865527225E+04  0.16865527225E+04  0.00000000000E+00 0. -1.
         23    2    1    2    0    0 -0.13282963895E+03 -0.80068013565E+02 -0.15338623193E+04  0.15443593907E+04  0.90871961833E+02 0.  0.
         13    1    3    3    0    0 -0.10484854447E+03 -0.20857108385E+02 -0.72351735845E+03  0.73137241144E+03  0.00000000000E+00 0.  1.
        -13    1    3    3    0    0 -0.27981094484E+02 -0.59210905180E+02 -0.81034496082E+03  0.81298697928E+03  0.00000000000E+00 0. -1.
         22    1    1    2    0    0  0.13282963895E+03  0.80068013565E+02 -0.10665528460E+03  0.18822845033E+03  0.00000000000E+00 0.  1.
<mgrwt>
<rscale>  0 0.55728145E+03</rscale>
<asrwt>0</asrwt>
<pdfrwt beam="1">  1        2 0.25946963E+00 0.55728145E+03</pdfrwt>
<pdfrwt beam="2">  1       -2 0.70823264E-02 0.55728145E+03</pdfrwt>
<totfact> 0.12218468E+03</totfact>
</mgrwt>
</event>
<event>
 6    1  0.1762360E-005  0.4711151E+04  0.7818608E-02  0.7874678E-01
          2   -1    0    0  501    0  0.00000000000E+00  0.00000000000E+00  0.42562287964E+04  0.42562287964E+04  0.00000000000E+00 0.  1.
         -2   -1    0    0    0  501 -0.00000000000E+00 -0.00000000000E+00 -0.13036744992E+04  0.13036744992E+04  0.00000000000E+00 0. -1.
         23    2    1    2    0    0 -0.15941028899E+04 -0.90031765094E+03  0.32242379983E+04  0.37090797141E+04  0.99124969356E+02 0.  0.
         11    1    3    3    0    0 -0.10523164368E+04 -0.62756626345E+03  0.22296333821E+04  0.25441057991E+04  0.00000000000E+00 0.  1.
        -11    1    3    3    0    0 -0.54178645308E+03 -0.27275138749E+03  0.99460461613E+03  0.11649739150E+04  0.00000000000E+00 0. -1.
         22    1    1    2    0    0  0.15941028899E+04  0.90031765094E+03 -0.27168370110E+03  0.18508235815E+04  0.00000000000E+00 0. -1.
<mgrwt>
<rscale>  0 0.47111514E+04</rscale>
<asrwt>0</asrwt>
<pdfrwt beam="1">  1        2 0.65480443E+00 0.47111514E+04</pdfrwt>
<pdfrwt beam="2">  1       -2 0.20056531E+00 0.47111514E+04</pdfrwt>
<totfact> 0.20255903E-02</totfact>
</mgrwt>
</event>
<event>
 6    1  0.1762360E-005  0.2758890E+04  0.7818608E-02  0.8316146E-01
         -1   -1    0    0    0  501 -0.00000000000E+00  0.00000000000E+00  0.75380784147E+03  0.75380784147E+03  0.00000000000E+00 0.  1.
          1   -1    0    0  501    0  0.00000000000E+00 -0.00000000000E+00 -0.25243414821E+04  0.25243414821E+04  0.00000000000E+00 0. -1.
         23    2    1    2    0    0 -0.73047572992E+03 -0.84363690418E+03  0.73608668047E+02  0.11226496430E+04  0.98010034791E+02 0.  0.
         13    1    3    3    0    0 -0.42631471838E+03 -0.42482163856E+03  0.18703917195E+02  0.60213578221E+03  0.00000000000E+00 0.  1.
        -13    1    3    3    0    0 -0.30416101154E+03 -0.41881526562E+03  0.54904750852E+02  0.52051386084E+03  0.00000000000E+00 0. -1.
         22    1    1    2    0    0  0.73047572992E+03  0.84363690418E+03 -0.18441423087E+04  0.21554996805E+04  0.00000000000E+00 0. -1.
<mgrwt>
<rscale>  0 0.27588899E+04</rscale>
<asrwt>0</asrwt>
<pdfrwt beam="1">  1        1 0.38836022E+00 0.27588899E+04</pdfrwt>
<pdfrwt beam="2">  1       -1 0.11597044E+00 0.27588899E+04</pdfrwt>
<totfact> 0.76111161E-01</totfact>
</mgrwt>
</event>
<event>
 6    1  0.1762360E-005  0.1993440E+04  0.7818608E-02  0.8609694E-01
         -1   -1    0    0    0  501 -0.00000000000E+00  0.00000000000E+00  0.11388503119E+04  0.11388503119E+04  0.00000000000E+00 0.  1.
          1   -1    0    0  501    0  0.00000000000E+00 -0.00000000000E+00 -0.87232784006E+03  0.87232784006E+03  0.00000000000E+00 0. -1.
         23    2    1    2    0    0 -0.51550791446E+03 -0.47238103453E+03  0.84731649104E+03  0.11022150370E+04  0.89668836198E+02 0.  0.
         13    1    3    3    0    0 -0.17936549063E+03 -0.11629697733E+03  0.29108729425E+03  0.36114924759E+03  0.00000000000E+00 0.  1.
        -13    1    3    3    0    0 -0.33614242383E+03 -0.35608405720E+03  0.55622919680E+03  0.74106578943E+03  0.00000000000E+00 0. -1.
         22    1    1    2    0    0  0.51550791446E+03  0.47238103453E+03 -0.58079401918E+03  0.90896311496E+03  0.00000000000E+00 0. -1.
<mgrwt>
<rscale>  0 0.19934401E+04</rscale>
<asrwt>0</asrwt>
<pdfrwt beam="1">  1        1 0.13420428E+00 0.19934401E+04</pdfrwt>
<pdfrwt beam="2">  1       -1 0.17520774E+00 0.19934401E+04</pdfrwt>
<totfact> 0.40129862E+00</totfact>
</mgrwt>
</event>
<event>
 6    1  0.2758433E-005  0.4686629E+04  0.7818608E-02  0.7878754E-01
          1   -1    0    0  501    0  0.00000000000E+00  0.00000000000E+00  0.27967260460E+04  0.27967260460E+04  0.00000000000E+00 0. -1.
         -1   -1    0    0    0  501 -0.00000000000E+00 -0.00000000000E+00 -0.19634107008E+04  0.19634107008E+04  0.00000000000E+00 0.  1.
         23    2    1    2    0    0 -0.57426153222E+03  0.15365920829E+04  0.21152171483E+04  0.26782712925E+04  0.90011083815E+02 0.  0.
         11    1    3    3    0    0 -0.23667810057E+03  0.64033087060E+03  0.80857891423E+03  0.10582249325E+04  0.00000000000E+00 0. -1.
        -11    1    3    3    0    0 -0.33758343166E+03  0.89626121231E+03  0.13066382341E+04  0.16200463601E+04  0.00000000000E+00 0.  1.
         22    1    1    2    0    0  0.57426153222E+03 -0.15365920829E+04 -0.12819018032E+04  0.20818654543E+04  0.00000000000E+00 0.  1.
<mgrwt>
<rscale>  0 0.46866286E+04</rscale>
<asrwt>0</asrwt>
<pdfrwt beam="1">  1        1 0.43026555E+00 0.46866286E+04</pdfrwt>
<pdfrwt beam="2">  1       -1 0.30206318E+00 0.46866286E+04</pdfrwt>
<totfact> 0.19859639E-02</totfact>
</mgrwt>
</event>
<event>
 6    1  0.1762360E-005  0.2350009E+04  0.7818608E-02  0.8458460E-01
          1   -1    0    0  501    0  0.00000000000E+00  0.00000000000E+00  0.15542389533E+04  0.15542389533E+04  0.00000000000E+00 0. -1.
         -1   -1    0    0    0  501 -0.00000000000E+00 -0.00000000000E+00 -0.88830298223E+03  0.88830298223E+03  0.00000000000E+00 0.  1.
         23    2    1    2    0    0  0.55745047975E+02  0.10263112870E+04  0.92134611417E+03  0.13834589787E+04  0.93046845700E+02 0.  0.
         13    1    3    3    0    0  0.37144201566E+02  0.90799589062E+03  0.77495370853E+03  0.11943154857E+04  0.00000000000E+00 0. -1.
        -13    1    3    3    0    0  0.18600846410E+02  0.11831539635E+03  0.14639240565E+03  0.18914349297E+03  0.00000000000E+00 0.  1.
         22    1    1    2    0    0 -0.55745047975E+02 -0.10263112870E+04 -0.25541014315E+03  0.10590829568E+04  0.00000000000E+00 0.  1.
<mgrwt>
<rscale>  0 0.23500086E+04</rscale>
<asrwt>0</asrwt>
<pdfrwt beam="1">  1        1 0.23911368E+00 0.23500086E+04</pdfrwt>
<pdfrwt beam="2">  1       -1 0.13666200E+00 0.23500086E+04</pdfrwt>
<totfact> 0.24103915E+00</totfact>
</mgrwt>
</event>
<event>
 6    1  0.1762360E-005  0.1200342E+04  0.7818608E-02  0.9112557E-01
          1   -1    0    0  501    0  0.00000000000E+00  0.00000000000E+00  0.79210358481E+03  0.79210358481E+03  0.00000000000E+00 0. -1.
         -1   -1    0    0    0  501 -0.00000000000E+00 -0.00000000000E+00 -0.45474541668E+03  0.45474541668E+03  0.00000000000E+00 0.  1.
         23    2    1    2    0    0  0.23956463707E+03  0.33343494865E+03  0.61944672211E+03  0.74870842635E+03  0.90994427514E+02 0.  0.
         13    1    3    3    0    0  0.95316267574E+02  0.20721465580E+03  0.35912369381E+03  0.42543264084E+03  0.00000000000E+00 0.  1.
        -13    1    3    3    0    0  0.14424836949E+03  0.12622029285E+03  0.26032302831E+03  0.32327578551E+03  0.00000000000E+00 0. -1.
         22    1    1    2    0    0 -0.23956463707E+03 -0.33343494865E+03 -0.28208855399E+03  0.49814057514E+03  0.00000000000E+00 0.  1.
<mgrwt>
<rscale>  0 0.12003424E+04</rscale>
<asrwt>0</asrwt>
<pdfrwt beam="1">  1        1 0.12186209E+00 0.12003424E+04</pdfrwt>
<pdfrwt beam="2">  1       -1 0.69960834E-01 0.12003424E+04</pdfrwt>
<totfact> 0.45938779E+01</totfact>
</mgrwt>
</event>
<event>
 6    1  0.1762360E-005  0.3006401E+04  0.7818608E-02  0.8241905E-01
          2   -1    0    0  501    0  0.00000000000E+00  0.00000000000E+00  0.31220197707E+04  0.31220197707E+04  0.00000000000E+00 0. -1.
         -2   -1    0    0    0  501 -0.00000000000E+00 -0.00000000000E+00 -0.72376602064E+03  0.72376602064E+03  0.00000000000E+00 0.  1.
         23    2    1    2    0    0 -0.10400608060E+03 -0.67887295335E+03 -0.50835709948E+03  0.85913676906E+03  0.89461141002E+02 0.  0.
         13    1    3    3    0    0 -0.57330460956E+02 -0.13742196003E+03 -0.10022060039E+03  0.17948745247E+03  0.00000000000E+00 0. -1.
        -13    1    3    3    0    0 -0.46675619642E+02 -0.54145099332E+03 -0.40813649909E+03  0.67964931658E+03  0.00000000000E+00 0.  1.
         22    1    1    2    0    0  0.10400608060E+03  0.67887295335E+03  0.29066108496E+04  0.29866490223E+04  0.00000000000E+00 0. -1.
<mgrwt>
<rscale>  0 0.30064011E+04</rscale>
<asrwt>0</asrwt>
<pdfrwt beam="1">  1        2 0.48031073E+00 0.30064011E+04</pdfrwt>
<pdfrwt beam="2">  1       -2 0.11134862E+00 0.30064011E+04</pdfrwt>
<totfact> 0.79445131E-01</totfact>
</mgrwt>
</event>
<event>
 6    1  0.1762360E-005  0.2825186E+04  0.7818608E-02  0.8295491E-01
          2   -1    0    0  501    0  0.00000000000E+00  0.00000000000E+00  0.18263711243E+04  0.18263711243E+04  0.00000000000E+00 0.  1.
         -2   -1    0    0    0  501 -0.00000000000E+00 -0.00000000000E+00 -0.10925594631E+04  0.10925594631E+04  0.00000000000E+00 0. -1.
         23    2    1    2    0    0 -0.48498675914E+02 -0.81071019482E+03  0.15591947131E+04  0.17609753534E+04  0.10170005200E+03 0.  0.
         13    1    3    3    0    0 -0.31202645324E+02 -0.27363934842E+03  0.63048338960E+03  0.68801264715E+03  0.00000000000E+00 0. -1.
        -13    1    3    3    0    0 -0.17296030590E+02 -0.53707084641E+03  0.92871132349E+03  0.10729627063E+04  0.00000000000E+00 0.  1.
         22    1    1    2    0    0  0.48498675914E+02  0.81071019482E+03 -0.82538305185E+03  0.11579552340E+04  0.00000000000E+00 0. -1.
<mgrwt>
<rscale>  0 0.28251861E+04</rscale>
<asrwt>0</asrwt>
<pdfrwt beam="1">  1        2 0.28098017E+00 0.28251861E+04</pdfrwt>
<pdfrwt beam="2">  1       -2 0.16808607E+00 0.28251861E+04</pdfrwt>
<totfact> 0.15936732E+00</totfact>
</mgrwt>
</event>
<event>
 6    1  0.1762360E-005  0.1856858E+04  0.7818608E-02  0.8676634E-01
          2   -1    0    0  501    0  0.00000000000E+00  0.00000000000E+00  0.57944749027E+03  0.57944749027E+03  0.00000000000E+00 0. -1.
         -2   -1    0    0    0  501 -0.00000000000E+00 -0.00000000000E+00 -0.14875898940E+04  0.14875898940E+04  0.00000000000E+00 0.  1.
         23    2    1    2    0    0 -0.56238105301E+03  0.72819384374E+03 -0.33723723397E+03  0.98423018271E+03  0.91876970745E+02 0.  0.
         11    1    3    3    0    0 -0.30058886197E+03  0.32077057866E+03 -0.14041655820E+03  0.46148048485E+03  0.00000000000E+00 0. -1.
        -11    1    3    3    0    0 -0.26179219103E+03  0.40742326508E+03 -0.19682067577E+03  0.52274969787E+03  0.00000000000E+00 0.  1.
         22    1    1    2    0    0  0.56238105301E+03 -0.72819384374E+03 -0.57090516971E+03  0.10828072015E+04  0.00000000000E+00 0. -1.
<mgrwt>
<rscale>  0 0.18568578E+04</rscale>
<asrwt>0</asrwt>
<pdfrwt beam="1">  1        2 0.89145768E-01 0.18568578E+04</pdfrwt>
<pdfrwt beam="2">  1       -2 0.22885998E+00 0.18568578E+04</pdfrwt>
<totfact> 0.42230007E+00</totfact>
</mgrwt>
</event>
<event>
 6    1  0.1762360E-005  0.2971947E+04  0.7818608E-02  0.8251787E-01
          2   -1    0    0  501    0  0.00000000000E+00  0.00000000000E+00  0.25404184201E+04  0.25404184201E+04  0.00000000000E+00 0. -1.
         -2   -1    0    0    0  501 -0.00000000000E+00 -0.00000000000E+00 -0.86919438918E+03  0.86919438918E+03  0.00000000000E+00 0.  1.
         23    2    1    2    0    0  0.13292186957E+04  0.29369623626E+03  0.15692830559E+03  0.13733978491E+04  0.92278592268E+02 0.  0.
         13    1    3    3    0    0  0.88272316875E+03  0.16582476801E+03  0.69997428334E+02  0.90088716625E+03  0.00000000000E+00 0. -1.
        -13    1    3    3    0    0  0.44649552697E+03  0.12787146826E+03  0.86930877253E+02  0.47251068286E+03  0.00000000000E+00 0.  1.
         22    1    1    2    0    0 -0.13292186957E+04 -0.29369623626E+03  0.15142957254E+04  0.20362149602E+04  0.00000000000E+00 0. -1.
<mgrwt>
<rscale>  0 0.29719471E+04</rscale>
<asrwt>0</asrwt>
<pdfrwt beam="1">  1        2 0.39083360E+00 0.29719471E+04</pdfrwt>
<pdfrwt beam="2">  1       -2 0.13372221E+00 0.29719471E+04</pdfrwt>
<totfact> 0.11434070E+00</totfact>
</mgrwt>
</event>
<event>
 6    1  0.1762360E-005  0.3842290E+04  0.7818608E-02  0.8037140E-01
          2   -1    0    0  501    0  0.00000000000E+00  0.00000000000E+00  0.17466294464E+04  0.17466294464E+04  0.00000000000E+00 0. -1.
         -2   -1    0    0    0  501 -0.00000000000E+00 -0.00000000000E+00 -0.21130972469E+04  0.21130972469E+04  0.00000000000E+00 0.  1.
         23    2    1    2    0    0  0.14371284830E+04  0.12089723511E+04  0.21795165289E+03  0.18928767957E+04  0.92342938799E+02 0.  0.
         11    1    3    3    0    0  0.13387727453E+04  0.11180654533E+04  0.22535205781E+03  0.17587399954E+04  0.00000000000E+00 0. -1.
        -11    1    3    3    0    0  0.98355737648E+02  0.90906897723E+02 -0.74004049276E+01  0.13413680023E+03  0.00000000000E+00 0.  1.
         22    1    1    2    0    0 -0.14371284830E+04 -0.12089723511E+04 -0.58441945339E+03  0.19668498976E+04  0.00000000000E+00 0.  1.
<mgrwt>
<rscale>  0 0.38422899E+04</rscale>
<asrwt>0</asrwt>
<pdfrwt beam="1">  1        2 0.26871222E+00 0.38422899E+04</pdfrwt>
<pdfrwt beam="2">  1       -2 0.32509189E+00 0.38422899E+04</pdfrwt>
<totfact> 0.16435238E-01</totfact>
</mgrwt>
</event>
<event>
 6    1  0.1762360E-005  0.1305785E+04  0.7818608E-02  0.9024990E-01
          2   -1    0    0  501    0  0.00000000000E+00  0.00000000000E+00  0.38883174472E+04  0.38883174472E+04  0.00000000000E+00 0. -1.
         -2   -1    0    0    0  501 -0.00000000000E+00 -0.00000000000E+00 -0.10962796955E+03  0.10962796955E+03  0.00000000000E+00 0.  1.
         23    2    1    2    0    0 -0.41863559872E+02 -0.12626799385E+03  0.38457673311E+04  0.38489635308E+04  0.83052586575E+02 0.  0.
         13    1    3    3    0    0 -0.60241903826E+02 -0.52146194550E+02  0.21551549302E+04  0.21566272478E+04  0.00000000000E+00 0. -1.
        -13    1    3    3    0    0  0.18378343955E+02 -0.74121799302E+02  0.16906124009E+04  0.16923362830E+04  0.00000000000E+00 0.  1.
         22    1    1    2    0    0  0.41863559872E+02  0.12626799385E+03 -0.67077853495E+02  0.14898188597E+03  0.00000000000E+00 0.  1.
<mgrwt>
<rscale>  0 0.13057846E+04</rscale>
<asrwt>0</asrwt>
<pdfrwt beam="1">  1        2 0.59820258E+00 0.13057846E+04</pdfrwt>
<pdfrwt beam="2">  1       -2 0.16865844E-01 0.13057846E+04</pdfrwt>
<totfact> 0.12186583E+01</totfact>
</mgrwt>
</event>
<event>
 6    1  0.1762360E-005  0.9960643E+03  0.7818608E-02  0.9312872E-01
          2   -1    0    0  501    0  0.00000000000E+00  0.00000000000E+00  0.12585856340E+04  0.12585856340E+04  0.00000000000E+00 0. -1.
         -2   -1    0    0    0  501 -0.00000000000E+00 -0.00000000000E+00 -0.19707520244E+03  0.19707520244E+03  0.00000000000E+00 0.  1.
         23    2    1    2    0    0 -0.24934089337E+03  0.33983650436E+02 -0.87216464340E+02  0.27969346828E+03  0.85416362279E+02 0.  0.
         11    1    3    3    0    0 -0.15358170355E+03  0.38319602154E+02 -0.13682813693E+02  0.15888030390E+03  0.00000000000E+00 0. -1.
        -11    1    3    3    0    0 -0.95759189815E+02 -0.43359517184E+01 -0.73533650647E+02  0.12081316439E+03  0.00000000000E+00 0.  1.
         22    1    1    2    0    0  0.24934089337E+03 -0.33983650436E+02  0.11487268959E+04  0.11759673682E+04  0.00000000000E+00 0. -1.
<mgrwt>
<rscale>  0 0.99606429E+03</rscale>
<asrwt>0</asrwt>
<pdfrwt beam="1">  1        2 0.19362855E+00 0.99606429E+03</pdfrwt>
<pdfrwt beam="2">  1       -2 0.30319263E-01 0.99606429E+03</pdfrwt>
<totfact> 0.17525964E+02</totfact>
</mgrwt>
</event>
<event>
 6    1  0.1762360E-005  0.1878914E+04  0.7818608E-02  0.8665424E-01
          1   -1    0    0  501    0  0.00000000000E+00  0.00000000000E+00  0.95481426130E+03  0.95481426130E+03  0.00000000000E+00 0. -1.
         -1   -1    0    0    0  501 -0.00000000000E+00 -0.00000000000E+00 -0.92434660872E+03  0.92434660872E+03  0.00000000000E+00 0.  1.
         23    2    1    2    0    0 -0.79227084080E+02 -0.57142234572E+03 -0.72326688667E+03  0.92999482358E+03  0.94736236378E+02 0.  0.
         13    1    3    3    0    0  0.80417446054E+00 -0.33340221030E+03 -0.40411038176E+03  0.52389205107E+03  0.00000000000E+00 0. -1.
        -13    1    3    3    0    0 -0.80031258541E+02 -0.23802013543E+03 -0.31915650492E+03  0.40610277251E+03  0.00000000000E+00 0.  1.
         22    1    1    2    0    0  0.79227084080E+02  0.57142234572E+03  0.75373453926E+03  0.94916604644E+03  0.00000000000E+00 0. -1.
<mgrwt>
<rscale>  0 0.18789139E+04</rscale>
<asrwt>0</asrwt>
<pdfrwt beam="1">  1        1 0.14689450E+00 0.18789139E+04</pdfrwt>
<pdfrwt beam="2">  1       -1 0.14220717E+00 0.18789139E+04</pdfrwt>
<totfact> 0.61950712E+00</totfact>
</mgrwt>
</event>
<event>
 6    1  0.1762360E-005  0.3972015E+04  0.7818608E-02  0.8010216E-01
         -1   -1    0    0    0  501 -0.00000000000E+00  0.00000000000E+00  0.15555636135E+04  0.15555636135E+04  0.00000000000E+00 0.  1.
          1   -1    0    0  501    0  0.00000000000E+00 -0.00000000000E+00 -0.25355603191E+04  0.25355603191E+04  0.00000000000E+00 0. -1.
         23    2    1    2    0    0 -0.13937566546E+04 -0.12414900051E+04 -0.11857078081E+04  0.22133134782E+04  0.94860431540E+02 0.  0.
         13    1    3    3    0    0 -0.30379769116E+03 -0.32464612045E+03 -0.28055754994E+03  0.52573822337E+03  0.00000000000E+00 0.  1.
        -13    1    3    3    0    0 -0.10899589634E+04 -0.91684388466E+03 -0.90515025820E+03  0.16875752548E+04  0.00000000000E+00 0. -1.
         22    1    1    2    0    0  0.13937566546E+04  0.12414900051E+04  0.20571110248E+03  0.18778104544E+04  0.00000000000E+00 0.  1.
<mgrwt>
<rscale>  0 0.39720148E+04</rscale>
<asrwt>0</asrwt>
<pdfrwt beam="1">  1        1 0.39008620E+00 0.39720148E+04</pdfrwt>
<pdfrwt beam="2">  1       -1 0.23931748E+00 0.39720148E+04</pdfrwt>
<totfact> 0.82234386E-02</totfact>
</mgrwt>
</event>
<event>
 6    1  0.1762360E-005  0.1486310E+04  0.7818608E-02  0.8893608E-01
          3   -1    0    0  501    0  0.00000000000E+00  0.00000000000E+00  0.17576819089E+04  0.17576819089E+04  0.00000000000E+00 0. -1.
         -3   -1    0    0    0  501 -0.00000000000E+00 -0.00000000000E+00 -0.31420886555E+03  0.31420886555E+03  0.00000000000E+00 0.  1.
         23    2    1    2    0    0  0.17522311931E+03 -0.59378413689E+03  0.15853526315E+03  0.64558511235E+03  0.91454714839E+02 0.  0.
         13    1    3    3    0    0  0.12914860152E+03 -0.36251792568E+03  0.13820156203E+03  0.40889886214E+03  0.00000000000E+00 0. -1.
        -13    1    3    3    0    0  0.46074517785E+02 -0.23126621121E+03  0.20333701122E+02  0.23668625021E+03  0.00000000000E+00 0.  1.
         22    1    1    2    0    0 -0.17522311931E+03  0.59378413689E+03  0.12849377802E+04  0.14263056621E+04  0.00000000000E+00 0. -1.
<mgrwt>
<rscale>  0 0.14863098E+04</rscale>
<asrwt>0</asrwt>
<pdfrwt beam="1">  1        3 0.27041260E+00 0.14863098E+04</pdfrwt>
<pdfrwt beam="2">  1       -3 0.48339826E-01 0.14863098E+04</pdfrwt>
<totfact> 0.61089352E-01</totfact>
</mgrwt>
</event>
<event>
 6    1  0.1762360E-005  0.1944708E+04  0.7818608E-02  0.8632917E-01
          1   -1    0    0  501    0  0.00000000000E+00  0.00000000000E+00  0.42278779549E+03  0.42278779549E+03  0.00000000000E+00 0. -1.
         -1   -1    0    0    0  501 -0.00000000000E+00 -0.00000000000E+00 -0.22362809957E+04  0.22362809957E+04  0.00000000000E+00 0.  1.
         23    2    1    2    0    0 -0.61108304472E+03  0.51655959906E+03 -0.16590967045E+04  0.18441488044E+04  0.89591467243E+02 0.  0.
         13    1    3    3    0    0 -0.33072108725E+03  0.24163025853E+03 -0.92514225598E+03  0.10117558071E+04  0.00000000000E+00 0.  1.
        -13    1    3    3    0    0 -0.28036195747E+03  0.27492934053E+03 -0.73395444855E+03  0.83239299734E+03  0.00000000000E+00 0. -1.
         22    1    1    2    0    0  0.61108304472E+03 -0.51655959906E+03 -0.15439649568E+03  0.81491998675E+03  0.00000000000E+00 0. -1.
<mgrwt>
<rscale>  0 0.19447080E+04</rscale>
<asrwt>0</asrwt>
<pdfrwt beam="1">  1        1 0.65044278E-01 0.19447080E+04</pdfrwt>
<pdfrwt beam="2">  1       -1 0.34404322E+00 0.19447080E+04</pdfrwt>
<totfact> 0.88489884E-01</totfact>
</mgrwt>
</event>
<event>
 6    1  0.1762360E-005  0.1841730E+04  0.7818608E-02  0.8684418E-01
         -2   -1    0    0    0  501 -0.00000000000E+00  0.00000000000E+00  0.35320302235E+03  0.35320302235E+03  0.00000000000E+00 0.  1.
          2   -1    0    0  501    0  0.00000000000E+00 -0.00000000000E+00 -0.24008629144E+04  0.24008629144E+04  0.00000000000E+00 0. -1.
         23    2    1    2    0    0 -0.35979827711E+02 -0.87154341760E+03 -0.58862958991E+03  0.10541683224E+04  0.62478644647E+02 0.  0.
         13    1    3    3    0    0 -0.50853143652E+02 -0.51101025599E+03 -0.33620170249E+03  0.61379891553E+03  0.00000000000E+00 0. -1.
        -13    1    3    3    0    0  0.14873315941E+02 -0.36053316160E+03 -0.25242788742E+03  0.44036940685E+03  0.00000000000E+00 0.  1.
         22    1    1    2    0    0  0.35979827711E+02  0.87154341760E+03 -0.14590303022E+04  0.16998976144E+04  0.00000000000E+00 0. -1.
<mgrwt>
<rscale>  0 0.18417297E+04</rscale>
<asrwt>0</asrwt>
<pdfrwt beam="1">  1        2 0.36936353E+00 0.18417297E+04</pdfrwt>
<pdfrwt beam="2">  1       -2 0.54338926E-01 0.18417297E+04</pdfrwt>
<totfact> 0.11920277E+01</totfact>
</mgrwt>
</event>
<event>
 6    1  0.1762360E-005  0.1046537E+04  0.7818608E-02  0.9258927E-01
         -2   -1    0    0    0  501 -0.00000000000E+00  0.00000000000E+00  0.86144647139E+03  0.86144647139E+03  0.00000000000E+00 0. -1.
          2   -1    0    0  501    0  0.00000000000E+00 -0.00000000000E+00 -0.31784912027E+03  0.31784912027E+03  0.00000000000E+00 0.  1.
         23    2    1    2    0    0 -0.24843676170E+03  0.44536041329E+03  0.16295662232E+03  0.54293556250E+03  0.90318558332E+02 0.  0.
         11    1    3    3    0    0 -0.21053354677E+03  0.29667665839E+03  0.10184722071E+03  0.37777542312E+03  0.00000000000E+00 0.  1.
        -11    1    3    3    0    0 -0.37903214924E+02  0.14868375490E+03  0.61109401617E+02  0.16516013938E+03  0.00000000000E+00 0. -1.
         22    1    1    2    0    0  0.24843676170E+03 -0.44536041329E+03  0.38064072880E+03  0.63636002916E+03  0.00000000000E+00 0. -1.
<mgrwt>
<rscale>  0 0.10465372E+04</rscale>
<asrwt>0</asrwt>
<pdfrwt beam="1">  1        2 0.48899865E-01 0.10465372E+04</pdfrwt>
<pdfrwt beam="2">  1       -2 0.13253023E+00 0.10465372E+04</pdfrwt>
<totfact> 0.42359733E+01</totfact>
</mgrwt>
</event>
<event>
 6    1  0.1762360E-005  0.1824449E+04  0.7818608E-02  0.8693405E-01
         -2   -1    0    0    0  501 -0.00000000000E+00  0.00000000000E+00  0.29255506025E+03  0.29255506025E+03  0.00000000000E+00 0.  1.
          2   -1    0    0  501    0  0.00000000000E+00 -0.00000000000E+00 -0.28444330169E+04  0.28444330169E+04  0.00000000000E+00 0. -1.
         23    2    1    2    0    0 -0.56015575422E+03 -0.61288971952E+03 -0.19190770836E+04  0.20930315540E+04  0.92281938337E+02 0.  0.
         11    1    3    3    0    0 -0.22834062340E+03 -0.27930318705E+03 -0.73090181322E+03  0.81508721690E+03  0.00000000000E+00 0. -1.
        -11    1    3    3    0    0 -0.33181513082E+03 -0.33358653247E+03 -0.11881752704E+04  0.12779443371E+04  0.00000000000E+00 0.  1.
         22    1    1    2    0    0  0.56015575422E+03  0.61288971952E+03 -0.63280087312E+03  0.10439565232E+04  0.00000000000E+00 0.  1.
<mgrwt>
<rscale>  0 0.18244487E+04</rscale>
<asrwt>0</asrwt>
<pdfrwt beam="1">  1        2 0.43760508E+00 0.18244487E+04</pdfrwt>
<pdfrwt beam="2">  1       -2 0.45008470E-01 0.18244487E+04</pdfrwt>
<totfact> 0.96106593E+00</totfact>
</mgrwt>
</event>
<event>
 6    1  0.1762360E-005  0.5312001E+03  0.7818608E-02  0.1005942E+00
         -2   -1    0    0    0  501 -0.00000000000E+00  0.00000000000E+00  0.90615763438E+02  0.90615763438E+02  0.00000000000E+00 0.  1.
          2   -1    0    0  501    0  0.00000000000E+00 -0.00000000000E+00 -0.77848900966E+03  0.77848900966E+03  0.00000000000E+00 0. -1.
         23    2    1    2    0    0 -0.21997218301E+03 -0.12042700612E+03 -0.25620269215E+03  0.36987547473E+03  0.90981438966E+02 0.  0.
         11    1    3    3    0    0 -0.14456716695E+03 -0.73105168552E+02 -0.10085985787E+03  0.19083171214E+03  0.00000000000E+00 0.  1.
        -11    1    3    3    0    0 -0.75405016056E+02 -0.47321837570E+02 -0.15534283428E+03  0.17904376258E+03  0.00000000000E+00 0. -1.
         22    1    1    2    0    0  0.21997218301E+03  0.12042700612E+03 -0.43167055407E+03  0.49922929837E+03  0.00000000000E+00 0. -1.
<mgrwt>
<rscale>  0 0.53120006E+03</rscale>
<asrwt>0</asrwt>
<pdfrwt beam="1">  1        2 0.11976754E+00 0.53120006E+03</pdfrwt>
<pdfrwt beam="2">  1       -2 0.13940887E-01 0.53120006E+03</pdfrwt>
<totfact> 0.14205723E+03</totfact>
</mgrwt>
</event>
<event>
 6    1  0.1762360E-005  0.1651269E+04  0.7818608E-02  0.8789656E-01
          2   -1    0    0  501    0  0.00000000000E+00  0.00000000000E+00  0.71354555899E+03  0.71354555899E+03  0.00000000000E+00 0. -1.
         -2   -1    0    0    0  501 -0.00000000000E+00 -0.00000000000E+00 -0.95533120538E+03  0.95533120538E+03  0.00000000000E+00 0.  1.
         23    2    1    2    0    0 -0.77594745800E+03 -0.27861997666E+02  0.15464967033E+03  0.79707878959E+03  0.92451759249E+02 0.  0.
         11    1    3    3    0    0 -0.15009343518E+03 -0.57275676280E+01  0.67960171507E+02  0.16486184891E+03  0.00000000000E+00 0. -1.
        -11    1    3    3    0    0 -0.62585402282E+03 -0.22134430038E+02  0.86689498820E+02  0.63221694068E+03  0.00000000000E+00 0.  1.
         22    1    1    2    0    0  0.77594745800E+03  0.27861997666E+02 -0.39643531671E+03  0.87179797478E+03  0.00000000000E+00 0.  1.
<mgrwt>
<rscale>  0 0.16512690E+04</rscale>
<asrwt>0</asrwt>
<pdfrwt beam="1">  1        2 0.10977624E+00 0.16512690E+04</pdfrwt>
<pdfrwt beam="2">  1       -2 0.14697403E+00 0.16512690E+04</pdfrwt>
<totfact> 0.12071121E+01</totfact>
</mgrwt>
</event>
<event>
 6    1  0.1762360E-005  0.2614831E+04  0.7818608E-02  0.8363181E-01
          2   -1    0    0  501    0  0.00000000000E+00  0.00000000000E+00  0.19166034230E+04  0.19166034230E+04  0.00000000000E+00 0. -1.
         -2   -1    0    0    0  501 -0.00000000000E+00 -0.00000000000E+00 -0.89185633321E+03  0.89185633321E+03  0.00000000000E+00 0.  1.
         23    2    1    2    0    0  0.41394209640E+03  0.12380043069E+04  0.55016260743E+03  0.14194913786E+04  0.90962390288E+02 0.  0.
         13    1    3    3    0    0  0.19824205311E+03  0.45415484047E+03  0.21187951763E+03  0.53893363296E+03  0.00000000000E+00 0. -1.
        -13    1    3    3    0    0  0.21570004329E+03  0.78384946639E+03  0.33828308980E+03  0.88055774569E+03  0.00000000000E+00 0.  1.
         22    1    1    2    0    0 -0.41394209640E+03 -0.12380043069E+04  0.47458448236E+03  0.13889683776E+04  0.00000000000E+00 0.  1.
<mgrwt>
<rscale>  0 0.26148307E+04</rscale>
<asrwt>0</asrwt>
<pdfrwt beam="1">  1        2 0.29486206E+00 0.26148307E+04</pdfrwt>
<pdfrwt beam="2">  1       -2 0.13720867E+00 0.26148307E+04</pdfrwt>
<totfact> 0.24855597E+00</totfact>
</mgrwt>
</event>
<event>
 6    1  0.1762360E-005  0.4560315E+04  0.7818608E-02  0.7900162E-01
          2   -1    0    0  501    0  0.00000000000E+00  0.00000000000E+00  0.23921955383E+04  0.23921955383E+04  0.00000000000E+00 0. -1.
         -2   -1    0    0    0  501 -0.00000000000E+00 -0.00000000000E+00 -0.21733669010E+04  0.21733669010E+04  0.00000000000E+00 0.  1.
         23    2    1    2    0    0  0.12689287687E+04  0.17881989301E+04  0.73234741786E+03  0.23135550744E+04  0.91480642824E+02 0.  0.
         13    1    3    3    0    0  0.90464334765E+03  0.12643617916E+04  0.56232741629E+03  0.16532399855E+04  0.00000000000E+00 0. -1.
        -13    1    3    3    0    0  0.36428542108E+03  0.52383713845E+03  0.17002000157E+03  0.66031508885E+03  0.00000000000E+00 0.  1.
         22    1    1    2    0    0 -0.12689287687E+04 -0.17881989301E+04 -0.51351878051E+03  0.22520073649E+04  0.00000000000E+00 0.  1.
<mgrwt>
<rscale>  0 0.45603152E+04</rscale>
<asrwt>0</asrwt>
<pdfrwt beam="1">  1        2 0.36803008E+00 0.45603152E+04</pdfrwt>
<pdfrwt beam="2">  1       -2 0.33436414E+00 0.45603152E+04</pdfrwt>
<totfact> 0.59058327E-02</totfact>
</mgrwt>
</event>
<event>
 6    1  0.1762360E-005  0.1453846E+04  0.7818608E-02  0.8915738E-01
          2   -1    0    0  501    0  0.00000000000E+00  0.00000000000E+00  0.27655713994E+04  0.27655713994E+04  0.00000000000E+00 0. -1.
         -2   -1    0    0    0  501 -0.00000000000E+00 -0.00000000000E+00 -0.19106979922E+03  0.19106979922E+03  0.00000000000E+00 0.  1.
         23    2    1    2    0    0  0.29729663463E+03  0.65038256827E+03  0.10853209536E+04  0.13046600328E+04  0.11328483907E+03 0.  0.
         13    1    3    3    0    0  0.12408260670E+03  0.39111817275E+03  0.66304828354E+03  0.77974543580E+03  0.00000000000E+00 0. -1.
        -13    1    3    3    0    0  0.17321402793E+03  0.25926439552E+03  0.42227267005E+03  0.52491459698E+03  0.00000000000E+00 0.  1.
         22    1    1    2    0    0 -0.29729663463E+03 -0.65038256827E+03  0.14891806466E+04  0.16519811658E+04  0.00000000000E+00 0. -1.
<mgrwt>
<rscale>  0 0.14538462E+04</rscale>
<asrwt>0</asrwt>
<pdfrwt beam="1">  1        2 0.42547250E+00 0.14538462E+04</pdfrwt>
<pdfrwt beam="2">  1       -2 0.29395356E-01 0.14538462E+04</pdfrwt>
<totfact> 0.25189168E+01</totfact>
</mgrwt>
</event>
<event>
 6    1  0.1762360E-005  0.2294329E+04  0.7818608E-02  0.8480160E-01
          2   -1    0    0  501    0  0.00000000000E+00  0.00000000000E+00  0.26770189724E+04  0.26770189724E+04  0.00000000000E+00 0.  1.
         -2   -1    0    0    0  501 -0.00000000000E+00 -0.00000000000E+00 -0.49158663267E+03  0.49158663267E+03  0.00000000000E+00 0. -1.
         23    2    1    2    0    0 -0.22126296449E+03 -0.89158771423E+03  0.15000911197E+03  0.93548364967E+03  0.93493173564E+02 0.  0.
         13    1    3    3    0    0 -0.15296428118E+03 -0.71771152831E+03  0.14830382579E+03  0.74866677095E+03  0.00000000000E+00 0.  1.
        -13    1    3    3    0    0 -0.68298683308E+02 -0.17387618592E+03  0.17052861776E+01  0.18681687872E+03  0.00000000000E+00 0. -1.
         22    1    1    2    0    0  0.22126296449E+03  0.89158771423E+03  0.20354232277E+04  0.22331219554E+04  0.00000000000E+00 0.  1.
<mgrwt>
<rscale>  0 0.22943293E+04</rscale>
<asrwt>0</asrwt>
<pdfrwt beam="1">  1        2 0.41184906E+00 0.22943293E+04</pdfrwt>
<pdfrwt beam="2">  1       -2 0.75628715E-01 0.22943293E+04</pdfrwt>
<totfact> 0.38969434E+00</totfact>
</mgrwt>
</event>
<event>
 6    1  0.1762360E-005  0.1439568E+04  0.7818608E-02  0.8925665E-01
         -2   -1    0    0    0  501 -0.00000000000E+00  0.00000000000E+00  0.24774869962E+03  0.24774869962E+03  0.00000000000E+00 0.  1.
          2   -1    0    0  501    0  0.00000000000E+00 -0.00000000000E+00 -0.20911886727E+04  0.20911886727E+04  0.00000000000E+00 0. -1.
         23    2    1    2    0    0 -0.56026950405E+03  0.10484725838E+03 -0.21873744274E+03  0.61714958724E+03  0.90181369592E+02 0.  0.
         11    1    3    3    0    0 -0.41033977996E+03  0.10984292345E+03 -0.18536206205E+03  0.46346876583E+03  0.00000000000E+00 0. -1.
        -11    1    3    3    0    0 -0.14992972409E+03 -0.49956650732E+01 -0.33375380693E+02  0.15368082142E+03  0.00000000000E+00 0.  1.
         22    1    1    2    0    0  0.56026950405E+03 -0.10484725838E+03 -0.16247025304E+04  0.17217877851E+04  0.00000000000E+00 0. -1.
<mgrwt>
<rscale>  0 0.14395684E+04</rscale>
<asrwt>0</asrwt>
<pdfrwt beam="1">  1        2 0.32172134E+00 0.14395684E+04</pdfrwt>
<pdfrwt beam="2">  1       -2 0.38115184E-01 0.14395684E+04</pdfrwt>
<totfact> 0.37513926E+01</totfact>
</mgrwt>
</event>
<event>
 6    1  0.1762360E-005  0.1644693E+04  0.7818608E-02  0.8793552E-01
          2   -1    0    0  501    0  0.00000000000E+00  0.00000000000E+00  0.12097817952E+04  0.12097817952E+04  0.00000000000E+00 0.  1.
         -2   -1    0    0    0  501 -0.00000000000E+00 -0.00000000000E+00 -0.55898849855E+03  0.55898849855E+03  0.00000000000E+00 0. -1.
         23    2    1    2    0    0 -0.69028154747E+03  0.39798211145E+03  0.11637986999E+03  0.80935584397E+03  0.81450796310E+02 0.  0.
         13    1    3    3    0    0 -0.57473631612E+03  0.32051856315E+03  0.12557790739E+03  0.66994312685E+03  0.00000000000E+00 0.  1.
        -13    1    3    3    0    0 -0.11554523135E+03  0.77463548301E+02 -0.91980373955E+01  0.13941271712E+03  0.00000000000E+00 0. -1.
         22    1    1    2    0    0  0.69028154747E+03 -0.39798211145E+03  0.53441342662E+03  0.95941444974E+03  0.00000000000E+00 0.  1.
<mgrwt>
<rscale>  0 0.16446934E+04</rscale>
<asrwt>0</asrwt>
<pdfrwt beam="1">  1        2 0.18612028E+00 0.16446934E+04</pdfrwt>
<pdfrwt beam="2">  1       -2 0.85998231E-01 0.16446934E+04</pdfrwt>
<totfact> 0.20955262E+01</totfact>
</mgrwt>
</event>
<event>
 6    1  0.1762360E-005  0.2786923E+04  0.7818608E-02  0.8307340E-01
          1   -1    0    0  501    0  0.00000000000E+00  0.00000000000E+00  0.11432676466E+04  0.11432676466E+04  0.00000000000E+00 0. -1.
         -1   -1    0    0    0  501 -0.00000000000E+00 -0.00000000000E+00 -0.16984075191E+04  0.16984075191E+04  0.00000000000E+00 0.  1.
         23    2    1    2    0    0 -0.23450788365E+03  0.98646685931E+03 -0.12502868985E+04  0.16123093944E+04  0.90628045591E+02 0.  0.
         11    1    3    3    0    0 -0.49627590275E+02  0.36500573327E+03 -0.41488871599E+03  0.55481954696E+03  0.00000000000E+00 0. -1.
        -11    1    3    3    0    0 -0.18488029338E+03  0.62146112604E+03 -0.83539818252E+03  0.10574898474E+04  0.00000000000E+00 0.  1.
         22    1    1    2    0    0  0.23450788365E+03 -0.98646685931E+03  0.69514702600E+03  0.12293657714E+04  0.00000000000E+00 0. -1.
<mgrwt>
<rscale>  0 0.27869226E+04</rscale>
<asrwt>0</asrwt>
<pdfrwt beam="1">  1        1 0.17588733E+00 0.27869226E+04</pdfrwt>
<pdfrwt beam="2">  1       -1 0.26129346E+00 0.27869226E+04</pdfrwt>
<totfact> 0.60016125E-01</totfact>
</mgrwt>
</event>
<event>
 6    1  0.1762360E-005  0.2825429E+04  0.7818608E-02  0.8295417E-01
         -2   -1    0    0    0  501 -0.00000000000E+00  0.00000000000E+00  0.21838636146E+04  0.21838636146E+04  0.00000000000E+00 0.  1.
          2   -1    0    0  501    0  0.00000000000E+00 -0.00000000000E+00 -0.91386749062E+03  0.91386749062E+03  0.00000000000E+00 0. -1.
         23    2    1    2    0    0 -0.11015374064E+04 -0.60151718600E+03  0.13431907177E+04  0.18405258589E+04  0.90368968227E+02 0.  0.
         13    1    3    3    0    0 -0.47838525898E+03 -0.31124798703E+03  0.59490301619E+03  0.82440121549E+03  0.00000000000E+00 0. -1.
        -13    1    3    3    0    0 -0.62315214744E+03 -0.29026919897E+03  0.74828770146E+03  0.10161246434E+04  0.00000000000E+00 0.  1.
         22    1    1    2    0    0  0.11015374064E+04  0.60151718600E+03 -0.73194593702E+02  0.12572052463E+04  0.00000000000E+00 0.  1.
<mgrwt>
<rscale>  0 0.28254288E+04</rscale>
<asrwt>0</asrwt>
<pdfrwt beam="1">  1        2 0.14059500E+00 0.28254288E+04</pdfrwt>
<pdfrwt beam="2">  1       -2 0.33597902E+00 0.28254288E+04</pdfrwt>
<totfact> 0.47473460E-01</totfact>
</mgrwt>
</event>
<event>
 6    1  0.1762360E-005  0.4297778E+04  0.7818608E-02  0.7947029E-01
         -1   -1    0    0    0  501 -0.00000000000E+00  0.00000000000E+00  0.10270702300E+04  0.10270702300E+04  0.00000000000E+00 0.  1.
          1   -1    0    0  501    0  0.00000000000E+00 -0.00000000000E+00 -0.44960162316E+04  0.44960162316E+04  0.00000000000E+00 0. -1.
         23    2    1    2    0    0 -0.10349099533E+04  0.13197938965E+04 -0.34597258623E+04  0.38458925099E+04  0.91058303001E+02 0.  0.
         13    1    3    3    0    0 -0.68759860849E+03  0.84119096043E+03 -0.21533167884E+04  0.24118804426E+04  0.00000000000E+00 0. -1.
        -13    1    3    3    0    0 -0.34731134485E+03  0.47860293609E+03 -0.13064090739E+04  0.14340120673E+04  0.00000000000E+00 0.  1.
         22    1    1    2    0    0  0.10349099533E+04 -0.13197938965E+04 -0.92201392446E+01  0.16771939517E+04  0.00000000000E+00 0.  1.
<mgrwt>
<rscale>  0 0.42977782E+04</rscale>
<asrwt>0</asrwt>
<pdfrwt beam="1">  1        1 0.69169479E+00 0.42977782E+04</pdfrwt>
<pdfrwt beam="2">  1       -1 0.15801081E+00 0.42977782E+04</pdfrwt>
<totfact> 0.74674270E-03</totfact>
</mgrwt>
</event>
<event>
 6    1  0.1762360E-005  0.3505881E+04  0.7818608E-02  0.8112398E-01
          1   -1    0    0  501    0  0.00000000000E+00  0.00000000000E+00  0.13874618832E+04  0.13874618832E+04  0.00000000000E+00 0. -1.
         -1   -1    0    0    0  501 -0.00000000000E+00 -0.00000000000E+00 -0.22146922710E+04  0.22146922710E+04  0.00000000000E+00 0.  1.
         23    2    1    2    0    0  0.10055652948E+04 -0.65294278783E+03  0.89832435828E+03  0.15009556801E+04  0.91572128148E+02 0.  0.
         13    1    3    3    0    0  0.29531947873E+03 -0.18763430773E+03  0.21141134348E+03  0.40879699621E+03  0.00000000000E+00 0. -1.
        -13    1    3    3    0    0  0.71024581605E+03 -0.46530848010E+03  0.68691301480E+03  0.10921586839E+04  0.00000000000E+00 0.  1.
         22    1    1    2    0    0 -0.10055652948E+04  0.65294278783E+03 -0.17255547460E+04  0.21011984741E+04  0.00000000000E+00 0.  1.
<mgrwt>
<rscale>  0 0.35058814E+04</rscale>
<asrwt>0</asrwt>
<pdfrwt beam="1">  1        1 0.21345568E+00 0.35058814E+04</pdfrwt>
<pdfrwt beam="2">  1       -1 0.34072189E+00 0.35058814E+04</pdfrwt>
<totfact> 0.11437789E-01</totfact>
</mgrwt>
</event>
<event>
 6    1  0.1762360E-005  0.3109938E+04  0.7818608E-02  0.8213016E-01
         -1   -1    0    0    0  501 -0.00000000000E+00  0.00000000000E+00  0.11133329663E+04  0.11133329663E+04  0.00000000000E+00 0.  1.
          1   -1    0    0  501    0  0.00000000000E+00 -0.00000000000E+00 -0.21717935499E+04  0.21717935499E+04  0.00000000000E+00 0. -1.
         23    2    1    2    0    0  0.99234788883E+03 -0.10628166277E+04  0.48424486204E+02  0.14576889456E+04  0.90435693700E+02 0.  0.
         13    1    3    3    0    0  0.74382752795E+03 -0.83980399260E+03  0.61347151974E+02  0.11235273074E+04  0.00000000000E+00 0. -1.
        -13    1    3    3    0    0  0.24852036088E+03 -0.22301263511E+03 -0.12922665770E+02  0.33416163825E+03  0.00000000000E+00 0.  1.
         22    1    1    2    0    0 -0.99234788883E+03  0.10628166277E+04 -0.11068850698E+04  0.18274375706E+04  0.00000000000E+00 0.  1.
<mgrwt>
<rscale>  0 0.31099385E+04</rscale>
<asrwt>0</asrwt>
<pdfrwt beam="1">  1        1 0.33412208E+00 0.31099385E+04</pdfrwt>
<pdfrwt beam="2">  1       -1 0.17128200E+00 0.31099385E+04</pdfrwt>
<totfact> 0.46224893E-01</totfact>
</mgrwt>
</event>
<event>
 6    1  0.1762360E-005  0.2717769E+04  0.7818608E-02  0.8329263E-01
          1   -1    0    0  501    0  0.00000000000E+00  0.00000000000E+00  0.22237701554E+04  0.22237701554E+04  0.00000000000E+00 0. -1.
         -1   -1    0    0    0  501 -0.00000000000E+00 -0.00000000000E+00 -0.83037659271E+03  0.83037659271E+03  0.00000000000E+00 0.  1.
         23    2    1    2    0    0 -0.25725624836E+03  0.13050428697E+04  0.39364430662E+03  0.13901707134E+04  0.91110389134E+02 0.  0.
         13    1    3    3    0    0 -0.16541947315E+03  0.10275774865E+04  0.29739480766E+03  0.10824614379E+04  0.00000000000E+00 0.  1.
        -13    1    3    3    0    0 -0.91836775216E+02  0.27746538320E+03  0.96249498957E+02  0.30770927546E+03  0.00000000000E+00 0. -1.
         22    1    1    2    0    0  0.25725624836E+03 -0.13050428697E+04  0.99974925611E+03  0.16639760348E+04  0.00000000000E+00 0. -1.
<mgrwt>
<rscale>  0 0.27177687E+04</rscale>
<asrwt>0</asrwt>
<pdfrwt beam="1">  1        1 0.34211848E+00 0.27177687E+04</pdfrwt>
<pdfrwt beam="2">  1       -1 0.12775025E+00 0.27177687E+04</pdfrwt>
<totfact> 0.96938687E-01</totfact>
</mgrwt>
</event>
<event>
 6    1  0.1762360E-005  0.1098973E+04  0.7818608E-02  0.9206193E-01
         -1   -1    0    0    0  501 -0.00000000000E+00  0.00000000000E+00  0.66025589879E+03  0.66025589879E+03  0.00000000000E+00 0.  1.
          1   -1    0    0  501    0  0.00000000000E+00 -0.00000000000E+00 -0.45730080089E+03  0.45730080089E+03  0.00000000000E+00 0. -1.
         23    2    1    2    0    0  0.25068642125E+03 -0.20276435924E+03  0.55046151544E+03  0.64351263273E+03  0.84519591377E+02 0.  0.
         13    1    3    3    0    0  0.14786659778E+03 -0.15992331084E+03  0.31421014527E+03  0.38231925335E+03  0.00000000000E+00 0.  1.
        -13    1    3    3    0    0  0.10281982347E+03 -0.42841048399E+02  0.23625137017E+03  0.26119337938E+03  0.00000000000E+00 0. -1.
         22    1    1    2    0    0 -0.25068642125E+03  0.20276435924E+03 -0.34750641754E+03  0.47404406695E+03  0.00000000000E+00 0. -1.
<mgrwt>
<rscale>  0 0.10989733E+04</rscale>
<asrwt>0</asrwt>
<pdfrwt beam="1">  1        1 0.70353970E-01 0.10989733E+04</pdfrwt>
<pdfrwt beam="2">  1       -1 0.10157783E+00 0.10989733E+04</pdfrwt>
<totfact> 0.45925392E+01</totfact>
</mgrwt>
</event>
<event>
 6    1  0.1762360E-005  0.1621307E+04  0.7818608E-02  0.8807564E-01
         -1   -1    0    0    0  501 -0.00000000000E+00  0.00000000000E+00  0.15548689848E+04  0.15548689848E+04  0.00000000000E+00 0.  1.
          1   -1    0    0  501    0  0.00000000000E+00 -0.00000000000E+00 -0.42264613198E+03  0.42264613198E+03  0.00000000000E+00 0. -1.
         23    2    1    2    0    0 -0.45995270086E+03  0.25247102003E+03 -0.18192452305E+03  0.56249517752E+03  0.89477313652E+02 0.  0.
         11    1    3    3    0    0 -0.38304362284E+03  0.19381258842E+03 -0.11356772148E+03  0.44405333440E+03  0.00000000000E+00 0.  1.
        -11    1    3    3    0    0 -0.76909078026E+02  0.58658431605E+02 -0.68356801565E+02  0.11844184312E+03  0.00000000000E+00 0. -1.
         22    1    1    2    0    0  0.45995270086E+03 -0.25247102003E+03  0.13141473758E+04  0.14150199392E+04  0.00000000000E+00 0.  1.
<mgrwt>
<rscale>  0 0.16213073E+04</rscale>
<asrwt>0</asrwt>
<pdfrwt beam="1">  1        1 0.65022483E-01 0.16213073E+04</pdfrwt>
<pdfrwt beam="2">  1       -1 0.23921061E+00 0.16213073E+04</pdfrwt>
<totfact> 0.43805267E+00</totfact>
</mgrwt>
</event>
<event>
 6    1  0.1762360E-005  0.2652639E+04  0.7818608E-02  0.8350538E-01
          2   -1    0    0  501    0  0.00000000000E+00  0.00000000000E+00  0.19750263788E+04  0.19750263788E+04  0.00000000000E+00 0. -1.
         -2   -1    0    0    0  501 -0.00000000000E+00 -0.00000000000E+00 -0.89068342294E+03  0.89068342294E+03  0.00000000000E+00 0.  1.
         23    2    1    2    0    0 -0.38660002329E+03 -0.12374928394E+04  0.83694535525E+03  0.15458409907E+04  0.91097395059E+02 0.  0.
         11    1    3    3    0    0 -0.21370126617E+03 -0.53238468960E+03  0.36843817333E+03  0.68179790000E+03  0.00000000000E+00 0.  1.
        -11    1    3    3    0    0 -0.17289875711E+03 -0.70510814978E+03  0.46850718192E+03  0.86404309071E+03  0.00000000000E+00 0. -1.
         22    1    1    2    0    0  0.38660002329E+03  0.12374928394E+04  0.24739760060E+03  0.13198688110E+04  0.00000000000E+00 0.  1.
<mgrwt>
<rscale>  0 0.26526389E+04</rscale>
<asrwt>0</asrwt>
<pdfrwt beam="1">  1        2 0.30385021E+00 0.26526389E+04</pdfrwt>
<pdfrwt beam="2">  1       -2 0.13702822E+00 0.26526389E+04</pdfrwt>
<totfact> 0.23071006E+00</totfact>
</mgrwt>
</event>
<event>
 6    1  0.1762360E-005  0.3929912E+04  0.7818608E-02  0.8018837E-01
          2   -1    0    0  501    0  0.00000000000E+00  0.00000000000E+00  0.35158901232E+04  0.35158901232E+04  0.00000000000E+00 0. -1.
         -2   -1    0    0    0  501 -0.00000000000E+00 -0.00000000000E+00 -0.10981721619E+04  0.10981721619E+04  0.00000000000E+00 0.  1.
         23    2    1    2    0    0 -0.12356161891E+03 -0.19554199591E+04  0.13667289532E+04  0.23906611550E+04  0.91531615811E+02 0.  0.
         11    1    3    3    0    0 -0.46337020175E+02 -0.12546606724E+04  0.91056909312E+03  0.15509534473E+04  0.00000000000E+00 0.  1.
        -11    1    3    3    0    0 -0.77224598740E+02 -0.70075928672E+03  0.45615986005E+03  0.83970770777E+03  0.00000000000E+00 0. -1.
         22    1    1    2    0    0  0.12356161891E+03  0.19554199591E+04  0.10509890082E+04  0.22234011301E+04  0.00000000000E+00 0. -1.
<mgrwt>
<rscale>  0 0.39299123E+04</rscale>
<asrwt>0</asrwt>
<pdfrwt beam="1">  1        2 0.54090617E+00 0.39299123E+04</pdfrwt>
<pdfrwt beam="2">  1       -2 0.16894956E+00 0.39299123E+04</pdfrwt>
<totfact> 0.13605796E-01</totfact>
</mgrwt>
</event>
<event>
 6    1  0.1762360E-005  0.3827253E+04  0.7818608E-02  0.8040332E-01
         -2   -1    0    0    0  501 -0.00000000000E+00  0.00000000000E+00  0.18666900038E+04  0.18666900038E+04  0.00000000000E+00 0.  1.
          2   -1    0    0  501    0  0.00000000000E+00 -0.00000000000E+00 -0.19617433488E+04  0.19617433488E+04  0.00000000000E+00 0. -1.
         23    2    1    2    0    0  0.16216108281E+04 -0.10302039662E+03  0.96155451944E+03  0.18902241124E+04  0.90140008515E+02 0.  0.
         11    1    3    3    0    0  0.64405915362E+03 -0.85017422058E+02  0.38778756972E+03  0.75658400369E+03  0.00000000000E+00 0.  1.
        -11    1    3    3    0    0  0.97755167450E+03 -0.18002974567E+02  0.57376694971E+03  0.11336401087E+04  0.00000000000E+00 0. -1.
         22    1    1    2    0    0 -0.16216108281E+04  0.10302039662E+03 -0.10566078644E+04  0.19382092403E+04  0.00000000000E+00 0. -1.
<mgrwt>
<rscale>  0 0.38272532E+04</rscale>
<asrwt>0</asrwt>
<pdfrwt beam="1">  1        2 0.30180667E+00 0.38272532E+04</pdfrwt>
<pdfrwt beam="2">  1       -2 0.28718308E+00 0.38272532E+04</pdfrwt>
<totfact> 0.21371026E-01</totfact>
</mgrwt>
</event>
<event>
 6    1  0.1762360E-005  0.2925544E+04  0.7818608E-02  0.8265318E-01
         -2   -1    0    0    0  501 -0.00000000000E+00  0.00000000000E+00  0.10829706331E+04  0.10829706331E+04  0.00000000000E+00 0.  1.
          2   -1    0    0  501    0  0.00000000000E+00 -0.00000000000E+00 -0.19757708336E+04  0.19757708336E+04  0.00000000000E+00 0. -1.
         23    2    1    2    0    0  0.87019443055E+02  0.12346782191E+04 -0.12591576733E+04  0.17679198346E+04  0.89776427598E+02 0.  0.
         11    1    3    3    0    0  0.95104619500E+01  0.73346484339E+03 -0.76333486899E+03  0.10586506731E+04  0.00000000000E+00 0. -1.
        -11    1    3    3    0    0  0.77508981105E+02  0.50121337575E+03 -0.49582280429E+03  0.70926916149E+03  0.00000000000E+00 0.  1.
         22    1    1    2    0    0 -0.87019443055E+02 -0.12346782191E+04  0.36635747282E+03  0.12908216322E+04  0.00000000000E+00 0.  1.
<mgrwt>
<rscale>  0 0.29255439E+04</rscale>
<asrwt>0</asrwt>
<pdfrwt beam="1">  1        2 0.30396474E+00 0.29255439E+04</pdfrwt>
<pdfrwt beam="2">  1       -2 0.16661087E+00 0.29255439E+04</pdfrwt>
<totfact> 0.13379625E+00</totfact>
</mgrwt>
</event>
<event>
 6    1  0.1762360E-005  0.1227623E+04  0.7818608E-02  0.9089016E-01
          2   -1    0    0  501    0  0.00000000000E+00  0.00000000000E+00  0.16474084072E+04  0.16474084072E+04  0.00000000000E+00 0. -1.
         -2   -1    0    0    0  501 -0.00000000000E+00 -0.00000000000E+00 -0.22870145244E+03  0.22870145244E+03  0.00000000000E+00 0.  1.
         23    2    1    2    0    0 -0.55359534215E+03  0.25381380422E+03  0.64865356900E+03  0.89434030065E+03  0.90575221344E+02 0.  0.
         11    1    3    3    0    0 -0.35042017549E+03  0.20279985370E+03  0.45509880226E+03  0.60912806524E+03  0.00000000000E+00 0.  1.
        -11    1    3    3    0    0 -0.20317516666E+03  0.51013950522E+02  0.19355476675E+03  0.28521223541E+03  0.00000000000E+00 0. -1.
         22    1    1    2    0    0  0.55359534215E+03 -0.25381380422E+03  0.77005338578E+03  0.98176955902E+03  0.00000000000E+00 0. -1.
<mgrwt>
<rscale>  0 0.12276232E+04</rscale>
<asrwt>0</asrwt>
<pdfrwt beam="1">  1        2 0.25344744E+00 0.12276232E+04</pdfrwt>
<pdfrwt beam="2">  1       -2 0.35184840E-01 0.12276232E+04</pdfrwt>
<totfact> 0.78348209E+01</totfact>
</mgrwt>
</event>
<event>
 6    1  0.1762360E-005  0.2512437E+04  0.7818608E-02  0.8398568E-01
         -1   -1    0    0    0  501 -0.00000000000E+00  0.00000000000E+00  0.61487465087E+03  0.61487465087E+03  0.00000000000E+00 0.  1.
          1   -1    0    0  501    0  0.00000000000E+00 -0.00000000000E+00 -0.25665157966E+04  0.25665157966E+04  0.00000000000E+00 0. -1.
         23    2    1    2    0    0 -0.19214643787E+03 -0.75953502377E+03 -0.22178626229E+04  0.23539319405E+04  0.90924475526E+02 0.  0.
         11    1    3    3    0    0 -0.10456005430E+03 -0.29191472749E+03 -0.77837736991E+03  0.83786534901E+03  0.00000000000E+00 0. -1.
        -11    1    3    3    0    0 -0.87586383570E+02 -0.46762029628E+03 -0.14394852530E+04  0.15160665915E+04  0.00000000000E+00 0.  1.
         22    1    1    2    0    0  0.19214643787E+03  0.75953502377E+03  0.26622147719E+03  0.82745850702E+03  0.00000000000E+00 0.  1.
<mgrwt>
<rscale>  0 0.25124375E+04</rscale>
<asrwt>0</asrwt>
<pdfrwt beam="1">  1        1 0.39484858E+00 0.25124375E+04</pdfrwt>
<pdfrwt beam="2">  1       -1 0.94596101E-01 0.25124375E+04</pdfrwt>
<totfact> 0.11679053E+00</totfact>
</mgrwt>
</event>
<event>
 6    1  0.1762360E-005  0.3119801E+04  0.7818608E-02  0.8210325E-01
         -1   -1    0    0    0  501 -0.00000000000E+00  0.00000000000E+00  0.10728064149E+04  0.10728064149E+04  0.00000000000E+00 0.  1.
          1   -1    0    0  501    0  0.00000000000E+00 -0.00000000000E+00 -0.22681536170E+04  0.22681536170E+04  0.00000000000E+00 0. -1.
         23    2    1    2    0    0  0.97038985009E+03 -0.12108574969E+04 -0.75335253235E+03  0.17275191043E+04  0.94603798460E+02 0.  0.
         13    1    3    3    0    0  0.42126084205E+03 -0.50673692473E+03 -0.37036092786E+03  0.75591681078E+03  0.00000000000E+00 0. -1.
        -13    1    3    3    0    0  0.54912900803E+03 -0.70412057216E+03 -0.38299160449E+03  0.97160229349E+03  0.00000000000E+00 0.  1.
         22    1    1    2    0    0 -0.97038985009E+03  0.12108574969E+04 -0.44199466972E+03  0.16134409276E+04  0.00000000000E+00 0. -1.
<mgrwt>
<rscale>  0 0.31198011E+04</rscale>
<asrwt>0</asrwt>
<pdfrwt beam="1">  1        1 0.34894671E+00 0.31198011E+04</pdfrwt>
<pdfrwt beam="2">  1       -1 0.16504714E+00 0.31198011E+04</pdfrwt>
<totfact> 0.44137323E-01</totfact>
</mgrwt>
</event>
<event>
 6    1  0.1762360E-005  0.3402850E+04  0.7818608E-02  0.8137207E-01
          2   -1    0    0  501    0  0.00000000000E+00  0.00000000000E+00  0.25205374211E+04  0.25205374211E+04  0.00000000000E+00 0. -1.
         -2   -1    0    0    0  501 -0.00000000000E+00 -0.00000000000E+00 -0.11485035990E+04  0.11485035990E+04  0.00000000000E+00 0.  1.
         23    2    1    2    0    0  0.82644985994E+03 -0.72592984518E+03 -0.71131341321E+03  0.13131273514E+04  0.91340889633E+02 0.  0.
         11    1    3    3    0    0  0.28481374335E+03 -0.29517643228E+03 -0.29873930383E+03  0.50743784470E+03  0.00000000000E+00 0. -1.
        -11    1    3    3    0    0  0.54163611659E+03 -0.43075341290E+03 -0.41257410938E+03  0.80568950672E+03  0.00000000000E+00 0.  1.
         22    1    1    2    0    0 -0.82644985994E+03  0.72592984518E+03  0.20833472353E+04  0.23559136686E+04  0.00000000000E+00 0. -1.
<mgrwt>
<rscale>  0 0.34028496E+04</rscale>
<asrwt>0</asrwt>
<pdfrwt beam="1">  1        2 0.38777499E+00 0.34028496E+04</pdfrwt>
<pdfrwt beam="2">  1       -2 0.17669286E+00 0.34028496E+04</pdfrwt>
<totfact> 0.53620796E-01</totfact>
</mgrwt>
</event>
<event>
 6    1  0.1762360E-005  0.1343098E+04  0.7818608E-02  0.8996069E-01
          2   -1    0    0  501    0  0.00000000000E+00  0.00000000000E+00  0.63035443297E+03  0.63035443297E+03  0.00000000000E+00 0. -1.
         -2   -1    0    0    0  501 -0.00000000000E+00 -0.00000000000E+00 -0.71543594750E+03  0.71543594750E+03  0.00000000000E+00 0.  1.
         23    2    1    2    0    0  0.29318399909E+03 -0.58347163078E+03  0.10373364726E+03  0.66604986632E+03  0.80409909891E+02 0.  0.
         11    1    3    3    0    0  0.14205379236E+03 -0.31279153792E+03  0.92771214160E+02  0.35584311753E+03  0.00000000000E+00 0. -1.
        -11    1    3    3    0    0  0.15113020672E+03 -0.27068009286E+03  0.10962433104E+02  0.31020674879E+03  0.00000000000E+00 0.  1.
         22    1    1    2    0    0 -0.29318399909E+03  0.58347163078E+03 -0.18881516179E+03  0.67974051414E+03  0.00000000000E+00 0.  1.
<mgrwt>
<rscale>  0 0.13430982E+04</rscale>
<asrwt>0</asrwt>
<pdfrwt beam="1">  1        2 0.96977606E-01 0.13430982E+04</pdfrwt>
<pdfrwt beam="2">  1       -2 0.11006707E+00 0.13430982E+04</pdfrwt>
<totfact> 0.29940171E+01</totfact>
</mgrwt>
</event>
<event>
 6    1  0.1762360E-005  0.3282687E+04  0.7818608E-02  0.8167315E-01
         -1   -1    0    0    0  501 -0.00000000000E+00  0.00000000000E+00  0.10174938401E+04  0.10174938401E+04  0.00000000000E+00 0.  1.
          1   -1    0    0  501    0  0.00000000000E+00 -0.00000000000E+00 -0.26476901577E+04  0.26476901577E+04  0.00000000000E+00 0. -1.
         23    2    1    2    0    0 -0.38654964591E+03 -0.91115511179E+03  0.64431542641E+03  0.11846542278E+04  0.92946243467E+02 0.  0.
         11    1    3    3    0    0 -0.24701767350E+03 -0.68369610679E+03  0.45795296532E+03  0.85917344925E+03  0.00000000000E+00 0.  1.
        -11    1    3    3    0    0 -0.13953197241E+03 -0.22745900501E+03  0.18636246109E+03  0.32548077852E+03  0.00000000000E+00 0. -1.
         22    1    1    2    0    0  0.38654964591E+03  0.91115511179E+03 -0.22745117440E+04  0.24805297701E+04  0.00000000000E+00 0. -1.
<mgrwt>
<rscale>  0 0.32826870E+04</rscale>
<asrwt>0</asrwt>
<pdfrwt beam="1">  1        1 0.40733694E+00 0.32826870E+04</pdfrwt>
<pdfrwt beam="2">  1       -1 0.15653751E+00 0.32826870E+04</pdfrwt>
<totfact> 0.27552668E-01</totfact>
</mgrwt>
</event>
<event>
 6    1  0.1762360E-005  0.4643394E+04  0.7818608E-02  0.7886003E-01
         -2   -1    0    0    0  501 -0.00000000000E+00  0.00000000000E+00  0.17248472728E+04  0.17248472728E+04  0.00000000000E+00 0.  1.
          2   -1    0    0  501    0  0.00000000000E+00 -0.00000000000E+00 -0.31250745624E+04  0.31250745624E+04  0.00000000000E+00 0. -1.
         23    2    1    2    0    0 -0.10386228516E+04 -0.15619061888E+04 -0.21278609836E+04  0.28380224434E+04  0.91053024633E+02 0.  0.
         13    1    3    3    0    0 -0.34344389352E+03 -0.57963059557E+03 -0.80353348045E+03  0.10486140327E+04  0.00000000000E+00 0. -1.
        -13    1    3    3    0    0 -0.69517895807E+03 -0.98227559318E+03 -0.13243275031E+04  0.17894084107E+04  0.00000000000E+00 0.  1.
         22    1    1    2    0    0  0.10386228516E+04  0.15619061888E+04  0.72763369390E+03  0.20118993918E+04  0.00000000000E+00 0.  1.
<mgrwt>
<rscale>  0 0.46433937E+04</rscale>
<asrwt>0</asrwt>
<pdfrwt beam="1">  1        2 0.48078069E+00 0.46433937E+04</pdfrwt>
<pdfrwt beam="2">  1       -2 0.26536112E+00 0.46433937E+04</pdfrwt>
<totfact> 0.56149397E-02</totfact>
</mgrwt>
</event>
<event>
 6    1  0.1762360E-005  0.1013416E+04  0.7818608E-02  0.9293952E-01
          2   -1    0    0  501    0  0.00000000000E+00  0.00000000000E+00  0.18696362609E+04  0.18696362609E+04  0.00000000000E+00 0. -1.
         -2   -1    0    0    0  501 -0.00000000000E+00 -0.00000000000E+00 -0.13732776905E+03  0.13732776905E+03  0.00000000000E+00 0.  1.
         23    2    1    2    0    0  0.16384494460E+03 -0.44600345948E+03  0.11975384455E+04  0.12916017062E+04  0.91500750162E+02 0.  0.
         13    1    3    3    0    0  0.13366190108E+03 -0.23907548208E+03  0.64073341631E+03  0.69682271827E+03  0.00000000000E+00 0. -1.
        -13    1    3    3    0    0  0.30183043520E+02 -0.20692797740E+03  0.55680502923E+03  0.59477898796E+03  0.00000000000E+00 0.  1.
         22    1    1    2    0    0 -0.16384494460E+03  0.44600345948E+03  0.53477004629E+03  0.71536232369E+03  0.00000000000E+00 0.  1.
<mgrwt>
<rscale>  0 0.10134160E+04</rscale>
<asrwt>0</asrwt>
<pdfrwt beam="1">  1        2 0.28763633E+00 0.10134160E+04</pdfrwt>
<pdfrwt beam="2">  1       -2 0.21127350E-01 0.10134160E+04</pdfrwt>
<totfact> 0.15309845E+02</totfact>
</mgrwt>
</event>
<event>
 6    1  0.1762360E-005  0.2395256E+04  0.7818608E-02  0.8441282E-01
          2   -1    0    0  501    0  0.00000000000E+00  0.00000000000E+00  0.31528083484E+04  0.31528083484E+04  0.00000000000E+00 0.  1.
         -2   -1    0    0    0  501 -0.00000000000E+00 -0.00000000000E+00 -0.45493172494E+03  0.45493172494E+03  0.00000000000E+00 0. -1.
         23    2    1    2    0    0 -0.17342859920E+03  0.75875557140E+03  0.27187767699E+04  0.28291359940E+04  0.80472678030E+02 0.  0.
         11    1    3    3    0    0 -0.11950533725E+03  0.64206460037E+03  0.23181407792E+04  0.24083822680E+04  0.00000000000E+00 0.  1.
        -11    1    3    3    0    0 -0.53923261948E+02  0.11669097103E+03  0.40063599075E+03  0.42075372605E+03  0.00000000000E+00 0. -1.
         22    1    1    2    0    0  0.17342859920E+03 -0.75875557140E+03 -0.20900146489E+02  0.77860407928E+03  0.00000000000E+00 0. -1.
<mgrwt>
<rscale>  0 0.23952558E+04</rscale>
<asrwt>0</asrwt>
<pdfrwt beam="1">  1        2 0.48504743E+00 0.23952558E+04</pdfrwt>
<pdfrwt beam="2">  1       -2 0.69989498E-01 0.23952558E+04</pdfrwt>
<totfact> 0.23298866E+00</totfact>
</mgrwt>
</event>
<event>
 6    1  0.1762360E-005  0.9459090E+03  0.7818608E-02  0.9369945E-01
         -3   -1    0    0    0  501 -0.00000000000E+00  0.00000000000E+00  0.83887235751E+02  0.83887235751E+02  0.00000000000E+00 0.  1.
          3   -1    0    0  501    0  0.00000000000E+00 -0.00000000000E+00 -0.26665079512E+04  0.26665079512E+04  0.00000000000E+00 0. -1.
         23    2    1    2    0    0 -0.42049161344E+03 -0.18825769019E+03 -0.15503527127E+04  0.16199831451E+04  0.92182979516E+02 0.  0.
         11    1    3    3    0    0 -0.34957229054E+03 -0.12739725718E+03 -0.11423099869E+04  0.12013754424E+04  0.00000000000E+00 0. -1.
        -11    1    3    3    0    0 -0.70919322900E+02 -0.60860433008E+02 -0.40804272581E+03  0.41860770269E+03  0.00000000000E+00 0.  1.
         22    1    1    2    0    0  0.42049161344E+03  0.18825769019E+03 -0.10322680027E+04  0.11304120418E+04  0.00000000000E+00 0. -1.
<mgrwt>
<rscale>  0 0.94590905E+03</rscale>
<asrwt>0</asrwt>
<pdfrwt beam="1">  1        3 0.41023206E+00 0.94590905E+03</pdfrwt>
<pdfrwt beam="2">  1       -3 0.12905726E-01 0.94590905E+03</pdfrwt>
<totfact> 0.13244742E+00</totfact>
</mgrwt>
</event>
<event>
 6    1  0.1762360E-005  0.5235097E+03  0.7818608E-02  0.1007818E+00
         -2   -1    0    0    0  501 -0.00000000000E+00  0.00000000000E+00  0.43029479702E+02  0.43029479702E+02  0.00000000000E+00 0. -1.
          2   -1    0    0  501    0  0.00000000000E+00 -0.00000000000E+00 -0.15922944063E+04  0.15922944063E+04  0.00000000000E+00 0.  1.
         23    2    1    2    0    0  0.11105716904E+03 -0.18895927508E+03 -0.12015128635E+04  0.12242633067E+04  0.84546913902E+02 0.  0.
         13    1    3    3    0    0 -0.10477139399E+02 -0.46025179626E+02 -0.22758415983E+03  0.23242770363E+03  0.00000000000E+00 0. -1.
        -13    1    3    3    0    0  0.12153430844E+03 -0.14293409545E+03 -0.97392870366E+03  0.99183560310E+03  0.00000000000E+00 0.  1.
         22    1    1    2    0    0 -0.11105716904E+03  0.18895927508E+03 -0.34775206313E+03  0.41106057929E+03  0.00000000000E+00 0. -1.
<mgrwt>
<rscale>  0 0.52350969E+03</rscale>
<asrwt>0</asrwt>
<pdfrwt beam="1">  1        2 0.24496842E+00 0.52350969E+03</pdfrwt>
<pdfrwt beam="2">  1       -2 0.66199186E-02 0.52350969E+03</pdfrwt>
<totfact> 0.15312983E+03</totfact>
</mgrwt>
</event>
<event>
 6    1  0.1762360E-005  0.3004785E+04  0.7818608E-02  0.8242366E-01
         -2   -1    0    0    0  501 -0.00000000000E+00  0.00000000000E+00  0.11575183184E+04  0.11575183184E+04  0.00000000000E+00 0.  1.
          2   -1    0    0  501    0  0.00000000000E+00 -0.00000000000E+00 -0.19500191183E+04  0.19500191183E+04  0.00000000000E+00 0. -1.
         23    2    1    2    0    0  0.10780866485E+04  0.31133477608E+03  0.63384490678E+03  0.12926924738E+04  0.10047040058E+03 0.  0.
         11    1    3    3    0    0  0.51150851061E+03  0.18730838872E+03  0.26941237184E+03  0.60770750778E+03  0.00000000000E+00 0. -1.
        -11    1    3    3    0    0  0.56657813789E+03  0.12402638737E+03  0.36443253494E+03  0.68498496598E+03  0.00000000000E+00 0.  1.
         22    1    1    2    0    0 -0.10780866485E+04 -0.31133477608E+03 -0.14263457067E+04  0.18148449630E+04  0.00000000000E+00 0. -1.
<mgrwt>
<rscale>  0 0.30047848E+04</rscale>
<asrwt>0</asrwt>
<pdfrwt beam="1">  1        2 0.30000294E+00 0.30047848E+04</pdfrwt>
<pdfrwt beam="2">  1       -2 0.17807974E+00 0.30047848E+04</pdfrwt>
<totfact> 0.11397042E+00</totfact>
</mgrwt>
</event>
<event>
 6    1  0.1762360E-005  0.3230098E+04  0.7818608E-02  0.8180913E-01
         -2   -1    0    0    0  501 -0.00000000000E+00  0.00000000000E+00  0.91640279491E+03  0.91640279491E+03  0.00000000000E+00 0. -1.
          2   -1    0    0  501    0  0.00000000000E+00 -0.00000000000E+00 -0.28463292345E+04  0.28463292345E+04  0.00000000000E+00 0.  1.
         23    2    1    2    0    0  0.51563652036E+03 -0.14066166498E+04 -0.26702708518E+03  0.15244993151E+04  0.91341538809E+02 0.  0.
         13    1    3    3    0    0  0.10893811372E+03 -0.20731265475E+03 -0.29718426027E+02  0.23607040112E+03  0.00000000000E+00 0. -1.
        -13    1    3    3    0    0  0.40669840664E+03 -0.11993039951E+04 -0.23730865916E+03  0.12884289139E+04  0.00000000000E+00 0.  1.
         22    1    1    2    0    0 -0.51563652036E+03  0.14066166498E+04 -0.16628993544E+04  0.22382327144E+04  0.00000000000E+00 0.  1.
<mgrwt>
<rscale>  0 0.32300985E+04</rscale>
<asrwt>0</asrwt>
<pdfrwt beam="1">  1        2 0.43789680E+00 0.32300985E+04</pdfrwt>
<pdfrwt beam="2">  1       -2 0.14098505E+00 0.32300985E+04</pdfrwt>
<totfact> 0.64164295E-01</totfact>
</mgrwt>
</event>
<event>
 6    1  0.1762360E-005  0.2106292E+04  0.7818608E-02  0.8558477E-01
         -2   -1    0    0    0  501 -0.00000000000E+00  0.00000000000E+00  0.99046807700E+03  0.99046807700E+03  0.00000000000E+00 0.  1.
          2   -1    0    0  501    0  0.00000000000E+00 -0.00000000000E+00 -0.11197906151E+04  0.11197906151E+04  0.00000000000E+00 0. -1.
         23    2    1    2    0    0  0.95789046848E+02  0.97992016874E+03  0.30420884688E+03  0.10344480487E+04  0.90114728895E+02 0.  0.
         13    1    3    3    0    0  0.44518789024E+02  0.52757516127E+03  0.11704277955E+03  0.54223287028E+03  0.00000000000E+00 0.  1.
        -13    1    3    3    0    0  0.51270257823E+02  0.45234500747E+03  0.18716606733E+03  0.49221517844E+03  0.00000000000E+00 0. -1.
         22    1    1    2    0    0 -0.95789046848E+02 -0.97992016874E+03 -0.43353138495E+03  0.10758106433E+04  0.00000000000E+00 0. -1.
<mgrwt>
<rscale>  0 0.21062923E+04</rscale>
<asrwt>0</asrwt>
<pdfrwt beam="1">  1        2 0.17227548E+00 0.21062923E+04</pdfrwt>
<pdfrwt beam="2">  1       -2 0.15237970E+00 0.21062923E+04</pdfrwt>
<totfact> 0.56062913E+00</totfact>
</mgrwt>
</event>
<event>
 6    1  0.1762360E-005  0.3158560E+04  0.7818608E-02  0.8199848E-01
         -2   -1    0    0    0  501 -0.00000000000E+00  0.00000000000E+00  0.17771448073E+04  0.17771448073E+04  0.00000000000E+00 0.  1.
          2   -1    0    0  501    0  0.00000000000E+00 -0.00000000000E+00 -0.14034449204E+04  0.14034449204E+04  0.00000000000E+00 0. -1.
         23    2    1    2    0    0 -0.99942896118E+03 -0.50427226126E+03 -0.93285001746E+03  0.14600603281E+04  0.91750993657E+02 0.  0.
         11    1    3    3    0    0 -0.92775032261E+03 -0.49280103321E+03 -0.86786332890E+03  0.13626299120E+04  0.00000000000E+00 0. -1.
        -11    1    3    3    0    0 -0.71678638570E+02 -0.11471228048E+02 -0.64986688560E+02  0.97430416145E+02  0.00000000000E+00 0.  1.
         22    1    1    2    0    0  0.99942896118E+03  0.50427226126E+03  0.13065499044E+04  0.17205293996E+04  0.00000000000E+00 0.  1.
<mgrwt>
<rscale>  0 0.31585597E+04</rscale>
<asrwt>0</asrwt>
<pdfrwt beam="1">  1        2 0.21591460E+00 0.31585597E+04</pdfrwt>
<pdfrwt beam="2">  1       -2 0.27340689E+00 0.31585597E+04</pdfrwt>
<totfact> 0.56230068E-01</totfact>
</mgrwt>
</event>
<event>
 6    1  0.1762360E-005  0.1839788E+04  0.7818608E-02  0.8685422E-01
          1   -1    0    0  501    0  0.00000000000E+00  0.00000000000E+00  0.20505064009E+04  0.20505064009E+04  0.00000000000E+00 0. -1.
         -1   -1    0    0    0  501 -0.00000000000E+00 -0.00000000000E+00 -0.41268084783E+03  0.41268084783E+03  0.00000000000E+00 0.  1.
         23    2    1    2    0    0  0.80077458597E+03  0.43473658300E+03  0.96720965344E+03  0.13318334053E+04  0.89721077605E+02 0.  0.
         11    1    3    3    0    0  0.60508012210E+03  0.36448022709E+03  0.71700066460E+03  0.10065076965E+04  0.00000000000E+00 0.  1.
        -11    1    3    3    0    0  0.19569446388E+03  0.70256355906E+02  0.25020898884E+03  0.32532570884E+03  0.00000000000E+00 0. -1.
         22    1    1    2    0    0 -0.80077458597E+03 -0.43473658300E+03  0.67061589967E+03  0.11313538434E+04  0.00000000000E+00 0.  1.
<mgrwt>
<rscale>  0 0.18397877E+04</rscale>
<asrwt>0</asrwt>
<pdfrwt beam="1">  1        1 0.31546252E+00 0.18397877E+04</pdfrwt>
<pdfrwt beam="2">  1       -1 0.63489362E-01 0.18397877E+04</pdfrwt>
<totfact> 0.65163674E+00</totfact>
</mgrwt>
</event>
<event>
 6    1  0.1762360E-005  0.3204200E+04  0.7818608E-02  0.8187709E-01
          2   -1    0    0  501    0  0.00000000000E+00  0.00000000000E+00  0.24478907786E+04  0.24478907786E+04  0.00000000000E+00 0. -1.
         -2   -1    0    0    0  501 -0.00000000000E+00 -0.00000000000E+00 -0.10485455967E+04  0.10485455967E+04  0.00000000000E+00 0.  1.
         23    2    1    2    0    0 -0.42480906478E+03 -0.13976138916E+04  0.14148494555E+04  0.20356052030E+04  0.90012383063E+02 0.  0.
         13    1    3    3    0    0 -0.20713282614E+03 -0.81981061621E+03  0.84395367510E+03  0.11946762155E+04  0.00000000000E+00 0. -1.
        -13    1    3    3    0    0 -0.21767623864E+03 -0.57780327536E+03  0.57089578043E+03  0.84092898749E+03  0.00000000000E+00 0.  1.
         22    1    1    2    0    0  0.42480906478E+03  0.13976138916E+04 -0.15504273647E+02  0.14608311723E+04  0.00000000000E+00 0.  1.
<mgrwt>
<rscale>  0 0.32042004E+04</rscale>
<asrwt>0</asrwt>
<pdfrwt beam="1">  1        2 0.37659858E+00 0.32042004E+04</pdfrwt>
<pdfrwt beam="2">  1       -2 0.16131471E+00 0.32042004E+04</pdfrwt>
<totfact> 0.77356098E-01</totfact>
</mgrwt>
</event>
<event>
 6    1  0.1762360E-005  0.4767182E+04  0.7818608E-02  0.7865461E-01
          2   -1    0    0  501    0  0.00000000000E+00  0.00000000000E+00  0.31397114137E+04  0.31397114137E+04  0.00000000000E+00 0. -1.
         -2   -1    0    0    0  501 -0.00000000000E+00 -0.00000000000E+00 -0.18095635004E+04  0.18095635004E+04  0.00000000000E+00 0.  1.
         23    2    1    2    0    0  0.60953947209E+03 -0.13355053200E+04  0.26137382316E+04  0.29992192911E+04  0.92606614300E+02 0.  0.
         11    1    3    3    0    0  0.34191132794E+03 -0.80427678289E+03  0.14743922995E+04  0.17139419921E+04  0.00000000000E+00 0.  1.
        -11    1    3    3    0    0  0.26762814414E+03 -0.53122853712E+03  0.11393459321E+04  0.12852772989E+04  0.00000000000E+00 0. -1.
         22    1    1    2    0    0 -0.60953947209E+03  0.13355053200E+04 -0.12835903182E+04  0.19500556230E+04  0.00000000000E+00 0.  1.
<mgrwt>
<rscale>  0 0.47671825E+04</rscale>
<asrwt>0</asrwt>
<pdfrwt beam="1">  1        2 0.48303252E+00 0.47671825E+04</pdfrwt>
<pdfrwt beam="2">  1       -2 0.27839439E+00 0.47671825E+04</pdfrwt>
<totfact> 0.45290223E-02</totfact>
</mgrwt>
</event>
<event>
 6    1  0.1762360E-005  0.2830841E+04  0.7818608E-02  0.8293757E-01
          1   -1    0    0  501    0  0.00000000000E+00  0.00000000000E+00  0.14960116306E+04  0.14960116306E+04  0.00000000000E+00 0. -1.
         -1   -1    0    0    0  501 -0.00000000000E+00 -0.00000000000E+00 -0.13391711273E+04  0.13391711273E+04  0.00000000000E+00 0.  1.
         23    2    1    2    0    0 -0.86770298417E+03 -0.11012397571E+04  0.26295931898E+03  0.14291604699E+04  0.87832647305E+02 0.  0.
         11    1    3    3    0    0 -0.46633642732E+03 -0.52411561837E+03  0.11802684191E+03  0.71140507468E+03  0.00000000000E+00 0. -1.
        -11    1    3    3    0    0 -0.40136655684E+03 -0.57712413873E+03  0.14493247707E+03  0.71775539522E+03  0.00000000000E+00 0.  1.
         22    1    1    2    0    0  0.86770298417E+03  0.11012397571E+04 -0.10611881561E+03  0.14060222880E+04  0.00000000000E+00 0.  1.
<mgrwt>
<rscale>  0 0.28308413E+04</rscale>
<asrwt>0</asrwt>
<pdfrwt beam="1">  1        1 0.23015564E+00 0.28308413E+04</pdfrwt>
<pdfrwt beam="2">  1       -1 0.20602633E+00 0.28308413E+04</pdfrwt>
<totfact> 0.77781403E-01</totfact>
</mgrwt>
</event>
<event>
 6    1  0.1762360E-005  0.1740846E+04  0.7818608E-02  0.8738405E-01
         -1   -1    0    0    0  501 -0.00000000000E+00  0.00000000000E+00  0.40192686010E+03  0.40192686010E+03  0.00000000000E+00 0.  1.
          1   -1    0    0  501    0  0.00000000000E+00 -0.00000000000E+00 -0.18850106383E+04  0.18850106383E+04  0.00000000000E+00 0. -1.
         23    2    1    2    0    0 -0.10429826327E+02 -0.73873267261E+03 -0.13421310059E+04  0.15348055772E+04  0.92074860714E+02 0.  0.
         13    1    3    3    0    0 -0.31868767632E+02 -0.19807819730E+03 -0.30605276197E+03  0.36594929116E+03  0.00000000000E+00 0.  1.
        -13    1    3    3    0    0  0.21438941305E+02 -0.54065447531E+03 -0.10360782439E+04  0.11688562860E+04  0.00000000000E+00 0. -1.
         22    1    1    2    0    0  0.10429826327E+02  0.73873267261E+03 -0.14095277231E+03  0.75213192120E+03  0.00000000000E+00 0.  1.
<mgrwt>
<rscale>  0 0.17408462E+04</rscale>
<asrwt>0</asrwt>
<pdfrwt beam="1">  1        1 0.29000164E+00 0.17408462E+04</pdfrwt>
<pdfrwt beam="2">  1       -1 0.61834900E-01 0.17408462E+04</pdfrwt>
<totfact> 0.89733586E+00</totfact>
</mgrwt>
</event>
<event>
 6    1  0.1762360E-005  0.2668812E+04  0.7818608E-02  0.8345196E-01
          2   -1    0    0  501    0  0.00000000000E+00  0.00000000000E+00  0.20503054581E+04  0.20503054581E+04  0.00000000000E+00 0. -1.
         -2   -1    0    0    0  501 -0.00000000000E+00 -0.00000000000E+00 -0.86847510789E+03  0.86847510789E+03  0.00000000000E+00 0.  1.
         23    2    1    2    0    0 -0.47076484129E+03  0.10865290775E+03 -0.76692485994E+03  0.91102762819E+03  0.91501958320E+02 0.  0.
         11    1    3    3    0    0 -0.37585400750E+03  0.48156285969E+02 -0.57885130398E+03  0.69184831788E+03  0.00000000000E+00 0. -1.
        -11    1    3    3    0    0 -0.94910833792E+02  0.60496621782E+02 -0.18807355596E+03  0.21917931032E+03  0.00000000000E+00 0.  1.
         22    1    1    2    0    0  0.47076484129E+03 -0.10865290775E+03  0.19487552102E+04  0.20077529378E+04  0.00000000000E+00 0. -1.
<mgrwt>
<rscale>  0 0.26688119E+04</rscale>
<asrwt>0</asrwt>
<pdfrwt beam="1">  1        2 0.31543161E+00 0.26688119E+04</pdfrwt>
<pdfrwt beam="2">  1       -2 0.13361156E+00 0.26688119E+04</pdfrwt>
<totfact> 0.22316375E+00</totfact>
</mgrwt>
</event>
<event>
 6    1  0.1762360E-005  0.1940147E+04  0.7818608E-02  0.8635127E-01
         -2   -1    0    0    0  501 -0.00000000000E+00  0.00000000000E+00  0.33302195760E+03  0.33302195760E+03  0.00000000000E+00 0.  1.
          2   -1    0    0  501    0  0.00000000000E+00 -0.00000000000E+00 -0.28257682238E+04  0.28257682238E+04  0.00000000000E+00 0. -1.
         23    2    1    2    0    0 -0.37352345343E+03 -0.36249620232E+03 -0.25779083089E+04  0.26313664045E+04  0.86917423421E+02 0.  0.
         13    1    3    3    0    0 -0.12105104834E+03 -0.10876185352E+03 -0.10173912043E+04  0.10303239101E+04  0.00000000000E+00 0. -1.
        -13    1    3    3    0    0 -0.25247240509E+03 -0.25373434880E+03 -0.15605171046E+04  0.16010424944E+04  0.00000000000E+00 0.  1.
         22    1    1    2    0    0  0.37352345343E+03  0.36249620232E+03  0.85162042702E+02  0.52742377694E+03  0.00000000000E+00 0.  1.
<mgrwt>
<rscale>  0 0.19401473E+04</rscale>
<asrwt>0</asrwt>
<pdfrwt beam="1">  1        2 0.43473357E+00 0.19401473E+04</pdfrwt>
<pdfrwt beam="2">  1       -2 0.51234148E-01 0.19401473E+04</pdfrwt>
<totfact> 0.75108462E+00</totfact>
</mgrwt>
</event>
<event>
 6    1  0.1762360E-005  0.4470271E+03  0.7818608E-02  0.1028612E+00
          1   -1    0    0  501    0  0.00000000000E+00  0.00000000000E+00  0.34020646602E+03  0.34020646602E+03  0.00000000000E+00 0. -1.
         -1   -1    0    0    0  501 -0.00000000000E+00 -0.00000000000E+00 -0.14684699742E+03  0.14684699742E+03  0.00000000000E+00 0.  1.
         23    2    1    2    0    0 -0.35496820490E+02 -0.51691576538E+01  0.33051970178E+03  0.34528014429E+03  0.93211374423E+02 0.  0.
         11    1    3    3    0    0 -0.52769208501E+02  0.87438235522E+01  0.97508562355E+02  0.11121584217E+03  0.00000000000E+00 0.  1.
        -11    1    3    3    0    0  0.17272388011E+02 -0.13912981206E+02  0.23301113942E+03  0.23406430213E+03  0.00000000000E+00 0. -1.
         22    1    1    2    0    0  0.35496820490E+02  0.51691576538E+01 -0.13716023318E+03  0.14177331915E+03  0.00000000000E+00 0.  1.
<mgrwt>
<rscale>  0 0.44702706E+03</rscale>
<asrwt>0</asrwt>
<pdfrwt beam="1">  1        1 0.52339456E-01 0.44702706E+03</pdfrwt>
<pdfrwt beam="2">  1       -1 0.22591846E-01 0.44702706E+03</pdfrwt>
<totfact> 0.12359843E+03</totfact>
</mgrwt>
</event>
<event>
 6    1  0.1762360E-005  0.1918663E+04  0.7818608E-02  0.8645622E-01
          2   -1    0    0  501    0  0.00000000000E+00  0.00000000000E+00  0.15526046290E+04  0.15526046290E+04  0.00000000000E+00 0. -1.
         -2   -1    0    0    0  501 -0.00000000000E+00 -0.00000000000E+00 -0.59275665590E+03  0.59275665590E+03  0.00000000000E+00 0.  1.
         23    2    1    2    0    0  0.80060371157E+03 -0.16603209600E+03  0.10376639406E+04  0.13240280489E+04  0.88152485096E+02 0.  0.
         11    1    3    3    0    0  0.26025381654E+03 -0.12158300506E+02  0.33134617594E+03  0.42150938496E+03  0.00000000000E+00 0.  1.
        -11    1    3    3    0    0  0.54034989503E+03 -0.15387379549E+03  0.70631776469E+03  0.90251866392E+03  0.00000000000E+00 0. -1.
         22    1    1    2    0    0 -0.80060371157E+03  0.16603209600E+03 -0.77815967493E+02  0.82133323608E+03  0.00000000000E+00 0.  1.
<mgrwt>
<rscale>  0 0.19186628E+04</rscale>
<asrwt>0</asrwt>
<pdfrwt beam="1">  1        2 0.23886225E+00 0.19186628E+04</pdfrwt>
<pdfrwt beam="2">  1       -2 0.91193332E-01 0.19186628E+04</pdfrwt>
<totfact> 0.11366095E+01</totfact>
</mgrwt>
</event>
<event>
 6    1  0.1762360E-005  0.4981298E+04  0.7818608E-02  0.7831399E-01
          2   -1    0    0  501    0  0.00000000000E+00  0.00000000000E+00  0.26795697385E+04  0.26795697385E+04  0.00000000000E+00 0. -1.
         -2   -1    0    0    0  501 -0.00000000000E+00 -0.00000000000E+00 -0.23150478373E+04  0.23150478373E+04  0.00000000000E+00 0.  1.
         23    2    1    2    0    0  0.17035881525E+04  0.93581443965E+03  0.17428699048E+04  0.26118031730E+04  0.77194887246E+02 0.  0.
         13    1    3    3    0    0  0.55709010287E+03  0.34765177693E+03  0.58707811951E+03  0.88083588660E+03  0.00000000000E+00 0.  1.
        -13    1    3    3    0    0  0.11464980496E+04  0.58816266273E+03  0.11557917853E+04  0.17309672864E+04  0.00000000000E+00 0. -1.
         22    1    1    2    0    0 -0.17035881525E+04 -0.93581443965E+03 -0.13783480037E+04  0.23828144027E+04  0.00000000000E+00 0.  1.
<mgrwt>
<rscale>  0 0.49812979E+04</rscale>
<asrwt>0</asrwt>
<pdfrwt beam="1">  1        2 0.41224150E+00 0.49812979E+04</pdfrwt>
<pdfrwt beam="2">  1       -2 0.35616121E+00 0.49812979E+04</pdfrwt>
<totfact> 0.28322330E-02</totfact>
</mgrwt>
</event>
<event>
 6    1  0.1762360E-005  0.2093511E+04  0.7818608E-02  0.8564107E-01
          1   -1    0    0  501    0  0.00000000000E+00  0.00000000000E+00  0.16216939518E+04  0.16216939518E+04  0.00000000000E+00 0. -1.
         -1   -1    0    0    0  501 -0.00000000000E+00 -0.00000000000E+00 -0.67564951060E+03  0.67564951060E+03  0.00000000000E+00 0.  1.
         23    2    1    2    0    0  0.94400844277E+03  0.23296396600E+03  0.89296599282E+03  0.13235665520E+04  0.94952639646E+02 0.  0.
         11    1    3    3    0    0  0.32279692111E+03  0.89364793714E+02  0.24898401874E+03  0.41734513322E+03  0.00000000000E+00 0.  1.
        -11    1    3    3    0    0  0.62121152166E+03  0.14359917229E+03  0.64398197408E+03  0.90622141879E+03  0.00000000000E+00 0. -1.
         22    1    1    2    0    0 -0.94400844277E+03 -0.23296396600E+03  0.53078448344E+02  0.97377691037E+03  0.00000000000E+00 0.  1.
<mgrwt>
<rscale>  0 0.20935107E+04</rscale>
<asrwt>0</asrwt>
<pdfrwt beam="1">  1        1 0.24949138E+00 0.20935107E+04</pdfrwt>
<pdfrwt beam="2">  1       -1 0.10394608E+00 0.20935107E+04</pdfrwt>
<totfact> 0.43242505E+00</totfact>
</mgrwt>
</event>
<event>
 6    1  0.1762360E-005  0.1996512E+04  0.7818608E-02  0.8608253E-01
         -2   -1    0    0    0  501 -0.00000000000E+00  0.00000000000E+00  0.74478460251E+03  0.74478460251E+03  0.00000000000E+00 0.  1.
          2   -1    0    0  501    0  0.00000000000E+00 -0.00000000000E+00 -0.13379906251E+04  0.13379906251E+04  0.00000000000E+00 0. -1.
         23    2    1    2    0    0 -0.81231466998E+03  0.54272392060E+03 -0.94650562170E+02  0.98597901860E+03  0.93763101141E+02 0.  0.
         11    1    3    3    0    0 -0.24506784289E+03  0.21429531617E+03 -0.17943828667E+02  0.32604096543E+03  0.00000000000E+00 0.  1.
        -11    1    3    3    0    0 -0.56724682709E+03  0.32842860443E+03 -0.76706733503E+02  0.65993805317E+03  0.00000000000E+00 0. -1.
         22    1    1    2    0    0  0.81231466998E+03 -0.54272392060E+03 -0.49855546046E+03  0.10967962091E+04  0.00000000000E+00 0. -1.
<mgrwt>
<rscale>  0 0.19965118E+04</rscale>
<asrwt>0</asrwt>
<pdfrwt beam="1">  1        2 0.20584471E+00 0.19965118E+04</pdfrwt>
<pdfrwt beam="2">  1       -2 0.11458225E+00 0.19965118E+04</pdfrwt>
<totfact> 0.86878470E+00</totfact>
</mgrwt>
</event>
<event>
 6    1  0.1762360E-005  0.1914264E+04  0.7818608E-02  0.8647788E-01
         -2   -1    0    0    0  501 -0.00000000000E+00  0.00000000000E+00  0.14087838022E+04  0.14087838022E+04  0.00000000000E+00 0.  1.
          2   -1    0    0  501    0  0.00000000000E+00 -0.00000000000E+00 -0.65027864876E+03  0.65027864876E+03  0.00000000000E+00 0. -1.
         23    2    1    2    0    0 -0.43019265729E+03 -0.22882498674E+03  0.12637153834E+04  0.13571621921E+04  0.86521954622E+02 0.  0.
         11    1    3    3    0    0 -0.16587427064E+03 -0.41859929187E+02  0.42753428889E+03  0.46049114597E+03  0.00000000000E+00 0. -1.
        -11    1    3    3    0    0 -0.26431838665E+03 -0.18696505756E+03  0.83618109446E+03  0.89667104615E+03  0.00000000000E+00 0.  1.
         22    1    1    2    0    0  0.43019265729E+03  0.22882498674E+03 -0.50521022991E+03  0.70190025884E+03  0.00000000000E+00 0. -1.
<mgrwt>
<rscale>  0 0.19142644E+04</rscale>
<asrwt>0</asrwt>
<pdfrwt beam="1">  1        2 0.10004287E+00 0.19142644E+04</pdfrwt>
<pdfrwt beam="2">  1       -2 0.21673597E+00 0.19142644E+04</pdfrwt>
<totfact> 0.43555892E+00</totfact>
</mgrwt>
</event>
<event>
 6    1  0.1762360E-005  0.1854644E+04  0.7818608E-02  0.8677768E-01
         -1   -1    0    0    0  501 -0.00000000000E+00  0.00000000000E+00  0.53838611721E+03  0.53838611721E+03  0.00000000000E+00 0.  1.
          1   -1    0    0  501    0  0.00000000000E+00 -0.00000000000E+00 -0.15972290450E+04  0.15972290450E+04  0.00000000000E+00 0. -1.
         23    2    1    2    0    0  0.39911286212E+03  0.58989877657E+03 -0.12104554837E+04  0.14074269926E+04  0.91523867159E+02 0.  0.
         13    1    3    3    0    0  0.12063171723E+03  0.23521898490E+03 -0.38866967700E+03  0.47004691242E+03  0.00000000000E+00 0.  1.
        -13    1    3    3    0    0  0.27848114489E+03  0.35467979167E+03 -0.82178580666E+03  0.93738008017E+03  0.00000000000E+00 0. -1.
         22    1    1    2    0    0 -0.39911286212E+03 -0.58989877657E+03  0.15161255585E+03  0.72818816964E+03  0.00000000000E+00 0.  1.
<mgrwt>
<rscale>  0 0.18546438E+04</rscale>
<asrwt>0</asrwt>
<pdfrwt beam="1">  1        1 0.24572754E+00 0.18546438E+04</pdfrwt>
<pdfrwt beam="2">  1       -1 0.82828636E-01 0.18546438E+04</pdfrwt>
<totfact> 0.76213223E+00</totfact>
</mgrwt>
</event>
<event>
 6    1  0.1762360E-005  0.1555349E+04  0.7818608E-02  0.8848458E-01
          1   -1    0    0  501    0  0.00000000000E+00  0.00000000000E+00  0.28967720919E+03  0.28967720919E+03  0.00000000000E+00 0. -1.
         -1   -1    0    0    0  501 -0.00000000000E+00 -0.00000000000E+00 -0.20877645958E+04  0.20877645958E+04  0.00000000000E+00 0.  1.
         23    2    1    2    0    0 -0.16059553051E+03 -0.55698950154E+03 -0.16884675876E+04  0.17874886462E+04  0.90358379560E+02 0.  0.
         11    1    3    3    0    0 -0.96984786282E+02 -0.22015764302E+03 -0.79148688407E+03  0.82724054797E+03  0.00000000000E+00 0.  1.
        -11    1    3    3    0    0 -0.63610744228E+02 -0.33683185852E+03 -0.89698070353E+03  0.96024809825E+03  0.00000000000E+00 0. -1.
         22    1    1    2    0    0  0.16059553051E+03  0.55698950154E+03 -0.10961979905E+03  0.58995315881E+03  0.00000000000E+00 0. -1.
<mgrwt>
<rscale>  0 0.15553492E+04</rscale>
<asrwt>0</asrwt>
<pdfrwt beam="1">  1        1 0.44565725E-01 0.15553492E+04</pdfrwt>
<pdfrwt beam="2">  1       -1 0.32119455E+00 0.15553492E+04</pdfrwt>
<totfact> 0.21314689E+00</totfact>
</mgrwt>
</event>
<event>
 6    1  0.1762360E-005  0.1958801E+04  0.7818608E-02  0.8626129E-01
         -2   -1    0    0    0  501 -0.00000000000E+00  0.00000000000E+00  0.35474985206E+03  0.35474985206E+03  0.00000000000E+00 0.  1.
          2   -1    0    0  501    0  0.00000000000E+00 -0.00000000000E+00 -0.27039476961E+04  0.27039476961E+04  0.00000000000E+00 0. -1.
         23    2    1    2    0    0  0.53036544920E+02  0.73339539889E+03 -0.17085547975E+03  0.75959834579E+03  0.84358554782E+02 0.  0.
         11    1    3    3    0    0  0.45437863048E+02  0.43290745057E+03 -0.60854606762E+02  0.43951876334E+03  0.00000000000E+00 0. -1.
        -11    1    3    3    0    0  0.75986818723E+01  0.30048794832E+03 -0.11000087298E+03  0.32007958246E+03  0.00000000000E+00 0.  1.
         22    1    1    2    0    0 -0.53036544920E+02 -0.73339539889E+03 -0.21783423643E+04  0.22990992023E+04  0.00000000000E+00 0. -1.
<mgrwt>
<rscale>  0 0.19588007E+04</rscale>
<asrwt>0</asrwt>
<pdfrwt beam="1">  1        2 0.41599193E+00 0.19588007E+04</pdfrwt>
<pdfrwt beam="2">  1       -2 0.54576903E-01 0.19588007E+04</pdfrwt>
<totfact> 0.77884005E+00</totfact>
</mgrwt>
</event>
<event>
 6    1  0.1762360E-005  0.2975017E+04  0.7818608E-02  0.8250901E-01
          2   -1    0    0  501    0  0.00000000000E+00  0.00000000000E+00  0.12355324440E+04  0.12355324440E+04  0.00000000000E+00 0.  1.
         -2   -1    0    0    0  501 -0.00000000000E+00 -0.00000000000E+00 -0.17908723349E+04  0.17908723349E+04  0.00000000000E+00 0. -1.
         23    2    1    2    0    0  0.26421335583E+02  0.11134359357E+04 -0.12787453258E+04  0.16983411158E+04  0.93462651863E+02 0.  0.
         11    1    3    3    0    0  0.38849923229E+02  0.69866339483E+03 -0.86160356361E+03  0.11099552048E+04  0.00000000000E+00 0.  1.
        -11    1    3    3    0    0 -0.12428587646E+02  0.41477254088E+03 -0.41714176221E+03  0.58838591097E+03  0.00000000000E+00 0. -1.
         22    1    1    2    0    0 -0.26421335583E+02 -0.11134359357E+04  0.72340543497E+03  0.13280636631E+04  0.00000000000E+00 0.  1.
<mgrwt>
<rscale>  0 0.29750166E+04</rscale>
<asrwt>0</asrwt>
<pdfrwt beam="1">  1        2 0.19008192E+00 0.29750166E+04</pdfrwt>
<pdfrwt beam="2">  1       -2 0.27551882E+00 0.29750166E+04</pdfrwt>
<totfact> 0.69397557E-01</totfact>
</mgrwt>
</event>
<event>
 6    1  0.1762360E-005  0.8853468E+04  0.7818608E-02  0.7411624E-01
          1   -1    0    0  501    0  0.00000000000E+00  0.00000000000E+00  0.49829669153E+04  0.49829669153E+04  0.00000000000E+00 0. -1.
         -1   -1    0    0    0  501 -0.00000000000E+00 -0.00000000000E+00 -0.39325911745E+04  0.39325911745E+04  0.00000000000E+00 0.  1.
         23    2    1    2    0    0 -0.36098848914E+04 -0.22385188424E+04  0.17787850619E+04  0.46059391187E+04  0.91451254818E+02 0.  0.
         11    1    3    3    0    0 -0.27674530393E+04 -0.16816125976E+04  0.13835960779E+04  0.35214990217E+04  0.00000000000E+00 0. -1.
        -11    1    3    3    0    0 -0.84243185214E+03 -0.55690624477E+03  0.39518898394E+03  0.10844400970E+04  0.00000000000E+00 0.  1.
         22    1    1    2    0    0  0.36098848914E+04  0.22385188424E+04 -0.72840932111E+03  0.43096189711E+04  0.00000000000E+00 0. -1.
<mgrwt>
<rscale>  0 0.88534675E+04</rscale>
<asrwt>0</asrwt>
<pdfrwt beam="1">  1        1 0.76661030E+00 0.88534675E+04</pdfrwt>
<pdfrwt beam="2">  1       -1 0.60501402E+00 0.88534675E+04</pdfrwt>
<totfact> 0.21193780E-06</totfact>
</mgrwt>
</event>
<event>
 6    1  0.1762360E-005  0.2050247E+04  0.7818608E-02  0.8583482E-01
          2   -1    0    0  501    0  0.00000000000E+00  0.00000000000E+00  0.15292794665E+04  0.15292794665E+04  0.00000000000E+00 0. -1.
         -2   -1    0    0    0  501 -0.00000000000E+00 -0.00000000000E+00 -0.68717219052E+03  0.68717219052E+03  0.00000000000E+00 0.  1.
         23    2    1    2    0    0 -0.86249252021E+03  0.52761126999E+03  0.25156895553E+03  0.10455534943E+04  0.87339397438E+02 0.  0.
         13    1    3    3    0    0 -0.16226048553E+03  0.63342577817E+02  0.31014976209E+02  0.17692562301E+03  0.00000000000E+00 0.  1.
        -13    1    3    3    0    0 -0.70023203468E+03  0.46426869217E+03  0.22055397932E+03  0.86862787125E+03  0.00000000000E+00 0. -1.
         22    1    1    2    0    0  0.86249252021E+03 -0.52761126999E+03  0.59053832048E+03  0.11708981628E+04  0.00000000000E+00 0. -1.
<mgrwt>
<rscale>  0 0.20502471E+04</rscale>
<asrwt>0</asrwt>
<pdfrwt beam="1">  1        2 0.23527376E+00 0.20502471E+04</pdfrwt>
<pdfrwt beam="2">  1       -2 0.10571880E+00 0.20502471E+04</pdfrwt>
<totfact> 0.81773093E+00</totfact>
</mgrwt>
</event>
<event>
 6    1  0.1762360E-005  0.5646416E+04  0.7818608E-02  0.7735857E-01
          1   -1    0    0  501    0  0.00000000000E+00  0.00000000000E+00  0.30313047186E+04  0.30313047186E+04  0.00000000000E+00 0. -1.
         -1   -1    0    0    0  501 -0.00000000000E+00 -0.00000000000E+00 -0.26293970047E+04  0.26293970047E+04  0.00000000000E+00 0.  1.
         23    2    1    2    0    0  0.21808958322E+04 -0.13234109948E+04  0.14117649807E+04  0.29170663628E+04  0.92046248884E+02 0.  0.
         13    1    3    3    0    0  0.25825040887E+03 -0.13343769462E+03  0.13670727126E+03  0.32122853242E+03  0.00000000000E+00 0.  1.
        -13    1    3    3    0    0  0.19226454234E+04 -0.11899733002E+04  0.12750577095E+04  0.25958378304E+04  0.00000000000E+00 0. -1.
         22    1    1    2    0    0 -0.21808958322E+04  0.13234109948E+04 -0.10098572669E+04  0.27436353605E+04  0.00000000000E+00 0.  1.
<mgrwt>
<rscale>  0 0.56464160E+04</rscale>
<asrwt>0</asrwt>
<pdfrwt beam="1">  1        1 0.46635457E+00 0.56464160E+04</pdfrwt>
<pdfrwt beam="2">  1       -1 0.40452261E+00 0.56464160E+04</pdfrwt>
<totfact> 0.25943490E-03</totfact>
</mgrwt>
</event>
<event>
 6    1  0.1762360E-005  0.1574143E+04  0.7818608E-02  0.8836592E-01
         -2   -1    0    0    0  501 -0.00000000000E+00  0.00000000000E+00  0.23437338288E+03  0.23437338288E+03  0.00000000000E+00 0.  1.
          2   -1    0    0  501    0  0.00000000000E+00 -0.00000000000E+00 -0.26431403322E+04  0.26431403322E+04  0.00000000000E+00 0. -1.
         23    2    1    2    0    0 -0.15005596515E+03  0.60230613325E+03 -0.33186653232E+03  0.70984104308E+03  0.91920837327E+02 0.  0.
         11    1    3    3    0    0 -0.35001736631E+02  0.58752888081E+02 -0.61407541078E+02  0.91912510173E+02  0.00000000000E+00 0. -1.
        -11    1    3    3    0    0 -0.11505422852E+03  0.54355324516E+03 -0.27045899124E+03  0.61792853290E+03  0.00000000000E+00 0.  1.
         22    1    1    2    0    0  0.15005596515E+03 -0.60230613325E+03 -0.20769004170E+04  0.21676726720E+04  0.00000000000E+00 0. -1.
<mgrwt>
<rscale>  0 0.15741432E+04</rscale>
<asrwt>0</asrwt>
<pdfrwt beam="1">  1        2 0.40663696E+00 0.15741432E+04</pdfrwt>
<pdfrwt beam="2">  1       -2 0.36057445E-01 0.15741432E+04</pdfrwt>
<totfact> 0.20017190E+01</totfact>
</mgrwt>
</event>
<event>
 6    1  0.1762360E-005  0.2474779E+04  0.7818608E-02  0.8412026E-01
          2   -1    0    0  501    0  0.00000000000E+00  0.00000000000E+00  0.16258739945E+04  0.16258739945E+04  0.00000000000E+00 0.  1.
         -2   -1    0    0    0  501 -0.00000000000E+00 -0.00000000000E+00 -0.94172936214E+03  0.94172936214E+03  0.00000000000E+00 0. -1.
         23    2    1    2    0    0 -0.38455263123E+03  0.99165682169E+03 -0.31028169370E+03  0.11115306606E+04  0.89228368967E+02 0.  0.
         11    1    3    3    0    0 -0.84246696016E+02  0.23187790964E+03 -0.33651301691E+02  0.24899253177E+03  0.00000000000E+00 0. -1.
        -11    1    3    3    0    0 -0.30030593522E+03  0.75977891205E+03 -0.27663039201E+03  0.86253812884E+03  0.00000000000E+00 0.  1.
         22    1    1    2    0    0  0.38455263123E+03 -0.99165682169E+03  0.99442632609E+03  0.14560726961E+04  0.00000000000E+00 0.  1.
<mgrwt>
<rscale>  0 0.24747794E+04</rscale>
<asrwt>0</asrwt>
<pdfrwt beam="1">  1        2 0.25013446E+00 0.24747794E+04</pdfrwt>
<pdfrwt beam="2">  1       -2 0.14488144E+00 0.24747794E+04</pdfrwt>
<totfact> 0.31661569E+00</totfact>
</mgrwt>
</event>
<event>
 6    1  0.1762360E-005  0.8041917E+03  0.7818608E-02  0.9553970E-01
          2   -1    0    0  501    0  0.00000000000E+00  0.00000000000E+00  0.68843730984E+03  0.68843730984E+03  0.00000000000E+00 0.  1.
         -2   -1    0    0    0  501 -0.00000000000E+00 -0.00000000000E+00 -0.23485229369E+03  0.23485229369E+03  0.00000000000E+00 0. -1.
         23    2    1    2    0    0 -0.22367833474E+03  0.20748867319E+03 -0.62964713179E+02  0.32336696701E+03  0.86706939239E+02 0.  0.
         11    1    3    3    0    0 -0.15005919846E+03  0.92163149882E+02 -0.61522934408E+02  0.18653922027E+03  0.00000000000E+00 0.  1.
        -11    1    3    3    0    0 -0.73619136283E+02  0.11532552331E+03 -0.14417787712E+01  0.13682774675E+03  0.00000000000E+00 0. -1.
         22    1    1    2    0    0  0.22367833474E+03 -0.20748867319E+03  0.51654972933E+03  0.59992263652E+03  0.00000000000E+00 0.  1.
<mgrwt>
<rscale>  0 0.80419172E+03</rscale>
<asrwt>0</asrwt>
<pdfrwt beam="1">  1        2 0.10591343E+00 0.80419172E+03</pdfrwt>
<pdfrwt beam="2">  1       -2 0.36131122E-01 0.80419172E+03</pdfrwt>
<totfact> 0.30313928E+02</totfact>
</mgrwt>
</event>
<event>
 6    1  0.1762360E-005  0.2011652E+04  0.7818608E-02  0.8601192E-01
         -1   -1    0    0    0  501 -0.00000000000E+00  0.00000000000E+00  0.10420889474E+04  0.10420889474E+04  0.00000000000E+00 0.  1.
          1   -1    0    0  501    0  0.00000000000E+00 -0.00000000000E+00 -0.97082489481E+03  0.97082489481E+03  0.00000000000E+00 0. -1.
         23    2    1    2    0    0  0.89891855632E+03  0.30501630596E+02 -0.41025749600E+03  0.99269429617E+03  0.90254264430E+02 0.  0.
         11    1    3    3    0    0  0.19492502227E+03 -0.30361241491E+02 -0.84911146217E+02  0.21477307104E+03  0.00000000000E+00 0.  1.
        -11    1    3    3    0    0  0.70399353405E+03  0.60862872087E+02 -0.32534634978E+03  0.77792122513E+03  0.00000000000E+00 0. -1.
         22    1    1    2    0    0 -0.89891855632E+03 -0.30501630596E+02  0.48152154859E+03  0.10202195460E+04  0.00000000000E+00 0.  1.
<mgrwt>
<rscale>  0 0.20116520E+04</rscale>
<asrwt>0</asrwt>
<pdfrwt beam="1">  1        1 0.14935768E+00 0.20116520E+04</pdfrwt>
<pdfrwt beam="2">  1       -1 0.16032138E+00 0.20116520E+04</pdfrwt>
<totfact> 0.42966220E+00</totfact>
</mgrwt>
</event>
<event>
 6    1  0.1762360E-005  0.8879542E+03  0.7818608E-02  0.9440766E-01
          1   -1    0    0  501    0  0.00000000000E+00  0.00000000000E+00  0.76144731973E+03  0.76144731973E+03  0.00000000000E+00 0. -1.
         -1   -1    0    0    0  501 -0.00000000000E+00 -0.00000000000E+00 -0.25886975268E+03  0.25886975268E+03  0.00000000000E+00 0.  1.
         23    2    1    2    0    0 -0.37622370480E+03 -0.87548738827E+02  0.49433077930E+03  0.63395316723E+03  0.91239471457E+02 0.  0.
         13    1    3    3    0    0 -0.61284491106E+02 -0.48524036020E+02  0.11988238184E+03  0.14311588451E+03  0.00000000000E+00 0. -1.
        -13    1    3    3    0    0 -0.31493921369E+03 -0.39024702807E+02  0.37444839746E+03  0.49083728272E+03  0.00000000000E+00 0.  1.
         22    1    1    2    0    0  0.37622370480E+03  0.87548738827E+02  0.82467877579E+01  0.38636390518E+03  0.00000000000E+00 0.  1.
<mgrwt>
<rscale>  0 0.88795423E+03</rscale>
<asrwt>0</asrwt>
<pdfrwt beam="1">  1        1 0.11714574E+00 0.88795423E+03</pdfrwt>
<pdfrwt beam="2">  1       -1 0.39826116E-01 0.88795423E+03</pdfrwt>
<totfact> 0.14791527E+02</totfact>
</mgrwt>
</event>
<event>
 6    1  0.3745120E-005  0.4486693E+04  0.7818608E-02  0.7912971E-01
         -2   -1    0    0    0  501 -0.00000000000E+00  0.00000000000E+00  0.23312640573E+04  0.23312640573E+04  0.00000000000E+00 0. -1.
          2   -1    0    0  501    0  0.00000000000E+00 -0.00000000000E+00 -0.21587449212E+04  0.21587449212E+04  0.00000000000E+00 0.  1.
         23    2    1    2    0    0 -0.20335230609E+04  0.51019048964E+03  0.88249029204E+03  0.22765118773E+04  0.90591594806E+02 0.  0.
         13    1    3    3    0    0 -0.11467106394E+04  0.28230474599E+03  0.54539501787E+03  0.13008062829E+04  0.00000000000E+00 0.  1.
        -13    1    3    3    0    0 -0.88681242149E+03  0.22788574365E+03  0.33709527417E+03  0.97570559440E+03  0.00000000000E+00 0. -1.
         22    1    1    2    0    0  0.20335230609E+04 -0.51019048964E+03 -0.70997115595E+03  0.22134971012E+04  0.00000000000E+00 0.  1.
<mgrwt>
<rscale>  0 0.44866934E+04</rscale>
<asrwt>0</asrwt>
<pdfrwt beam="1">  1        2 0.33211460E+00 0.44866934E+04</pdfrwt>
<pdfrwt beam="2">  1       -2 0.35865601E+00 0.44866934E+04</pdfrwt>
<totfact> 0.56663004E-02</totfact>
</mgrwt>
</event>
<event>
 6    1  0.1762360E-005  0.2791080E+04  0.7818608E-02  0.8306043E-01
          2   -1    0    0  501    0  0.00000000000E+00  0.00000000000E+00  0.13715783612E+04  0.13715783612E+04  0.00000000000E+00 0.  1.
         -2   -1    0    0    0  501 -0.00000000000E+00 -0.00000000000E+00 -0.14199199496E+04  0.14199199496E+04  0.00000000000E+00 0. -1.
         23    2    1    2    0    0  0.55592101560E+03  0.28691503600E+02  0.12541237233E+04  0.13750636084E+04  0.90012420866E+02 0.  0.
         13    1    3    3    0    0  0.25778072156E+03  0.52979758211E+02  0.53562006872E+03  0.59678020510E+03  0.00000000000E+00 0. -1.
        -13    1    3    3    0    0  0.29814029404E+03 -0.24288254611E+02  0.71850365459E+03  0.77828340333E+03  0.00000000000E+00 0.  1.
         22    1    1    2    0    0 -0.55592101560E+03 -0.28691503600E+02 -0.13024653117E+04  0.14164347024E+04  0.00000000000E+00 0. -1.
<mgrwt>
<rscale>  0 0.27910797E+04</rscale>
<asrwt>0</asrwt>
<pdfrwt beam="1">  1        2 0.21101206E+00 0.27910797E+04</pdfrwt>
<pdfrwt beam="2">  1       -2 0.21844922E+00 0.27910797E+04</pdfrwt>
<totfact> 0.13228302E+00</totfact>
</mgrwt>
</event>
<event>
 6    1  0.1762360E-005  0.1109475E+04  0.7818608E-02  0.9196006E-01
         -1   -1    0    0    0  501 -0.00000000000E+00  0.00000000000E+00  0.49076702815E+03  0.49076702815E+03  0.00000000000E+00 0. -1.
          1   -1    0    0  501    0  0.00000000000E+00 -0.00000000000E+00 -0.62704643936E+03  0.62704643936E+03  0.00000000000E+00 0.  1.
         23    2    1    2    0    0 -0.38407021254E+03 -0.70408267801E+02 -0.46040338298E+03  0.61034563463E+03  0.89906986981E+02 0.  0.
         11    1    3    3    0    0 -0.18541372795E+03 -0.63809219019E+01 -0.16266840693E+03  0.24673868219E+03  0.00000000000E+00 0. -1.
        -11    1    3    3    0    0 -0.19865648459E+03 -0.64027345899E+02 -0.29773497606E+03  0.36360695244E+03  0.00000000000E+00 0.  1.
         22    1    1    2    0    0  0.38407021254E+03  0.70408267801E+02  0.32412397177E+03  0.50746783289E+03  0.00000000000E+00 0. -1.
<mgrwt>
<rscale>  0 0.11094750E+04</rscale>
<asrwt>0</asrwt>
<pdfrwt beam="1">  1        1 0.96468682E-01 0.11094750E+04</pdfrwt>
<pdfrwt beam="2">  1       -1 0.75502620E-01 0.11094750E+04</pdfrwt>
<totfact> 0.56415772E+01</totfact>
</mgrwt>
</event>
<event>
 6    1  0.1762360E-005  0.1855152E+04  0.7818608E-02  0.8677508E-01
         -1   -1    0    0    0  501 -0.00000000000E+00  0.00000000000E+00  0.78404810635E+03  0.78404810635E+03  0.00000000000E+00 0.  1.
          1   -1    0    0  501    0  0.00000000000E+00 -0.00000000000E+00 -0.10973785475E+04  0.10973785475E+04  0.00000000000E+00 0. -1.
         23    2    1    2    0    0  0.62017536589E+03  0.40190499249E+03  0.40769539624E+03  0.84894257860E+03  0.91339247863E+02 0.  0.
         11    1    3    3    0    0  0.57439285529E+03  0.34449102849E+03  0.38252927576E+03  0.77131696969E+03  0.00000000000E+00 0.  1.
        -11    1    3    3    0    0  0.45782510601E+02  0.57413963997E+02  0.25166120487E+02  0.77625608913E+02  0.00000000000E+00 0. -1.
         22    1    1    2    0    0 -0.62017536589E+03 -0.40190499249E+03 -0.72102583737E+03  0.10324840752E+04  0.00000000000E+00 0.  1.
<mgrwt>
<rscale>  0 0.18551524E+04</rscale>
<asrwt>0</asrwt>
<pdfrwt beam="1">  1        1 0.16882747E+00 0.18551524E+04</pdfrwt>
<pdfrwt beam="2">  1       -1 0.12062279E+00 0.18551524E+04</pdfrwt>
<totfact> 0.73129093E+00</totfact>
</mgrwt>
</event>
<event>
 6    1  0.1762360E-005  0.1794060E+04  0.7818608E-02  0.8709465E-01
         -1   -1    0    0    0  501 -0.00000000000E+00  0.00000000000E+00  0.92202164188E+03  0.92202164188E+03  0.00000000000E+00 0.  1.
          1   -1    0    0  501    0  0.00000000000E+00 -0.00000000000E+00 -0.87271534579E+03  0.87271534579E+03  0.00000000000E+00 0. -1.
         23    2    1    2    0    0  0.34923524970E+03  0.81646074700E+03 -0.83666627876E+02  0.89681983696E+03  0.93339725327E+02 0.  0.
         13    1    3    3    0    0  0.27806510452E+03  0.55754662132E+03 -0.35784761310E+02  0.62406649200E+03  0.00000000000E+00 0. -1.
        -13    1    3    3    0    0  0.71170145182E+02  0.25891412568E+03 -0.47881866565E+02  0.27275334496E+03  0.00000000000E+00 0.  1.
         22    1    1    2    0    0 -0.34923524970E+03 -0.81646074700E+03  0.13297292397E+03  0.89791715071E+03  0.00000000000E+00 0. -1.
<mgrwt>
<rscale>  0 0.17940596E+04</rscale>
<asrwt>0</asrwt>
<pdfrwt beam="1">  1        1 0.13426390E+00 0.17940596E+04</pdfrwt>
<pdfrwt beam="2">  1       -1 0.14184948E+00 0.17940596E+04</pdfrwt>
<totfact> 0.73289155E+00</totfact>
</mgrwt>
</event>
<event>
 6    1  0.1762360E-005  0.3565428E+04  0.7818608E-02  0.8098457E-01
          1   -1    0    0  501    0  0.00000000000E+00  0.00000000000E+00  0.27691536812E+04  0.27691536812E+04  0.00000000000E+00 0. -1.
         -1   -1    0    0    0  501 -0.00000000000E+00 -0.00000000000E+00 -0.11476680063E+04  0.11476680063E+04  0.00000000000E+00 0.  1.
         23    2    1    2    0    0 -0.83696449328E+03 -0.14241753564E+04  0.15441328194E+04  0.22631081474E+04  0.92343456858E+02 0.  0.
         13    1    3    3    0    0 -0.38665683996E+03 -0.59092403171E+03  0.61789952071E+03  0.93834670609E+03  0.00000000000E+00 0.  1.
        -13    1    3    3    0    0 -0.45030765332E+03 -0.83325132467E+03  0.92623329867E+03  0.13247614413E+04  0.00000000000E+00 0. -1.
         22    1    1    2    0    0  0.83696449328E+03  0.14241753564E+04  0.77352855526E+02  0.16537135402E+04  0.00000000000E+00 0.  1.
<mgrwt>
<rscale>  0 0.35654279E+04</rscale>
<asrwt>0</asrwt>
<pdfrwt beam="1">  1        1 0.42602364E+00 0.35654279E+04</pdfrwt>
<pdfrwt beam="2">  1       -1 0.17656431E+00 0.35654279E+04</pdfrwt>
<totfact> 0.15666659E-01</totfact>
</mgrwt>
</event>
<event>
 6    1  0.1762360E-005  0.2522731E+04  0.7818608E-02  0.8394932E-01
         -2   -1    0    0    0  501 -0.00000000000E+00  0.00000000000E+00  0.47993524635E+03  0.47993524635E+03  0.00000000000E+00 0.  1.
          2   -1    0    0  501    0  0.00000000000E+00 -0.00000000000E+00 -0.33151199504E+04  0.33151199504E+04  0.00000000000E+00 0. -1.
         23    2    1    2    0    0  0.74506653861E+03 -0.29651030146E+03 -0.28809565062E+04  0.29918506377E+04  0.90649555299E+02 0.  0.
         13    1    3    3    0    0  0.20424112329E+03 -0.65264606217E+02 -0.91523459651E+03  0.94001503813E+03  0.00000000000E+00 0. -1.
        -13    1    3    3    0    0  0.54082541532E+03 -0.23124569525E+03 -0.19657219097E+04  0.20518355996E+04  0.00000000000E+00 0.  1.
         22    1    1    2    0    0 -0.74506653861E+03  0.29651030146E+03  0.45771802132E+02  0.80320455907E+03  0.00000000000E+00 0. -1.
<mgrwt>
<rscale>  0 0.25227310E+04</rscale>
<asrwt>0</asrwt>
<pdfrwt beam="1">  1        2 0.51001847E+00 0.25227310E+04</pdfrwt>
<pdfrwt beam="2">  1       -2 0.73836189E-01 0.25227310E+04</pdfrwt>
<totfact> 0.16025109E+00</totfact>
</mgrwt>
</event>
<event>
 6    1  0.1762360E-005  0.6293102E+04  0.7818608E-02  0.7655086E-01
         -1   -1    0    0    0  501 -0.00000000000E+00  0.00000000000E+00  0.28732037290E+04  0.28732037290E+04  0.00000000000E+00 0.  1.
          1   -1    0    0  501    0  0.00000000000E+00 -0.00000000000E+00 -0.34459035362E+04  0.34459035362E+04  0.00000000000E+00 0. -1.
         23    2    1    2    0    0 -0.20570592256E+04  0.10048712202E+04  0.18801441809E+04  0.29638572810E+04  0.90824086530E+02 0.  0.
         13    1    3    3    0    0 -0.11881585794E+04  0.59248886569E+03  0.10338219619E+04  0.16827215203E+04  0.00000000000E+00 0.  1.
        -13    1    3    3    0    0 -0.86890064618E+03  0.41238235451E+03  0.84632221896E+03  0.12811357608E+04  0.00000000000E+00 0. -1.
         22    1    1    2    0    0  0.20570592256E+04 -0.10048712202E+04 -0.24528439881E+04  0.33552499842E+04  0.00000000000E+00 0. -1.
<mgrwt>
<rscale>  0 0.62931019E+04</rscale>
<asrwt>0</asrwt>
<pdfrwt beam="1">  1        1 0.53013900E+00 0.62931019E+04</pdfrwt>
<pdfrwt beam="2">  1       -1 0.44203134E+00 0.62931019E+04</pdfrwt>
<totfact> 0.66307905E-04</totfact>
</mgrwt>
</event>
<event>
 6    1  0.1762360E-005  0.1384309E+04  0.7818608E-02  0.8965256E-01
          2   -1    0    0  501    0  0.00000000000E+00  0.00000000000E+00  0.21527806941E+04  0.21527806941E+04  0.00000000000E+00 0. -1.
         -2   -1    0    0    0  501 -0.00000000000E+00 -0.00000000000E+00 -0.22253900884E+03  0.22253900884E+03  0.00000000000E+00 0.  1.
         23    2    1    2    0    0  0.17066022846E+03  0.66774160955E+03  0.10055061692E+04  0.12220029445E+04  0.85116210545E+02 0.  0.
         11    1    3    3    0    0  0.69815968564E+02  0.43608196020E+03  0.65169484462E+03  0.78724069761E+03  0.00000000000E+00 0. -1.
        -11    1    3    3    0    0  0.10084425990E+03  0.23165964935E+03  0.35381132462E+03  0.43476224689E+03  0.00000000000E+00 0.  1.
         22    1    1    2    0    0 -0.17066022846E+03 -0.66774160955E+03  0.92473551602E+03  0.11533167584E+04  0.00000000000E+00 0.  1.
<mgrwt>
<rscale>  0 0.13843088E+04</rscale>
<asrwt>0</asrwt>
<pdfrwt beam="1">  1        2 0.33119701E+00 0.13843088E+04</pdfrwt>
<pdfrwt beam="2">  1       -2 0.34236772E-01 0.13843088E+04</pdfrwt>
<totfact> 0.42797791E+01</totfact>
</mgrwt>
</event>
<event>
 6    1  0.1762360E-005  0.1344497E+04  0.7818608E-02  0.8995004E-01
          2   -1    0    0  501    0  0.00000000000E+00  0.00000000000E+00  0.18769198360E+04  0.18769198360E+04  0.00000000000E+00 0. -1.
         -2   -1    0    0    0  501 -0.00000000000E+00 -0.00000000000E+00 -0.24077632311E+03  0.24077632311E+03  0.00000000000E+00 0.  1.
         23    2    1    2    0    0 -0.39447158946E+03  0.16171965829E+03  0.92185820066E+01  0.43583831331E+03  0.90049821326E+02 0.  0.
         13    1    3    3    0    0 -0.14780829670E+03  0.26386695023E+02  0.32173401185E+02  0.15355350205E+03  0.00000000000E+00 0.  1.
        -13    1    3    3    0    0 -0.24666329276E+03  0.13533296327E+03 -0.22954819178E+02  0.28228481126E+03  0.00000000000E+00 0. -1.
         22    1    1    2    0    0  0.39447158946E+03 -0.16171965829E+03  0.16269249309E+04  0.16818578458E+04  0.00000000000E+00 0. -1.
<mgrwt>
<rscale>  0 0.13444967E+04</rscale>
<asrwt>0</asrwt>
<pdfrwt beam="1">  1        2 0.28875689E+00 0.13444967E+04</pdfrwt>
<pdfrwt beam="2">  1       -2 0.37042512E-01 0.13444967E+04</pdfrwt>
<totfact> 0.52504845E+01</totfact>
</mgrwt>
</event>
<event>
 6    1  0.1762360E-005  0.3363140E+04  0.7818608E-02  0.8147013E-01
         -1   -1    0    0    0  501 -0.00000000000E+00  0.00000000000E+00  0.19226804887E+04  0.19226804887E+04  0.00000000000E+00 0.  1.
          1   -1    0    0  501    0  0.00000000000E+00 -0.00000000000E+00 -0.14706957495E+04  0.14706957495E+04  0.00000000000E+00 0. -1.
         23    2    1    2    0    0  0.10156716449E+04  0.66800228544E+03  0.13965410136E+04  0.18538949947E+04  0.93722489878E+02 0.  0.
         11    1    3    3    0    0  0.84121707483E+03  0.51250818569E+03  0.11069697307E+04  0.14817870265E+04  0.00000000000E+00 0. -1.
        -11    1    3    3    0    0  0.17445457003E+03  0.15549409974E+03  0.28957128291E+03  0.37210796813E+03  0.00000000000E+00 0.  1.
         22    1    1    2    0    0 -0.10156716449E+04 -0.66800228544E+03 -0.94455627442E+03  0.15394812435E+04  0.00000000000E+00 0. -1.
<mgrwt>
<rscale>  0 0.33631402E+04</rscale>
<asrwt>0</asrwt>
<pdfrwt beam="1">  1        1 0.22626089E+00 0.33631402E+04</pdfrwt>
<pdfrwt beam="2">  1       -1 0.29579700E+00 0.33631402E+04</pdfrwt>
<totfact> 0.19891878E-01</totfact>
</mgrwt>
</event>
<event>
 6    1  0.1762360E-005  0.2274550E+04  0.7818608E-02  0.8488024E-01
         -2   -1    0    0    0  501 -0.00000000000E+00  0.00000000000E+00  0.11374508235E+04  0.11374508235E+04  0.00000000000E+00 0. -1.
          2   -1    0    0  501    0  0.00000000000E+00 -0.00000000000E+00 -0.11370993094E+04  0.11370993094E+04  0.00000000000E+00 0.  1.
         23    2    1    2    0    0  0.70235474771E+03 -0.27571381387E+03  0.84867997716E+03  0.11392169308E+04  0.90759092732E+02 0.  0.
         13    1    3    3    0    0  0.47001403762E+03 -0.14808856609E+03  0.51080898968E+03  0.70976703425E+03  0.00000000000E+00 0. -1.
        -13    1    3    3    0    0  0.23234071009E+03 -0.12762524778E+03  0.33787098748E+03  0.42944989652E+03  0.00000000000E+00 0.  1.
         22    1    1    2    0    0 -0.70235474771E+03  0.27571381387E+03 -0.84832846301E+03  0.11353332022E+04  0.00000000000E+00 0.  1.
<mgrwt>
<rscale>  0 0.22745501E+04</rscale>
<asrwt>0</asrwt>
<pdfrwt beam="1">  1        2 0.17493835E+00 0.22745501E+04</pdfrwt>
<pdfrwt beam="2">  1       -2 0.17499244E+00 0.22745501E+04</pdfrwt>
<totfact> 0.36904260E+00</totfact>
</mgrwt>
</event>
<event>
 6    1  0.1762360E-005  0.2883348E+04  0.7818608E-02  0.8277849E-01
         -2   -1    0    0    0  501 -0.00000000000E+00  0.00000000000E+00  0.25622240326E+04  0.25622240326E+04  0.00000000000E+00 0.  1.
          2   -1    0    0  501    0  0.00000000000E+00 -0.00000000000E+00 -0.81117978374E+03  0.81117978374E+03  0.00000000000E+00 0. -1.
         23    2    1    2    0    0  0.70113532448E+03  0.23939818838E+03  0.23213803041E+04  0.24384249654E+04  0.90595582959E+02 0.  0.
         13    1    3    3    0    0  0.41055012939E+03  0.14356250334E+03  0.12143504908E+04  0.12898870941E+04  0.00000000000E+00 0. -1.
        -13    1    3    3    0    0  0.29058519510E+03  0.95835685031E+02  0.11070298133E+04  0.11485378712E+04  0.00000000000E+00 0.  1.
         22    1    1    2    0    0 -0.70113532448E+03 -0.23939818838E+03 -0.57033605524E+03  0.93497885096E+03  0.00000000000E+00 0. -1.
<mgrwt>
<rscale>  0 0.28833483E+04</rscale>
<asrwt>0</asrwt>
<pdfrwt beam="1">  1        2 0.12479689E+00 0.28833483E+04</pdfrwt>
<pdfrwt beam="2">  1       -2 0.39418831E+00 0.28833483E+04</pdfrwt>
<totfact> 0.23659542E-01</totfact>
</mgrwt>
</event>
<event>
 6    1  0.1762360E-005  0.3301542E+04  0.7818608E-02  0.8162503E-01
         -2   -1    0    0    0  501 -0.00000000000E+00  0.00000000000E+00  0.92227644400E+03  0.92227644400E+03  0.00000000000E+00 0.  1.
          2   -1    0    0  501    0  0.00000000000E+00 -0.00000000000E+00 -0.29546947266E+04  0.29546947266E+04  0.00000000000E+00 0. -1.
         23    2    1    2    0    0  0.55537170433E+03  0.10587040135E+02 -0.28408949279E+04  0.28960612352E+04  0.89089119716E+02 0.  0.
         11    1    3    3    0    0  0.36196663498E+03  0.42842886806E+02 -0.19606227359E+04  0.19942158535E+04  0.00000000000E+00 0. -1.
        -11    1    3    3    0    0  0.19340506935E+03 -0.32255846671E+02 -0.88027219200E+03  0.90184538171E+03  0.00000000000E+00 0.  1.
         22    1    1    2    0    0 -0.55537170433E+03 -0.10587040135E+02  0.80847664530E+03  0.98090993541E+03  0.00000000000E+00 0.  1.
<mgrwt>
<rscale>  0 0.33015423E+04</rscale>
<asrwt>0</asrwt>
<pdfrwt beam="1">  1        2 0.45456842E+00 0.33015423E+04</pdfrwt>
<pdfrwt beam="2">  1       -2 0.14188868E+00 0.33015423E+04</pdfrwt>
<totfact> 0.53790986E-01</totfact>
</mgrwt>
</event>
<event>
 6    1  0.1762360E-005  0.1153775E+04  0.7818608E-02  0.9154308E-01
         -2   -1    0    0    0  501 -0.00000000000E+00  0.00000000000E+00  0.24077073471E+03  0.24077073471E+03  0.00000000000E+00 0.  1.
          2   -1    0    0  501    0  0.00000000000E+00 -0.00000000000E+00 -0.13822245791E+04  0.13822245791E+04  0.00000000000E+00 0. -1.
         23    2    1    2    0    0 -0.83810864035E+02 -0.25509824495E+03 -0.12867870010E+04  0.13176740045E+04  0.91348896291E+02 0.  0.
         11    1    3    3    0    0 -0.61332981342E+02 -0.24553633329E+03 -0.10703603200E+04  0.10998731928E+04  0.00000000000E+00 0.  1.
        -11    1    3    3    0    0 -0.22477882693E+02 -0.95619116601E+01 -0.21642668100E+03  0.21780081178E+03  0.00000000000E+00 0. -1.
         22    1    1    2    0    0  0.83810864035E+02  0.25509824495E+03  0.14533315657E+03  0.30532130929E+03  0.00000000000E+00 0.  1.
<mgrwt>
<rscale>  0 0.11537751E+04</rscale>
<asrwt>0</asrwt>
<pdfrwt beam="1">  1        2 0.21264993E+00 0.11537751E+04</pdfrwt>
<pdfrwt beam="2">  1       -2 0.37041652E-01 0.11537751E+04</pdfrwt>
<totfact> 0.10062762E+02</totfact>
</mgrwt>
</event>
<event>
 6    1  0.1762360E-005  0.5485191E+04  0.7818608E-02  0.7757730E-01
          2   -1    0    0  501    0  0.00000000000E+00  0.00000000000E+00  0.35347189333E+04  0.35347189333E+04  0.00000000000E+00 0. -1.
         -2   -1    0    0    0  501 -0.00000000000E+00 -0.00000000000E+00 -0.21279856323E+04  0.21279856323E+04  0.00000000000E+00 0.  1.
         23    2    1    2    0    0  0.78806392402E+03  0.92932889010E+03 -0.18321256209E+04  0.22022271347E+04  0.91777598757E+02 0.  0.
         13    1    3    3    0    0  0.16855198744E+03  0.24063990013E+03 -0.49374741309E+03  0.57454664035E+03  0.00000000000E+00 0. -1.
        -13    1    3    3    0    0  0.61951193658E+03  0.68868898998E+03 -0.13383782078E+04  0.16276804943E+04  0.00000000000E+00 0.  1.
         22    1    1    2    0    0 -0.78806392402E+03 -0.92932889010E+03  0.32388589219E+04  0.34604774310E+04  0.00000000000E+00 0. -1.
<mgrwt>
<rscale>  0 0.54851914E+04</rscale>
<asrwt>0</asrwt>
<pdfrwt beam="1">  1        2 0.54380291E+00 0.54851914E+04</pdfrwt>
<pdfrwt beam="2">  1       -2 0.32738241E+00 0.54851914E+04</pdfrwt>
<totfact> 0.11578014E-02</totfact>
</mgrwt>
</event>
<event>
 6    1  0.1762360E-005  0.2268791E+04  0.7818608E-02  0.8490329E-01
          2   -1    0    0  501    0  0.00000000000E+00  0.00000000000E+00  0.24927442421E+04  0.24927442421E+04  0.00000000000E+00 0. -1.
         -2   -1    0    0    0  501 -0.00000000000E+00 -0.00000000000E+00 -0.51623934616E+03  0.51623934616E+03  0.00000000000E+00 0.  1.
         23    2    1    2    0    0  0.53122066835E+03  0.95509166747E+03  0.59599244622E+03  0.12482422343E+04  0.92228996135E+02 0.  0.
         11    1    3    3    0    0  0.44953269862E+03  0.85205367604E+03  0.54763058957E+03  0.11081400528E+04  0.00000000000E+00 0. -1.
        -11    1    3    3    0    0  0.81687969730E+02  0.10303799144E+03  0.48361856647E+02  0.14010218148E+03  0.00000000000E+00 0.  1.
         22    1    1    2    0    0 -0.53122066835E+03 -0.95509166747E+03  0.13805124497E+04  0.17607413539E+04  0.00000000000E+00 0. -1.
<mgrwt>
<rscale>  0 0.22687906E+04</rscale>
<asrwt>0</asrwt>
<pdfrwt beam="1">  1        2 0.38349911E+00 0.22687906E+04</pdfrwt>
<pdfrwt beam="2">  1       -2 0.79421439E-01 0.22687906E+04</pdfrwt>
<totfact> 0.44889561E+00</totfact>
</mgrwt>
</event>
<event>
 6    1  0.1762360E-005  0.2316455E+04  0.7818608E-02  0.8471461E-01
         -1   -1    0    0    0  501 -0.00000000000E+00  0.00000000000E+00  0.57905588740E+03  0.57905588740E+03  0.00000000000E+00 0.  1.
          1   -1    0    0  501    0  0.00000000000E+00 -0.00000000000E+00 -0.23166867988E+04  0.23166867988E+04  0.00000000000E+00 0. -1.
         23    2    1    2    0    0  0.41090193154E+03 -0.21437642458E+03  0.45431423888E+03  0.65533620733E+03  0.90920120021E+02 0.  0.
         13    1    3    3    0    0  0.18560357097E+03 -0.13373578805E+03  0.17836675687E+03  0.29008386119E+03  0.00000000000E+00 0. -1.
        -13    1    3    3    0    0  0.22529836057E+03 -0.80640636527E+02  0.27594748201E+03  0.36525234614E+03  0.00000000000E+00 0.  1.
         22    1    1    2    0    0 -0.41090193154E+03  0.21437642458E+03 -0.21919451503E+04  0.22404064789E+04  0.00000000000E+00 0. -1.
<mgrwt>
<rscale>  0 0.23164552E+04</rscale>
<asrwt>0</asrwt>
<pdfrwt beam="1">  1        1 0.35641335E+00 0.23164552E+04</pdfrwt>
<pdfrwt beam="2">  1       -1 0.89085521E-01 0.23164552E+04</pdfrwt>
<totfact> 0.20210769E+00</totfact>
</mgrwt>
</event>
<event>
 6    1  0.1762360E-005  0.1624892E+04  0.7818608E-02  0.8805400E-01
         -1   -1    0    0    0  501 -0.00000000000E+00  0.00000000000E+00  0.45623476090E+03  0.45623476090E+03  0.00000000000E+00 0.  1.
          1   -1    0    0  501    0  0.00000000000E+00 -0.00000000000E+00 -0.14467733363E+04  0.14467733363E+04  0.00000000000E+00 0. -1.
         23    2    1    2    0    0 -0.33765144619E+03 -0.23651403820E+03 -0.13131625575E+04  0.13795258882E+04  0.93532797991E+02 0.  0.
         11    1    3    3    0    0 -0.78630818999E+02 -0.57025255402E+02 -0.45701342926E+03  0.46722153201E+03  0.00000000000E+00 0. -1.
        -11    1    3    3    0    0 -0.25902062720E+03 -0.17948878280E+03 -0.85614912825E+03  0.91230435616E+03  0.00000000000E+00 0.  1.
         22    1    1    2    0    0  0.33765144619E+03  0.23651403820E+03  0.32262398208E+03  0.52348220905E+03  0.00000000000E+00 0.  1.
<mgrwt>
<rscale>  0 0.16248917E+04</rscale>
<asrwt>0</asrwt>
<pdfrwt beam="1">  1        1 0.22258051E+00 0.16248917E+04</pdfrwt>
<pdfrwt beam="2">  1       -1 0.70189964E-01 0.16248917E+04</pdfrwt>
<totfact> 0.13996681E+01</totfact>
</mgrwt>
</event>
<event>
 6    1  0.1762360E-005  0.1256422E+04  0.7818608E-02  0.9064855E-01
          1   -1    0    0  501    0  0.00000000000E+00  0.00000000000E+00  0.19794071975E+04  0.19794071975E+04  0.00000000000E+00 0. -1.
         -1   -1    0    0    0  501 -0.00000000000E+00 -0.00000000000E+00 -0.19937726748E+03  0.19937726748E+03  0.00000000000E+00 0.  1.
         23    2    1    2    0    0 -0.54284021794E+03 -0.16004743209E+03  0.13545656780E+04  0.14707516179E+04  0.89283049406E+02 0.  0.
         13    1    3    3    0    0 -0.15429133511E+03 -0.10317937825E+02  0.42218176825E+03  0.44961063308E+03  0.00000000000E+00 0.  1.
        -13    1    3    3    0    0 -0.38854888283E+03 -0.14972949426E+03  0.93238390974E+03  0.10211409848E+04  0.00000000000E+00 0. -1.
         22    1    1    2    0    0  0.54284021794E+03  0.16004743209E+03  0.42546425198E+03  0.70803284701E+03  0.00000000000E+00 0.  1.
<mgrwt>
<rscale>  0 0.12564216E+04</rscale>
<asrwt>0</asrwt>
<pdfrwt beam="1">  1        1 0.30452417E+00 0.12564216E+04</pdfrwt>
<pdfrwt beam="2">  1       -1 0.30673427E-01 0.12564216E+04</pdfrwt>
<totfact> 0.29807937E+01</totfact>
</mgrwt>
</event>
<event>
 6    1  0.1762360E-005  0.3845083E+04  0.7818608E-02  0.8036549E-01
         -2   -1    0    0    0  501 -0.00000000000E+00  0.00000000000E+00  0.12013763331E+04  0.12013763331E+04  0.00000000000E+00 0. -1.
          2   -1    0    0  501    0  0.00000000000E+00 -0.00000000000E+00 -0.30766097930E+04  0.30766097930E+04  0.00000000000E+00 0.  1.
         23    2    1    2    0    0  0.91462469505E+03 -0.15606859663E+03  0.93386610365E+03  0.13196189925E+04  0.91611386525E+02 0.  0.
         11    1    3    3    0    0  0.65734904890E+03 -0.15079436685E+03  0.65445520167E+03  0.93976503667E+03  0.00000000000E+00 0. -1.
        -11    1    3    3    0    0  0.25727564616E+03 -0.52742297735E+01  0.27941090198E+03  0.37985395582E+03  0.00000000000E+00 0.  1.
         22    1    1    2    0    0 -0.91462469505E+03  0.15606859663E+03 -0.28090995635E+04  0.29583671336E+04  0.00000000000E+00 0.  1.
<mgrwt>
<rscale>  0 0.38450832E+04</rscale>
<asrwt>0</asrwt>
<pdfrwt beam="1">  1        2 0.47332458E+00 0.38450832E+04</pdfrwt>
<pdfrwt beam="2">  1       -2 0.18482713E+00 0.38450832E+04</pdfrwt>
<totfact> 0.20887228E-01</totfact>
</mgrwt>
</event>
<event>
 6    1  0.1762360E-005  0.2890390E+04  0.7818608E-02  0.8275742E-01
          1   -1    0    0  501    0  0.00000000000E+00  0.00000000000E+00  0.91518161120E+03  0.91518161120E+03  0.00000000000E+00 0. -1.
         -1   -1    0    0    0  501 -0.00000000000E+00 -0.00000000000E+00 -0.22821577745E+04  0.22821577745E+04  0.00000000000E+00 0.  1.
         23    2    1    2    0    0 -0.48556849545E+03  0.78269105904E+03  0.54581099355E+03  0.10743375569E+04  0.88935301392E+02 0.  0.
         11    1    3    3    0    0 -0.20097044044E+03  0.25237313650E+03  0.21303335934E+03  0.38660642797E+03  0.00000000000E+00 0. -1.
        -11    1    3    3    0    0 -0.28459805502E+03  0.53031792253E+03  0.33277763421E+03  0.68773112894E+03  0.00000000000E+00 0.  1.
         22    1    1    2    0    0  0.48556849545E+03 -0.78269105904E+03 -0.19127871569E+04  0.21230018288E+04  0.00000000000E+00 0.  1.
<mgrwt>
<rscale>  0 0.28903902E+04</rscale>
<asrwt>0</asrwt>
<pdfrwt beam="1">  1        1 0.14079717E+00 0.28903902E+04</pdfrwt>
<pdfrwt beam="2">  1       -1 0.35110119E+00 0.28903902E+04</pdfrwt>
<totfact> 0.23205247E-01</totfact>
</mgrwt>
</event>
<event>
 6    1  0.1762360E-005  0.2413049E+04  0.7818608E-02  0.8434634E-01
         -1   -1    0    0    0  501 -0.00000000000E+00  0.00000000000E+00  0.88561552656E+03  0.88561552656E+03  0.00000000000E+00 0.  1.
          1   -1    0    0  501    0  0.00000000000E+00 -0.00000000000E+00 -0.16437173123E+04  0.16437173123E+04  0.00000000000E+00 0. -1.
         23    2    1    2    0    0  0.83985334898E+03  0.35262042277E+03 -0.12061448099E+04  0.15142282325E+04  0.91689842605E+02 0.  0.
         11    1    3    3    0    0  0.46772964316E+03  0.14721605151E+03 -0.63615674259E+03  0.80320544449E+03  0.00000000000E+00 0. -1.
        -11    1    3    3    0    0  0.37212370582E+03  0.20540437125E+03 -0.56998806732E+03  0.71102278800E+03  0.00000000000E+00 0.  1.
         22    1    1    2    0    0 -0.83985334898E+03 -0.35262042277E+03  0.44804302418E+03  0.10151046064E+04  0.00000000000E+00 0.  1.
<mgrwt>
<rscale>  0 0.24130492E+04</rscale>
<asrwt>0</asrwt>
<pdfrwt beam="1">  1        1 0.25287958E+00 0.24130492E+04</pdfrwt>
<pdfrwt beam="2">  1       -1 0.13624854E+00 0.24130492E+04</pdfrwt>
<totfact> 0.20969784E+00</totfact>
</mgrwt>
</event>
<event>
 6    1  0.1762360E-005  0.2268321E+04  0.7818608E-02  0.8490517E-01
          1   -1    0    0  501    0  0.00000000000E+00  0.00000000000E+00  0.85345663777E+03  0.85345663777E+03  0.00000000000E+00 0. -1.
         -1   -1    0    0    0  501 -0.00000000000E+00 -0.00000000000E+00 -0.15071887903E+04  0.15071887903E+04  0.00000000000E+00 0.  1.
         23    2    1    2    0    0 -0.57268655082E+03 -0.71472505649E+03  0.36571960872E+03  0.99021349419E+03  0.89275640610E+02 0.  0.
         11    1    3    3    0    0 -0.27090293414E+03 -0.32548708650E+03  0.21634270260E+03  0.47553591680E+03  0.00000000000E+00 0. -1.
        -11    1    3    3    0    0 -0.30178361669E+03 -0.38923796999E+03  0.14937690612E+03  0.51467757739E+03  0.00000000000E+00 0.  1.
         22    1    1    2    0    0  0.57268655082E+03  0.71472505649E+03 -0.10194517612E+04  0.13704319339E+04  0.00000000000E+00 0.  1.
<mgrwt>
<rscale>  0 0.22683212E+04</rscale>
<asrwt>0</asrwt>
<pdfrwt beam="1">  1        1 0.13130102E+00 0.22683212E+04</pdfrwt>
<pdfrwt beam="2">  1       -1 0.23187520E+00 0.22683212E+04</pdfrwt>
<totfact> 0.16537946E+00</totfact>
</mgrwt>
</event>
<event>
 6    1  0.1762360E-005  0.1629541E+04  0.7818608E-02  0.8802603E-01
          1   -1    0    0  501    0  0.00000000000E+00  0.00000000000E+00  0.31607638285E+03  0.31607638285E+03  0.00000000000E+00 0. -1.
         -1   -1    0    0    0  501 -0.00000000000E+00 -0.00000000000E+00 -0.21002862831E+04  0.21002862831E+04  0.00000000000E+00 0.  1.
         23    2    1    2    0    0 -0.53717604959E+03  0.17177403086E+03 -0.17616398262E+04  0.18519392131E+04  0.90771942988E+02 0.  0.
         13    1    3    3    0    0 -0.48134254002E+03  0.17492477674E+03 -0.15218114484E+04  0.16056772411E+04  0.00000000000E+00 0.  1.
        -13    1    3    3    0    0 -0.55833509572E+02 -0.31507458765E+01 -0.23982837787E+03  0.24626197194E+03  0.00000000000E+00 0. -1.
         22    1    1    2    0    0  0.53717604959E+03 -0.17177403086E+03 -0.22570074028E+02  0.56442345289E+03  0.00000000000E+00 0. -1.
<mgrwt>
<rscale>  0 0.16295409E+04</rscale>
<asrwt>0</asrwt>
<pdfrwt beam="1">  1        1 0.48627137E-01 0.16295409E+04</pdfrwt>
<pdfrwt beam="2">  1       -1 0.32312096E+00 0.16295409E+04</pdfrwt>
<totfact> 0.18353924E+00</totfact>
</mgrwt>
</event>
<event>
 6    1  0.1762360E-005  0.1951291E+04  0.7818608E-02  0.8629738E-01
          1   -1    0    0  501    0  0.00000000000E+00  0.00000000000E+00  0.73949259393E+03  0.73949259393E+03  0.00000000000E+00 0. -1.
         -1   -1    0    0    0  501 -0.00000000000E+00 -0.00000000000E+00 -0.12872126452E+04  0.12872126452E+04  0.00000000000E+00 0.  1.
         23    2    1    2    0    0  0.78729213937E+03  0.57257412324E+03 -0.28583537374E+03  0.10186111842E+04  0.90536425847E+02 0.  0.
         11    1    3    3    0    0  0.35438099866E+03  0.24576234428E+03 -0.17249428348E+03  0.46447744823E+03  0.00000000000E+00 0.  1.
        -11    1    3    3    0    0  0.43291114071E+03  0.32681177896E+03 -0.11334109026E+03  0.55413373598E+03  0.00000000000E+00 0. -1.
         22    1    1    2    0    0 -0.78729213937E+03 -0.57257412324E+03 -0.26188467756E+03  0.10080940550E+04  0.00000000000E+00 0.  1.
<mgrwt>
<rscale>  0 0.19512911E+04</rscale>
<asrwt>0</asrwt>
<pdfrwt beam="1">  1        1 0.11376809E+00 0.19512911E+04</pdfrwt>
<pdfrwt beam="2">  1       -1 0.19803271E+00 0.19512911E+04</pdfrwt>
<totfact> 0.36214893E+00</totfact>
</mgrwt>
</event>
<event>
 6    1  0.1762360E-005  0.2168578E+04  0.7818608E-02  0.8531622E-01
          2   -1    0    0  501    0  0.00000000000E+00  0.00000000000E+00  0.14627347294E+04  0.14627347294E+04  0.00000000000E+00 0. -1.
         -2   -1    0    0    0  501 -0.00000000000E+00 -0.00000000000E+00 -0.80375637576E+03  0.80375637576E+03  0.00000000000E+00 0.  1.
         23    2    1    2    0    0 -0.61867726676E+03  0.88304826461E+03  0.23167496761E+03  0.11066963036E+04  0.92561437680E+02 0.  0.
         11    1    3    3    0    0 -0.39529058052E+03  0.61749802221E+03  0.18833578879E+03  0.75698667083E+03  0.00000000000E+00 0.  1.
        -11    1    3    3    0    0 -0.22338668624E+03  0.26555024241E+03  0.43339178821E+02  0.34970963277E+03  0.00000000000E+00 0. -1.
         22    1    1    2    0    0  0.61867726676E+03 -0.88304826461E+03  0.42730338604E+03  0.11597948016E+04  0.00000000000E+00 0. -1.
<mgrwt>
<rscale>  0 0.21685778E+04</rscale>
<asrwt>0</asrwt>
<pdfrwt beam="1">  1        2 0.22503611E+00 0.21685778E+04</pdfrwt>
<pdfrwt beam="2">  1       -2 0.12365483E+00 0.21685778E+04</pdfrwt>
<totfact> 0.60176533E+00</totfact>
</mgrwt>
</event>
<event>
 6    1  0.1762360E-005  0.2364214E+04  0.7818608E-02  0.8453024E-01
          1   -1    0    0  501    0  0.00000000000E+00  0.00000000000E+00  0.18497537336E+04  0.18497537336E+04  0.00000000000E+00 0. -1.
         -1   -1    0    0    0  501 -0.00000000000E+00 -0.00000000000E+00 -0.75543967492E+03  0.75543967492E+03  0.00000000000E+00 0.  1.
         23    2    1    2    0    0 -0.11544233483E+04  0.19769786776E+03  0.38701184391E+03  0.12369631146E+04  0.92313951409E+02 0.  0.
         13    1    3    3    0    0 -0.40525973933E+03  0.11154053542E+03  0.15460557437E+03  0.44786117379E+03  0.00000000000E+00 0.  1.
        -13    1    3    3    0    0 -0.74916360898E+03  0.86157332333E+02  0.23240626954E+03  0.78910194085E+03  0.00000000000E+00 0. -1.
         22    1    1    2    0    0  0.11544233483E+04 -0.19769786776E+03  0.70730221476E+03  0.13682302939E+04  0.00000000000E+00 0. -1.
<mgrwt>
<rscale>  0 0.23642143E+04</rscale>
<asrwt>0</asrwt>
<pdfrwt beam="1">  1        1 0.28457750E+00 0.23642143E+04</pdfrwt>
<pdfrwt beam="2">  1       -1 0.11622149E+00 0.23642143E+04</pdfrwt>
<totfact> 0.22667116E+00</totfact>
</mgrwt>
</event>
<event>
 6    1  0.1816780E-005  0.4107103E+04  0.7818608E-02  0.7983282E-01
         -1   -1    0    0    0  501 -0.00000000000E+00  0.00000000000E+00  0.23665001602E+04  0.23665001602E+04  0.00000000000E+00 0.  1.
          1   -1    0    0  501    0  0.00000000000E+00 -0.00000000000E+00 -0.17819879180E+04  0.17819879180E+04  0.00000000000E+00 0. -1.
         23    2    1    2    0    0 -0.47056982986E+02  0.43867939244E+03  0.23171754242E+04  0.23605351506E+04  0.90389608812E+02 0.  0.
         13    1    3    3    0    0 -0.55814008318E+02  0.18884265924E+03  0.11679360421E+04  0.11844202598E+04  0.00000000000E+00 0.  1.
        -13    1    3    3    0    0  0.87570253322E+01  0.24983673319E+03  0.11492393821E+04  0.11761148907E+04  0.00000000000E+00 0. -1.
         22    1    1    2    0    0  0.47056982986E+02 -0.43867939244E+03 -0.17326631821E+04  0.17879529276E+04  0.00000000000E+00 0. -1.
<mgrwt>
<rscale>  0 0.41071035E+04</rscale>
<asrwt>0</asrwt>
<pdfrwt beam="1">  1        1 0.27415199E+00 0.41071035E+04</pdfrwt>
<pdfrwt beam="2">  1       -1 0.36407695E+00 0.41071035E+04</pdfrwt>
<totfact> 0.40688596E-02</totfact>
</mgrwt>
</event>
<event>
 6    1  0.3617353E-005  0.2630521E+04  0.7818608E-02  0.8357907E-01
          2   -1    0    0  501    0  0.00000000000E+00  0.00000000000E+00  0.13828602169E+04  0.13828602169E+04  0.00000000000E+00 0. -1.
         -2   -1    0    0    0  501 -0.00000000000E+00 -0.00000000000E+00 -0.12509649310E+04  0.12509649310E+04  0.00000000000E+00 0.  1.
         23    2    1    2    0    0  0.94037592946E+03  0.89923457611E+03  0.24737877830E+03  0.13275839187E+04  0.91395239178E+02 0.  0.
         13    1    3    3    0    0  0.44246194719E+03  0.36399052084E+03  0.93194585651E+02  0.58047127815E+03  0.00000000000E+00 0. -1.
        -13    1    3    3    0    0  0.49791398227E+03  0.53524405528E+03  0.15418419265E+03  0.74711264058E+03  0.00000000000E+00 0.  1.
         22    1    1    2    0    0 -0.94037592946E+03 -0.89923457611E+03 -0.11548349243E+03  0.13062412291E+04  0.00000000000E+00 0.  1.
<mgrwt>
<rscale>  0 0.26305206E+04</rscale>
<asrwt>0</asrwt>
<pdfrwt beam="1">  1        2 0.21274773E+00 0.26305206E+04</pdfrwt>
<pdfrwt beam="2">  1       -2 0.19245614E+00 0.26305206E+04</pdfrwt>
<totfact> 0.19492798E+00</totfact>
</mgrwt>
</event>
<event>
 6    1  0.1762360E-005  0.4409630E+03  0.7818608E-02  0.1030452E+00
         -1   -1    0    0    0  501 -0.00000000000E+00  0.00000000000E+00  0.25722506941E+02  0.25722506941E+02  0.00000000000E+00 0.  1.
          1   -1    0    0  501    0  0.00000000000E+00 -0.00000000000E+00 -0.18898657063E+04  0.18898657063E+04  0.00000000000E+00 0. -1.
         23    2    1    2    0    0 -0.49774964173E+02 -0.20548505546E+03 -0.92497274012E+03  0.95291339453E+03  0.88134626752E+02 0.  0.
         11    1    3    3    0    0 -0.77035565685E+01 -0.38709945586E+02 -0.36480770349E+03  0.36693659560E+03  0.00000000000E+00 0.  1.
        -11    1    3    3    0    0 -0.42071407604E+02 -0.16677510987E+03 -0.56016503664E+03  0.58597679893E+03  0.00000000000E+00 0. -1.
         22    1    1    2    0    0  0.49774964173E+02  0.20548505546E+03 -0.93917045926E+03  0.96267481874E+03  0.00000000000E+00 0.  1.
<mgrwt>
<rscale>  0 0.44096296E+03</rscale>
<asrwt>0</asrwt>
<pdfrwt beam="1">  1        1 0.29074853E+00 0.44096296E+03</pdfrwt>
<pdfrwt beam="2">  1       -1 0.39573093E-02 0.44096296E+03</pdfrwt>
<totfact> 0.98112262E+02</totfact>
</mgrwt>
</event>
<event>
 6    1  0.1762360E-005  0.1546985E+04  0.7818608E-02  0.8853796E-01
          2   -1    0    0  501    0  0.00000000000E+00  0.00000000000E+00  0.51550465959E+03  0.51550465959E+03  0.00000000000E+00 0. -1.
         -2   -1    0    0    0  501 -0.00000000000E+00 -0.00000000000E+00 -0.11605924588E+04  0.11605924588E+04  0.00000000000E+00 0.  1.
         23    2    1    2    0    0 -0.14712157201E+03 -0.41959743409E+03  0.35886157907E+03  0.57808932343E+03  0.87743200767E+02 0.  0.
         13    1    3    3    0    0 -0.51794141685E+02 -0.20160157945E+03  0.11682981133E+03  0.23869443807E+03  0.00000000000E+00 0.  1.
        -13    1    3    3    0    0 -0.95327430329E+02 -0.21799585464E+03  0.24203176773E+03  0.33939488536E+03  0.00000000000E+00 0. -1.
         22    1    1    2    0    0  0.14712157201E+03  0.41959743409E+03 -0.10039493783E+04  0.10980077950E+04  0.00000000000E+00 0.  1.
<mgrwt>
<rscale>  0 0.15469852E+04</rscale>
<asrwt>0</asrwt>
<pdfrwt beam="1">  1        2 0.79308409E-01 0.15469852E+04</pdfrwt>
<pdfrwt beam="2">  1       -2 0.17855269E+00 0.15469852E+04</pdfrwt>
<totfact> 0.10605004E+01</totfact>
</mgrwt>
</event>
<event>
 6    1  0.1762360E-005  0.1835557E+04  0.7818608E-02  0.8687616E-01
         -1   -1    0    0    0  501 -0.00000000000E+00  0.00000000000E+00  0.11015428546E+04  0.11015428546E+04  0.00000000000E+00 0.  1.
          1   -1    0    0  501    0  0.00000000000E+00 -0.00000000000E+00 -0.76467045496E+03  0.76467045496E+03  0.00000000000E+00 0. -1.
         23    2    1    2    0    0 -0.90045046267E+03 -0.15704479548E+03  0.21978153332E+03  0.94470130504E+03  0.93180093603E+02 0.  0.
         11    1    3    3    0    0 -0.58721917200E+03 -0.13568891804E+03  0.11383306047E+03  0.61334802853E+03  0.00000000000E+00 0. -1.
        -11    1    3    3    0    0 -0.31323129067E+03 -0.21355877443E+02  0.10594847284E+03  0.33135327651E+03  0.00000000000E+00 0.  1.
         22    1    1    2    0    0  0.90045046267E+03  0.15704479548E+03  0.11709086634E+03  0.92151200453E+03  0.00000000000E+00 0. -1.
<mgrwt>
<rscale>  0 0.18355569E+04</rscale>
<asrwt>0</asrwt>
<pdfrwt beam="1">  1        1 0.11764161E+00 0.18355569E+04</pdfrwt>
<pdfrwt beam="2">  1       -1 0.16946813E+00 0.18355569E+04</pdfrwt>
<totfact> 0.55494833E+00</totfact>
</mgrwt>
</event>
<event>
 6    1  0.1762360E-005  0.1042534E+04  0.7818608E-02  0.9263087E-01
          1   -1    0    0  501    0  0.00000000000E+00  0.00000000000E+00  0.25447249683E+04  0.25447249683E+04  0.00000000000E+00 0. -1.
         -1   -1    0    0    0  501 -0.00000000000E+00 -0.00000000000E+00 -0.10677738127E+03  0.10677738127E+03  0.00000000000E+00 0.  1.
         23    2    1    2    0    0 -0.14443940756E+03  0.34331268849E+03  0.31584341480E+03  0.49696006352E+03  0.92118931401E+02 0.  0.
         11    1    3    3    0    0 -0.50214193084E+02  0.39711864355E+02  0.71822827166E+02  0.96213387113E+02  0.00000000000E+00 0. -1.
        -11    1    3    3    0    0 -0.94225214480E+02  0.30360082414E+03  0.24402058763E+03  0.40074667640E+03  0.00000000000E+00 0.  1.
         22    1    1    2    0    0  0.14443940756E+03 -0.34331268849E+03  0.21221041722E+04  0.21545422860E+04  0.00000000000E+00 0. -1.
<mgrwt>
<rscale>  0 0.10425336E+04</rscale>
<asrwt>0</asrwt>
<pdfrwt beam="1">  1        1 0.39149610E+00 0.10425336E+04</pdfrwt>
<pdfrwt beam="2">  1       -1 0.16427291E-01 0.10425336E+04</pdfrwt>
<totfact> 0.36178248E+01</totfact>
</mgrwt>
</event>
<event>
 6    1  0.1762360E-005  0.1477021E+04  0.7818608E-02  0.8899879E-01
         -2   -1    0    0    0  501 -0.00000000000E+00  0.00000000000E+00  0.20237180895E+04  0.20237180895E+04  0.00000000000E+00 0. -1.
          2   -1    0    0  501    0  0.00000000000E+00 -0.00000000000E+00 -0.26950298429E+03  0.26950298429E+03  0.00000000000E+00 0.  1.
         23    2    1    2    0    0 -0.68277652427E+03  0.27395666692E+03  0.85671004083E+03  0.11327248963E+04  0.88755614419E+02 0.  0.
         13    1    3    3    0    0 -0.58203204461E+03  0.19803045155E+03  0.71671785920E+03  0.94427848137E+03  0.00000000000E+00 0.  1.
        -13    1    3    3    0    0 -0.10074447966E+03  0.75926215378E+02  0.13999218163E+03  0.18844641488E+03  0.00000000000E+00 0. -1.
         22    1    1    2    0    0  0.68277652427E+03 -0.27395666692E+03  0.89750506434E+03  0.11604961775E+04  0.00000000000E+00 0.  1.
<mgrwt>
<rscale>  0 0.14770214E+04</rscale>
<asrwt>0</asrwt>
<pdfrwt beam="1">  1        2 0.41461999E-01 0.14770214E+04</pdfrwt>
<pdfrwt beam="2">  1       -2 0.31134123E+00 0.14770214E+04</pdfrwt>
<totfact> 0.32584207E+00</totfact>
</mgrwt>
</event>
<event>
 6    1  0.1762360E-005  0.3886345E+04  0.7818608E-02  0.8027875E-01
         -1   -1    0    0    0  501 -0.00000000000E+00  0.00000000000E+00  0.13837574388E+04  0.13837574388E+04  0.00000000000E+00 0.  1.
          1   -1    0    0  501    0  0.00000000000E+00 -0.00000000000E+00 -0.27287440867E+04  0.27287440867E+04  0.00000000000E+00 0. -1.
         23    2    1    2    0    0  0.14910312248E+04  0.12408589998E+04 -0.57239190565E+03  0.20244862462E+04  0.89481265363E+02 0.  0.
         13    1    3    3    0    0  0.97454229709E+03  0.75498532732E+03 -0.36295300792E+03  0.12850954903E+04  0.00000000000E+00 0. -1.
        -13    1    3    3    0    0  0.51648892770E+03  0.48587367248E+03 -0.20943889773E+03  0.73939075591E+03  0.00000000000E+00 0.  1.
         22    1    1    2    0    0 -0.14910312248E+04 -0.12408589998E+04 -0.77259474231E+03  0.20880152793E+04  0.00000000000E+00 0.  1.
<mgrwt>
<rscale>  0 0.38863453E+04</rscale>
<asrwt>0</asrwt>
<pdfrwt beam="1">  1        1 0.41980678E+00 0.38863453E+04</pdfrwt>
<pdfrwt beam="2">  1       -1 0.21288576E+00 0.38863453E+04</pdfrwt>
<totfact> 0.90897639E-02</totfact>
</mgrwt>
</event>
<event>
 6    1  0.1762360E-005  0.3362684E+04  0.7818608E-02  0.8147126E-01
         -1   -1    0    0    0  501 -0.00000000000E+00  0.00000000000E+00  0.27480421889E+04  0.27480421889E+04  0.00000000000E+00 0.  1.
          1   -1    0    0  501    0  0.00000000000E+00 -0.00000000000E+00 -0.10287002494E+04  0.10287002494E+04  0.00000000000E+00 0. -1.
         23    2    1    2    0    0  0.74467880643E+03  0.16513598865E+03 -0.82105192389E+03  0.11243063127E+04  0.90122159497E+02 0.  0.
         13    1    3    3    0    0  0.52600761941E+03  0.74263311437E+02 -0.57374105401E+03  0.78190654951E+03  0.00000000000E+00 0.  1.
        -13    1    3    3    0    0  0.21867118701E+03  0.90872677215E+02 -0.24731086988E+03  0.34239976322E+03  0.00000000000E+00 0. -1.
         22    1    1    2    0    0 -0.74467880643E+03 -0.16513598865E+03  0.25403938633E+04  0.26524361256E+04  0.00000000000E+00 0.  1.
<mgrwt>
<rscale>  0 0.33626845E+04</rscale>
<asrwt>0</asrwt>
<pdfrwt beam="1">  1        1 0.15826158E+00 0.33626845E+04</pdfrwt>
<pdfrwt beam="2">  1       -1 0.42277572E+00 0.33626845E+04</pdfrwt>
<totfact> 0.59116926E-02</totfact>
</mgrwt>
</event>
<event>
 6    1  0.1762360E-005  0.3390450E+04  0.7818608E-02  0.8140254E-01
          2   -1    0    0  501    0  0.00000000000E+00  0.00000000000E+00  0.25741245846E+04  0.25741245846E+04  0.00000000000E+00 0. -1.
         -2   -1    0    0    0  501 -0.00000000000E+00 -0.00000000000E+00 -0.11164135723E+04  0.11164135723E+04  0.00000000000E+00 0.  1.
         23    2    1    2    0    0  0.22916434390E+03 -0.49939290580E+03  0.24736088119E+04  0.25355672005E+04  0.91928794280E+02 0.  0.
         13    1    3    3    0    0  0.29463878036E+02 -0.16172210201E+03  0.77569705592E+03  0.79292375481E+03  0.00000000000E+00 0. -1.
        -13    1    3    3    0    0  0.19970046587E+03 -0.33767080379E+03  0.16979117560E+04  0.17426434457E+04  0.00000000000E+00 0.  1.
         22    1    1    2    0    0 -0.22916434390E+03  0.49939290580E+03 -0.10158977996E+04  0.11549709564E+04  0.00000000000E+00 0.  1.
<mgrwt>
<rscale>  0 0.33904499E+04</rscale>
<asrwt>0</asrwt>
<pdfrwt beam="1">  1        2 0.39601916E+00 0.33904499E+04</pdfrwt>
<pdfrwt beam="2">  1       -2 0.17175594E+00 0.33904499E+04</pdfrwt>
<totfact> 0.54101435E-01</totfact>
</mgrwt>
</event>
<event>
 6    1  0.1762360E-005  0.1064642E+04  0.7818608E-02  0.9240356E-01
          2   -1    0    0  501    0  0.00000000000E+00  0.00000000000E+00  0.60936961907E+03  0.60936961907E+03  0.00000000000E+00 0.  1.
         -2   -1    0    0    0  501 -0.00000000000E+00 -0.00000000000E+00 -0.46501469275E+03  0.46501469275E+03  0.00000000000E+00 0. -1.
         23    2    1    2    0    0  0.45264128665E+03  0.13370822222E+03  0.31299859059E+03  0.57318304630E+03  0.88366644105E+02 0.  0.
         11    1    3    3    0    0  0.13294415041E+03  0.52489071795E+02  0.14266463013E+03  0.20194664265E+03  0.00000000000E+00 0.  1.
        -11    1    3    3    0    0  0.31969713623E+03  0.81219150428E+02  0.17033396046E+03  0.37123640365E+03  0.00000000000E+00 0. -1.
         22    1    1    2    0    0 -0.45264128665E+03 -0.13370822222E+03 -0.16864366427E+03  0.50120126552E+03  0.00000000000E+00 0. -1.
<mgrwt>
<rscale>  0 0.10646423E+04</rscale>
<asrwt>0</asrwt>
<pdfrwt beam="1">  1        2 0.93749172E-01 0.10646423E+04</pdfrwt>
<pdfrwt beam="2">  1       -2 0.71540722E-01 0.10646423E+04</pdfrwt>
<totfact> 0.85879499E+01</totfact>
</mgrwt>
</event>
<event>
 6    1  0.1762360E-005  0.3819979E+04  0.7818608E-02  0.8041881E-01
         -2   -1    0    0    0  501 -0.00000000000E+00  0.00000000000E+00  0.23109985024E+04  0.23109985024E+04  0.00000000000E+00 0.  1.
          2   -1    0    0  501    0  0.00000000000E+00 -0.00000000000E+00 -0.15785641202E+04  0.15785641202E+04  0.00000000000E+00 0. -1.
         23    2    1    2    0    0  0.10868325226E+04 -0.61538431368E+02 -0.12302512335E+04  0.16452082083E+04  0.90554074492E+02 0.  0.
         13    1    3    3    0    0  0.54328106643E+03 -0.75898992261E+02 -0.61125637456E+03  0.82130952119E+03  0.00000000000E+00 0. -1.
        -13    1    3    3    0    0  0.54355145617E+03  0.14360560893E+02 -0.61899485898E+03  0.82389868714E+03  0.00000000000E+00 0.  1.
         22    1    1    2    0    0 -0.10868325226E+04  0.61538431368E+02  0.19626856157E+04  0.22443544142E+04  0.00000000000E+00 0.  1.
<mgrwt>
<rscale>  0 0.38199787E+04</rscale>
<asrwt>0</asrwt>
<pdfrwt beam="1">  1        2 0.24285602E+00 0.38199787E+04</pdfrwt>
<pdfrwt beam="2">  1       -2 0.35553823E+00 0.38199787E+04</pdfrwt>
<totfact> 0.13167904E-01</totfact>
</mgrwt>
</event>
<event>
 6    1  0.1762360E-005  0.1690818E+04  0.7818608E-02  0.8766619E-01
         -1   -1    0    0    0  501 -0.00000000000E+00  0.00000000000E+00  0.14267028694E+04  0.14267028694E+04  0.00000000000E+00 0.  1.
          1   -1    0    0  501    0  0.00000000000E+00 -0.00000000000E+00 -0.50095656949E+03  0.50095656949E+03  0.00000000000E+00 0. -1.
         23    2    1    2    0    0 -0.11734529591E+03  0.78449180404E+03  0.79043648773E+03  0.11229818299E+04  0.84267669163E+02 0.  0.
         13    1    3    3    0    0 -0.42612034520E+02  0.29182670865E+03  0.35235325012E+03  0.45949039842E+03  0.00000000000E+00 0.  1.
        -13    1    3    3    0    0 -0.74733261395E+02  0.49266509538E+03  0.43808323761E+03  0.66349143148E+03  0.00000000000E+00 0. -1.
         22    1    1    2    0    0  0.11734529591E+03 -0.78449180404E+03  0.13530981213E+03  0.80467760894E+03  0.00000000000E+00 0. -1.
<mgrwt>
<rscale>  0 0.16908178E+04</rscale>
<asrwt>0</asrwt>
<pdfrwt beam="1">  1        1 0.77070242E-01 0.16908178E+04</pdfrwt>
<pdfrwt beam="2">  1       -1 0.21949275E+00 0.16908178E+04</pdfrwt>
<totfact> 0.46688143E+00</totfact>
</mgrwt>
</event>
<event>
 6    1  0.1762360E-005  0.8258859E+03  0.7818608E-02  0.9523286E-01
          2   -1    0    0  501    0  0.00000000000E+00  0.00000000000E+00  0.41294758706E+03  0.41294758706E+03  0.00000000000E+00 0. -1.
         -2   -1    0    0    0  501 -0.00000000000E+00 -0.00000000000E+00 -0.41293832046E+03  0.41293832046E+03  0.00000000000E+00 0.  1.
         23    2    1    2    0    0 -0.10801200098E+03 -0.14830977459E+03 -0.36399679326E+03  0.41825520062E+03  0.93708941648E+02 0.  0.
         11    1    3    3    0    0 -0.11793299805E+03 -0.99469552272E+02 -0.24898117623E+03  0.29290614533E+03  0.00000000000E+00 0. -1.
        -11    1    3    3    0    0  0.99209970709E+01 -0.48840222318E+02 -0.11501561704E+03  0.12534905529E+03  0.00000000000E+00 0.  1.
         22    1    1    2    0    0  0.10801200098E+03  0.14830977459E+03  0.36400605986E+03  0.40763070691E+03  0.00000000000E+00 0. -1.
<mgrwt>
<rscale>  0 0.82588591E+03</rscale>
<asrwt>0</asrwt>
<pdfrwt beam="1">  1        2 0.63530398E-01 0.82588591E+03</pdfrwt>
<pdfrwt beam="2">  1       -2 0.63528972E-01 0.82588591E+03</pdfrwt>
<totfact> 0.17710071E+02</totfact>
</mgrwt>
</event>
<event>
 6    1  0.1762360E-005  0.1519800E+04  0.7818608E-02  0.8871392E-01
         -1   -1    0    0    0  501 -0.00000000000E+00  0.00000000000E+00  0.46334590438E+03  0.46334590438E+03  0.00000000000E+00 0.  1.
          1   -1    0    0  501    0  0.00000000000E+00 -0.00000000000E+00 -0.12462565745E+04  0.12462565745E+04  0.00000000000E+00 0. -1.
         23    2    1    2    0    0  0.23250753900E+03  0.66901860679E+03 -0.91788748113E+02  0.72000904571E+03  0.91335643046E+02 0.  0.
         11    1    3    3    0    0  0.17370797562E+03  0.43705642944E+03 -0.98930672097E+02  0.48060385058E+03  0.00000000000E+00 0. -1.
        -11    1    3    3    0    0  0.58799563383E+02  0.23196217735E+03  0.71419239843E+01  0.23940519512E+03  0.00000000000E+00 0.  1.
         22    1    1    2    0    0 -0.23250753900E+03 -0.66901860679E+03 -0.69112192205E+03  0.98959343321E+03  0.00000000000E+00 0.  1.
<mgrwt>
<rscale>  0 0.15197998E+04</rscale>
<asrwt>0</asrwt>
<pdfrwt beam="1">  1        1 0.19173178E+00 0.15197998E+04</pdfrwt>
<pdfrwt beam="2">  1       -1 0.71283987E-01 0.15197998E+04</pdfrwt>
<totfact> 0.18979882E+01</totfact>
</mgrwt>
</event>
<event>
 6    1  0.1762360E-005  0.8845759E+03  0.7818608E-02  0.9445070E-01
         -2   -1    0    0    0  501 -0.00000000000E+00  0.00000000000E+00  0.38939235155E+03  0.38939235155E+03  0.00000000000E+00 0.  1.
          2   -1    0    0  501    0  0.00000000000E+00 -0.00000000000E+00 -0.50236897529E+03  0.50236897529E+03  0.00000000000E+00 0. -1.
         23    2    1    2    0    0  0.85956077230E+02 -0.27590261793E+03  0.27544506528E+03  0.40763106515E+03  0.82355324630E+02 0.  0.
         13    1    3    3    0    0  0.83594776888E+02 -0.25268273341E+03  0.21275251247E+03  0.34073491463E+03  0.00000000000E+00 0. -1.
        -13    1    3    3    0    0  0.23613003414E+01 -0.23219884519E+02  0.62692552807E+02  0.66896150516E+02  0.00000000000E+00 0.  1.
         22    1    1    2    0    0 -0.85956077230E+02  0.27590261793E+03 -0.38842168901E+03  0.48413026170E+03  0.00000000000E+00 0. -1.
<mgrwt>
<rscale>  0 0.88457591E+03</rscale>
<asrwt>0</asrwt>
<pdfrwt beam="1">  1        2 0.77287535E-01 0.88457591E+03</pdfrwt>
<pdfrwt beam="2">  1       -2 0.59906516E-01 0.88457591E+03</pdfrwt>
<totfact> 0.15985939E+02</totfact>
</mgrwt>
</event>
<event>
 6    1  0.1762360E-005  0.3608368E+04  0.7818608E-02  0.8088578E-01
         -2   -1    0    0    0  501 -0.00000000000E+00  0.00000000000E+00  0.24616467254E+04  0.24616467254E+04  0.00000000000E+00 0.  1.
          2   -1    0    0  501    0  0.00000000000E+00 -0.00000000000E+00 -0.13223179924E+04  0.13223179924E+04  0.00000000000E+00 0. -1.
         23    2    1    2    0    0  0.39921609189E+03 -0.11133005487E+04  0.19971713166E+04  0.23229015783E+04  0.91470622928E+02 0.  0.
         11    1    3    3    0    0  0.57016196772E+02 -0.17403422881E+03  0.24903285205E+03  0.30912153094E+03  0.00000000000E+00 0. -1.
        -11    1    3    3    0    0  0.34219989512E+03 -0.93926631987E+03  0.17481384645E+04  0.20137800473E+04  0.00000000000E+00 0.  1.
         22    1    1    2    0    0 -0.39921609189E+03  0.11133005487E+04 -0.85784258347E+03  0.14610631395E+04  0.00000000000E+00 0. -1.
<mgrwt>
<rscale>  0 0.36083679E+04</rscale>
<asrwt>0</asrwt>
<pdfrwt beam="1">  1        2 0.20343354E+00 0.36083679E+04</pdfrwt>
<pdfrwt beam="2">  1       -2 0.37871488E+00 0.36083679E+04</pdfrwt>
<totfact> 0.13326836E-01</totfact>
</mgrwt>
</event>
<event>
 6    1  0.1762360E-005  0.2549250E+04  0.7818608E-02  0.8385647E-01
          1   -1    0    0  501    0  0.00000000000E+00  0.00000000000E+00  0.13872183924E+04  0.13872183924E+04  0.00000000000E+00 0. -1.
         -1   -1    0    0    0  501 -0.00000000000E+00 -0.00000000000E+00 -0.11711699094E+04  0.11711699094E+04  0.00000000000E+00 0.  1.
         23    2    1    2    0    0 -0.76066170013E+03 -0.10044715823E+04 -0.74863457207E+02  0.12652529112E+04  0.87698405182E+02 0.  0.
         13    1    3    3    0    0 -0.41956837200E+03 -0.55253723988E+03  0.24884090194E+01  0.69378758450E+03  0.00000000000E+00 0.  1.
        -13    1    3    3    0    0 -0.34109332813E+03 -0.45193434244E+03 -0.77351866227E+02  0.57146532666E+03  0.00000000000E+00 0. -1.
         22    1    1    2    0    0  0.76066170013E+03  0.10044715823E+04  0.29091194023E+03  0.12931353907E+04  0.00000000000E+00 0.  1.
<mgrwt>
<rscale>  0 0.25492496E+04</rscale>
<asrwt>0</asrwt>
<pdfrwt beam="1">  1        1 0.21341821E+00 0.25492496E+04</pdfrwt>
<pdfrwt beam="2">  1       -1 0.18017999E+00 0.25492496E+04</pdfrwt>
<totfact> 0.14398057E+00</totfact>
</mgrwt>
</event>
<event>
 6    1  0.1762360E-005  0.5541837E+03  0.7818608E-02  0.1000530E+00
          3   -1    0    0  501    0  0.00000000000E+00  0.00000000000E+00  0.34300535933E+03  0.34300535933E+03  0.00000000000E+00 0. -1.
         -3   -1    0    0    0  501 -0.00000000000E+00 -0.00000000000E+00 -0.22384461095E+03  0.22384461095E+03  0.00000000000E+00 0.  1.
         23    2    1    2    0    0  0.14433172351E+03  0.10303340707E+03 -0.14784266819E+03  0.24632172840E+03  0.85845267559E+02 0.  0.
         13    1    3    3    0    0  0.28574881815E+02  0.71270680196E+02 -0.63110089159E+02  0.99392741586E+02  0.00000000000E+00 0. -1.
        -13    1    3    3    0    0  0.11575684170E+03  0.31762726875E+02 -0.84732579027E+02  0.14692898682E+03  0.00000000000E+00 0.  1.
         22    1    1    2    0    0 -0.14433172351E+03 -0.10303340707E+03  0.26700341656E+03  0.32052824188E+03  0.00000000000E+00 0. -1.
<mgrwt>
<rscale>  0 0.55418373E+03</rscale>
<asrwt>0</asrwt>
<pdfrwt beam="1">  1        3 0.52770055E-01 0.55418373E+03</pdfrwt>
<pdfrwt beam="2">  1       -3 0.34437633E-01 0.55418373E+03</pdfrwt>
<totfact> 0.77453952E+01</totfact>
</mgrwt>
</event>
<event>
 6    1  0.1762360E-005  0.3873235E+03  0.7818608E-02  0.1048260E+00
          1   -1    0    0  501    0  0.00000000000E+00  0.00000000000E+00  0.61544627410E+02  0.61544627410E+02  0.00000000000E+00 0. -1.
         -1   -1    0    0    0  501 -0.00000000000E+00 -0.00000000000E+00 -0.60939319843E+03  0.60939319843E+03  0.00000000000E+00 0.  1.
         23    2    1    2    0    0 -0.14153818033E+03  0.80886345648E+02 -0.43261575121E+03  0.47130250791E+03  0.91618820992E+02 0.  0.
         13    1    3    3    0    0 -0.13176843840E+03  0.53283433976E+02 -0.41106972926E+03  0.43494869584E+03  0.00000000000E+00 0.  1.
        -13    1    3    3    0    0 -0.97697419296E+01  0.27602911672E+02 -0.21546021949E+02  0.36353812069E+02  0.00000000000E+00 0. -1.
         22    1    1    2    0    0  0.14153818033E+03 -0.80886345648E+02 -0.11523281980E+03  0.19963531793E+03  0.00000000000E+00 0. -1.
<mgrwt>
<rscale>  0 0.38732352E+03</rscale>
<asrwt>0</asrwt>
<pdfrwt beam="1">  1        1 0.94684038E-02 0.38732352E+03</pdfrwt>
<pdfrwt beam="2">  1       -1 0.93752804E-01 0.38732352E+03</pdfrwt>
<totfact> 0.80533210E+02</totfact>
</mgrwt>
</event>
<event>
 6    1  0.1762360E-005  0.3293772E+04  0.7818608E-02  0.8164482E-01
          1   -1    0    0  501    0  0.00000000000E+00  0.00000000000E+00  0.32991533517E+04  0.32991533517E+04  0.00000000000E+00 0. -1.
         -1   -1    0    0    0  501 -0.00000000000E+00 -0.00000000000E+00 -0.82209971668E+03  0.82209971668E+03  0.00000000000E+00 0.  1.
         23    2    1    2    0    0 -0.13670741131E+04  0.53806064068E+03  0.31173026556E+03  0.15045707839E+04  0.90313905905E+02 0.  0.
         11    1    3    3    0    0 -0.45585838176E+03  0.15599207838E+03  0.13950218975E+03  0.50159869784E+03  0.00000000000E+00 0.  1.
        -11    1    3    3    0    0 -0.91121573132E+03  0.38206856230E+03  0.17222807581E+03  0.10029720860E+04  0.00000000000E+00 0. -1.
         22    1    1    2    0    0  0.13670741131E+04 -0.53806064068E+03  0.21653233695E+04  0.26166822845E+04  0.00000000000E+00 0. -1.
<mgrwt>
<rscale>  0 0.32937717E+04</rscale>
<asrwt>0</asrwt>
<pdfrwt beam="1">  1        1 0.50756205E+00 0.32937717E+04</pdfrwt>
<pdfrwt beam="2">  1       -1 0.12647688E+00 0.32937717E+04</pdfrwt>
<totfact> 0.16114722E-01</totfact>
</mgrwt>
</event>
<event>
 6    1  0.1762360E-005  0.3180191E+04  0.7818608E-02  0.8194068E-01
          2   -1    0    0  501    0  0.00000000000E+00  0.00000000000E+00  0.32668880474E+04  0.32668880474E+04  0.00000000000E+00 0. -1.
         -2   -1    0    0    0  501 -0.00000000000E+00 -0.00000000000E+00 -0.77394890255E+03  0.77394890255E+03  0.00000000000E+00 0.  1.
         23    2    1    2    0    0 -0.10668134118E+04 -0.43179568124E+03  0.26391675993E+04  0.28806985415E+04  0.93167075449E+02 0.  0.
         13    1    3    3    0    0 -0.40485292456E+02 -0.24768614058E+02  0.72750633043E+02  0.86863097779E+02  0.00000000000E+00 0. -1.
        -13    1    3    3    0    0 -0.10263281194E+04 -0.40702706718E+03  0.25664169662E+04  0.27938354437E+04  0.00000000000E+00 0.  1.
         22    1    1    2    0    0  0.10668134118E+04  0.43179568124E+03 -0.14622845437E+03  0.11601384085E+04  0.00000000000E+00 0.  1.
<mgrwt>
<rscale>  0 0.31801915E+04</rscale>
<asrwt>0</asrwt>
<pdfrwt beam="1">  1        2 0.50259815E+00 0.31801915E+04</pdfrwt>
<pdfrwt beam="2">  1       -2 0.11906906E+00 0.31801915E+04</pdfrwt>
<totfact> 0.53453897E-01</totfact>
</mgrwt>
</event>
<event>
 6    1  0.1762360E-005  0.4297100E+04  0.7818608E-02  0.7947155E-01
         -1   -1    0    0    0  501 -0.00000000000E+00  0.00000000000E+00  0.22312577432E+04  0.22312577432E+04  0.00000000000E+00 0.  1.
          1   -1    0    0  501    0  0.00000000000E+00 -0.00000000000E+00 -0.20689078637E+04  0.20689078637E+04  0.00000000000E+00 0. -1.
         23    2    1    2    0    0  0.19430825774E+04  0.83430108369E+03  0.45619198480E+03  0.21652250026E+04  0.91978171921E+02 0.  0.
         11    1    3    3    0    0  0.64463055703E+03  0.30675179729E+03  0.18847416054E+03  0.73835474495E+03  0.00000000000E+00 0.  1.
        -11    1    3    3    0    0  0.12984520204E+04  0.52754928640E+03  0.26771782426E+03  0.14268702577E+04  0.00000000000E+00 0. -1.
         22    1    1    2    0    0 -0.19430825774E+04 -0.83430108369E+03 -0.29384210528E+03  0.21349406043E+04  0.00000000000E+00 0.  1.
<mgrwt>
<rscale>  0 0.42970998E+04</rscale>
<asrwt>0</asrwt>
<pdfrwt beam="1">  1        1 0.31829352E+00 0.42970998E+04</pdfrwt>
<pdfrwt beam="2">  1       -1 0.34327042E+00 0.42970998E+04</pdfrwt>
<totfact> 0.35183359E-02</totfact>
</mgrwt>
</event>
<event>
 6    1  0.1762360E-005  0.2873661E+04  0.7818608E-02  0.8280758E-01
         -2   -1    0    0    0  501 -0.00000000000E+00  0.00000000000E+00  0.12752666488E+04  0.12752666488E+04  0.00000000000E+00 0.  1.
          2   -1    0    0  501    0  0.00000000000E+00 -0.00000000000E+00 -0.16188627691E+04  0.16188627691E+04  0.00000000000E+00 0. -1.
         23    2    1    2    0    0 -0.12196161160E+04  0.65030594242E+03  0.21804117517E+03  0.14022186495E+04  0.91180578322E+02 0.  0.
         11    1    3    3    0    0 -0.10914509842E+04  0.55032571015E+03  0.20132120856E+03  0.12388114736E+04  0.00000000000E+00 0. -1.
        -11    1    3    3    0    0 -0.12816513179E+03  0.99980232270E+02  0.16719966614E+02  0.16340717590E+03  0.00000000000E+00 0.  1.
         22    1    1    2    0    0  0.12196161160E+04 -0.65030594242E+03 -0.56163729545E+03  0.14919107684E+04  0.00000000000E+00 0.  1.
<mgrwt>
<rscale>  0 0.28736609E+04</rscale>
<asrwt>0</asrwt>
<pdfrwt beam="1">  1        2 0.24905581E+00 0.28736609E+04</pdfrwt>
<pdfrwt beam="2">  1       -2 0.19619487E+00 0.28736609E+04</pdfrwt>
<totfact> 0.13267790E+00</totfact>
</mgrwt>
</event>
<event>
 6    1  0.1762360E-005  0.1335924E+04  0.7818608E-02  0.9001552E-01
         -3   -1    0    0    0  501 -0.00000000000E+00  0.00000000000E+00  0.15867256001E+04  0.15867256001E+04  0.00000000000E+00 0.  1.
          3   -1    0    0  501    0  0.00000000000E+00 -0.00000000000E+00 -0.28119114117E+03  0.28119114117E+03  0.00000000000E+00 0. -1.
         23    2    1    2    0    0  0.39762984350E+03  0.51494593780E+03  0.84709145297E+03  0.10720217727E+04  0.91585698251E+02 0.  0.
         11    1    3    3    0    0  0.53923169834E+02  0.31816349720E+02  0.61169180338E+02  0.87530891562E+02  0.00000000000E+00 0. -1.
        -11    1    3    3    0    0  0.34370667366E+03  0.48312958808E+03  0.78592227263E+03  0.98449088112E+03  0.00000000000E+00 0.  1.
         22    1    1    2    0    0 -0.39762984350E+03 -0.51494593780E+03  0.45844300597E+03  0.79589496858E+03  0.00000000000E+00 0. -1.
<mgrwt>
<rscale>  0 0.13359239E+04</rscale>
<asrwt>0</asrwt>
<pdfrwt beam="1">  1        3 0.43260176E-01 0.13359239E+04</pdfrwt>
<pdfrwt beam="2">  1       -3 0.24411163E+00 0.13359239E+04</pdfrwt>
<totfact> 0.10812570E+00</totfact>
</mgrwt>
</event>
<event>
 6    1  0.1762360E-005  0.1213355E+04  0.7818608E-02  0.9101246E-01
          1   -1    0    0  501    0  0.00000000000E+00  0.00000000000E+00  0.59943771151E+03  0.59943771151E+03  0.00000000000E+00 0. -1.
         -1   -1    0    0    0  501 -0.00000000000E+00 -0.00000000000E+00 -0.61400501351E+03  0.61400501351E+03  0.00000000000E+00 0.  1.
         23    2    1    2    0    0  0.80864942913E+02  0.19865925355E+03 -0.57102726915E+03  0.61707678613E+03  0.93311198957E+02 0.  0.
         11    1    3    3    0    0  0.85816777236E+01  0.27193607846E+02 -0.19979168934E+03  0.20181639336E+03  0.00000000000E+00 0.  1.
        -11    1    3    3    0    0  0.72283265189E+02  0.17146564570E+03 -0.37123557982E+03  0.41526039277E+03  0.00000000000E+00 0. -1.
         22    1    1    2    0    0 -0.80864942913E+02 -0.19865925355E+03  0.55645996716E+03  0.59636593889E+03  0.00000000000E+00 0. -1.
<mgrwt>
<rscale>  0 0.12133553E+04</rscale>
<asrwt>0</asrwt>
<pdfrwt beam="1">  1        1 0.92221187E-01 0.12133553E+04</pdfrwt>
<pdfrwt beam="2">  1       -1 0.94462309E-01 0.12133553E+04</pdfrwt>
<totfact> 0.36796381E+01</totfact>
</mgrwt>
</event>
<event>
 6    1  0.1762360E-005  0.4827160E+04  0.7818608E-02  0.7855737E-01
         -2   -1    0    0    0  501 -0.00000000000E+00  0.00000000000E+00  0.21598337526E+04  0.21598337526E+04  0.00000000000E+00 0.  1.
          2   -1    0    0  501    0  0.00000000000E+00 -0.00000000000E+00 -0.26971378296E+04  0.26971378296E+04  0.00000000000E+00 0. -1.
         23    2    1    2    0    0  0.22539100397E+04  0.57822651289E+03  0.37314308746E+03  0.23582978528E+04  0.88750389195E+02 0.  0.
         13    1    3    3    0    0  0.11942424176E+04  0.28726212177E+03  0.15616782854E+03  0.12381933893E+04  0.00000000000E+00 0. -1.
        -13    1    3    3    0    0  0.10596676221E+04  0.29096439112E+03  0.21697525891E+03  0.11201044635E+04  0.00000000000E+00 0.  1.
         22    1    1    2    0    0 -0.22539100397E+04 -0.57822651289E+03 -0.91044716439E+03  0.24986737294E+04  0.00000000000E+00 0.  1.
<mgrwt>
<rscale>  0 0.48271604E+04</rscale>
<asrwt>0</asrwt>
<pdfrwt beam="1">  1        2 0.41494428E+00 0.48271604E+04</pdfrwt>
<pdfrwt beam="2">  1       -2 0.33228212E+00 0.48271604E+04</pdfrwt>
<totfact> 0.39529095E-02</totfact>
</mgrwt>
</event>
<event>
 6    1  0.1762360E-005  0.2268814E+04  0.7818608E-02  0.8490320E-01
          1   -1    0    0  501    0  0.00000000000E+00  0.00000000000E+00  0.12996600570E+04  0.12996600570E+04  0.00000000000E+00 0. -1.
         -1   -1    0    0    0  501 -0.00000000000E+00 -0.00000000000E+00 -0.99016634959E+03  0.99016634959E+03  0.00000000000E+00 0.  1.
         23    2    1    2    0    0  0.11034284169E+04  0.21300288698E+03  0.13129875354E+02  0.11276061081E+04  0.91644096253E+02 0.  0.
         11    1    3    3    0    0  0.61635754456E+03  0.15754790325E+03 -0.17692973029E+02  0.63642046309E+03  0.00000000000E+00 0.  1.
        -11    1    3    3    0    0  0.48707087236E+03  0.55454983732E+02  0.30822848383E+02  0.49118564505E+03  0.00000000000E+00 0. -1.
         22    1    1    2    0    0 -0.11034284169E+04 -0.21300288698E+03  0.29636383203E+03  0.11622202984E+04  0.00000000000E+00 0.  1.
<mgrwt>
<rscale>  0 0.22688144E+04</rscale>
<asrwt>0</asrwt>
<pdfrwt beam="1">  1        1 0.19994770E+00 0.22688144E+04</pdfrwt>
<pdfrwt beam="2">  1       -1 0.15233328E+00 0.22688144E+04</pdfrwt>
<totfact> 0.27449453E+00</totfact>
</mgrwt>
</event>
<event>
 6    1  0.1762360E-005  0.3211709E+04  0.7818608E-02  0.8185732E-01
         -1   -1    0    0    0  501 -0.00000000000E+00  0.00000000000E+00  0.72855387522E+03  0.72855387522E+03  0.00000000000E+00 0.  1.
          1   -1    0    0  501    0  0.00000000000E+00 -0.00000000000E+00 -0.35395711611E+04  0.35395711611E+04  0.00000000000E+00 0. -1.
         23    2    1    2    0    0  0.22608205154E+03 -0.72732765039E+03 -0.32834316390E+04  0.33718583762E+04  0.91580436703E+02 0.  0.
         11    1    3    3    0    0  0.15306703756E+03 -0.49502153028E+03 -0.24131419367E+04  0.24681429943E+04  0.00000000000E+00 0. -1.
        -11    1    3    3    0    0  0.73015013979E+02 -0.23230612011E+03 -0.87028970224E+03  0.90371538193E+03  0.00000000000E+00 0.  1.
         22    1    1    2    0    0 -0.22608205154E+03  0.72732765039E+03  0.47241435308E+03  0.89626666012E+03  0.00000000000E+00 0.  1.
<mgrwt>
<rscale>  0 0.32117088E+04</rscale>
<asrwt>0</asrwt>
<pdfrwt beam="1">  1        1 0.54454940E+00 0.32117088E+04</pdfrwt>
<pdfrwt beam="2">  1       -1 0.11208521E+00 0.32117088E+04</pdfrwt>
<totfact> 0.14164697E-01</totfact>
</mgrwt>
</event>
<event>
 6    1  0.1762360E-005  0.2101757E+04  0.7818608E-02  0.8560470E-01
         -1   -1    0    0    0  501 -0.00000000000E+00  0.00000000000E+00  0.22432684478E+04  0.22432684478E+04  0.00000000000E+00 0.  1.
          1   -1    0    0  501    0  0.00000000000E+00 -0.00000000000E+00 -0.49229296100E+03  0.49229296100E+03  0.00000000000E+00 0. -1.
         23    2    1    2    0    0 -0.42684210481E+03  0.75562588512E+03  0.16438904261E+04  0.18611290953E+04  0.90890680122E+02 0.  0.
         11    1    3    3    0    0 -0.19095015729E+03  0.42792286434E+03  0.86174806102E+03  0.98091266740E+03  0.00000000000E+00 0.  1.
        -11    1    3    3    0    0 -0.23589194752E+03  0.32770302078E+03  0.78214236504E+03  0.88021642789E+03  0.00000000000E+00 0. -1.
         22    1    1    2    0    0  0.42684210481E+03 -0.75562588512E+03  0.10708506075E+03  0.87443231353E+03  0.00000000000E+00 0. -1.
<mgrwt>
<rscale>  0 0.21017567E+04</rscale>
<asrwt>0</asrwt>
<pdfrwt beam="1">  1        1 0.75737380E-01 0.21017567E+04</pdfrwt>
<pdfrwt beam="2">  1       -1 0.34511822E+00 0.21017567E+04</pdfrwt>
<totfact> 0.69780610E-01</totfact>
</mgrwt>
</event>
<event>
 6    1  0.1762360E-005  0.1910759E+04  0.7818608E-02  0.8649520E-01
         -2   -1    0    0    0  501 -0.00000000000E+00  0.00000000000E+00  0.30581690426E+03  0.30581690426E+03  0.00000000000E+00 0.  1.
          2   -1    0    0  501    0  0.00000000000E+00 -0.00000000000E+00 -0.29846276270E+04  0.29846276270E+04  0.00000000000E+00 0. -1.
         23    2    1    2    0    0 -0.48773968056E+03 -0.81918547299E+03 -0.13505163245E+04  0.16554152215E+04  0.86892910251E+02 0.  0.
         13    1    3    3    0    0 -0.29850195737E+03 -0.56800581319E+03 -0.94452818279E+03  0.11418701811E+04  0.00000000000E+00 0.  1.
        -13    1    3    3    0    0 -0.18923772319E+03 -0.25117965981E+03 -0.40598814168E+03  0.51354504044E+03  0.00000000000E+00 0. -1.
         22    1    1    2    0    0  0.48773968056E+03  0.81918547299E+03 -0.13282943982E+04  0.16350293097E+04  0.00000000000E+00 0. -1.
<mgrwt>
<rscale>  0 0.19107586E+04</rscale>
<asrwt>0</asrwt>
<pdfrwt beam="1">  1        2 0.45917347E+00 0.19107586E+04</pdfrwt>
<pdfrwt beam="2">  1       -2 0.47048756E-01 0.19107586E+04</pdfrwt>
<totfact> 0.71538832E+00</totfact>
</mgrwt>
</event>
<event>
 6    1  0.3033370E-005  0.3137208E+04  0.7818608E-02  0.8205600E-01
          2   -1    0    0  501    0  0.00000000000E+00  0.00000000000E+00  0.15144610017E+04  0.15144610017E+04  0.00000000000E+00 0. -1.
         -2   -1    0    0    0  501 -0.00000000000E+00 -0.00000000000E+00 -0.16246824290E+04  0.16246824290E+04  0.00000000000E+00 0.  1.
         23    2    1    2    0    0 -0.19323045716E+03 -0.27939296215E+03 -0.15861617290E+04  0.16246143913E+04  0.89802298939E+02 0.  0.
         13    1    3    3    0    0 -0.18869336359E+03 -0.23393374908E+03 -0.12646449420E+04  0.12998680756E+04  0.00000000000E+00 0. -1.
        -13    1    3    3    0    0 -0.45370935742E+01 -0.45459213070E+02 -0.32151678700E+03  0.32474631575E+03  0.00000000000E+00 0.  1.
         22    1    1    2    0    0  0.19323045716E+03  0.27939296215E+03  0.14759403017E+04  0.15145290393E+04  0.00000000000E+00 0. -1.
<mgrwt>
<rscale>  0 0.31372078E+04</rscale>
<asrwt>0</asrwt>
<pdfrwt beam="1">  1        2 0.23299400E+00 0.31372078E+04</pdfrwt>
<pdfrwt beam="2">  1       -2 0.24995114E+00 0.31372078E+04</pdfrwt>
<totfact> 0.67807404E-01</totfact>
</mgrwt>
</event>
<event>
 6    1  0.1762360E-005  0.1878258E+04  0.7818608E-02  0.8665755E-01
         -2   -1    0    0    0  501 -0.00000000000E+00  0.00000000000E+00  0.66554758912E+03  0.66554758912E+03  0.00000000000E+00 0.  1.
          2   -1    0    0  501    0  0.00000000000E+00 -0.00000000000E+00 -0.13251693862E+04  0.13251693862E+04  0.00000000000E+00 0. -1.
         23    2    1    2    0    0  0.24161808244E+03  0.64058734735E+03 -0.10082823297E+04  0.12224099960E+04  0.94453663422E+02 0.  0.
         13    1    3    3    0    0  0.10779853171E+03  0.18843759550E+03 -0.27096550117E+03  0.34720534797E+03  0.00000000000E+00 0.  1.
        -13    1    3    3    0    0  0.13381955074E+03  0.45214975185E+03 -0.73731682855E+03  0.87520464803E+03  0.00000000000E+00 0. -1.
         22    1    1    2    0    0 -0.24161808244E+03 -0.64058734735E+03  0.34866053269E+03  0.76830697928E+03  0.00000000000E+00 0.  1.
<mgrwt>
<rscale>  0 0.18782580E+04</rscale>
<asrwt>0</asrwt>
<pdfrwt beam="1">  1        2 0.20387221E+00 0.18782580E+04</pdfrwt>
<pdfrwt beam="2">  1       -2 0.10239194E+00 0.18782580E+04</pdfrwt>
<totfact> 0.11709238E+01</totfact>
</mgrwt>
</event>
<event>
 6    1  0.1762360E-005  0.3066491E+04  0.7818608E-02  0.8224995E-01
         -1   -1    0    0    0  501 -0.00000000000E+00  0.00000000000E+00  0.14017589302E+04  0.14017589302E+04  0.00000000000E+00 0.  1.
          1   -1    0    0  501    0  0.00000000000E+00 -0.00000000000E+00 -0.16770658381E+04  0.16770658381E+04  0.00000000000E+00 0. -1.
         23    2    1    2    0    0 -0.24205341242E+03 -0.62941223128E+03  0.12433193816E+04  0.14172064551E+04  0.88777475611E+02 0.  0.
         13    1    3    3    0    0 -0.13413841746E+03 -0.27433843531E+03  0.48860881780E+03  0.57618857066E+03  0.00000000000E+00 0. -1.
        -13    1    3    3    0    0 -0.10791499495E+03 -0.35507379597E+03  0.75471056385E+03  0.84101788441E+03  0.00000000000E+00 0.  1.
         22    1    1    2    0    0  0.24205341242E+03  0.62941223128E+03 -0.15186262896E+04  0.16616183132E+04  0.00000000000E+00 0. -1.
<mgrwt>
<rscale>  0 0.30664912E+04</rscale>
<asrwt>0</asrwt>
<pdfrwt beam="1">  1        1 0.25801013E+00 0.30664912E+04</pdfrwt>
<pdfrwt beam="2">  1       -1 0.21565522E+00 0.30664912E+04</pdfrwt>
<totfact> 0.49221057E-01</totfact>
</mgrwt>
</event>
<event>
 6    1  0.1762360E-005  0.3281806E+04  0.7818608E-02  0.8167540E-01
          1   -1    0    0  501    0  0.00000000000E+00  0.00000000000E+00  0.27195337035E+04  0.27195337035E+04  0.00000000000E+00 0. -1.
         -1   -1    0    0    0  501 -0.00000000000E+00 -0.00000000000E+00 -0.99008275875E+03  0.99008275875E+03  0.00000000000E+00 0.  1.
         23    2    1    2    0    0 -0.71716851187E+03 -0.56972540539E+03  0.24026466378E+04  0.25729062296E+04  0.90652567114E+02 0.  0.
         13    1    3    3    0    0 -0.43697702751E+03 -0.34728434613E+03  0.15853065426E+04  0.16806999059E+04  0.00000000000E+00 0.  1.
        -13    1    3    3    0    0 -0.28019148436E+03 -0.22244105926E+03  0.81734009527E+03  0.89220632372E+03  0.00000000000E+00 0. -1.
         22    1    1    2    0    0  0.71716851187E+03  0.56972540539E+03 -0.67319569305E+03  0.11367102327E+04  0.00000000000E+00 0.  1.
<mgrwt>
<rscale>  0 0.32818065E+04</rscale>
<asrwt>0</asrwt>
<pdfrwt beam="1">  1        1 0.41838980E+00 0.32818065E+04</pdfrwt>
<pdfrwt beam="2">  1       -1 0.15232043E+00 0.32818065E+04</pdfrwt>
<totfact> 0.26423160E-01</totfact>
</mgrwt>
</event>
<event>
 6    1  0.1762360E-005  0.2621610E+04  0.7818608E-02  0.8360898E-01
         -2   -1    0    0    0  501 -0.00000000000E+00  0.00000000000E+00  0.42010380680E+03  0.42010380680E+03  0.00000000000E+00 0.  1.
          2   -1    0    0  501    0  0.00000000000E+00 -0.00000000000E+00 -0.40899648757E+04  0.40899648757E+04  0.00000000000E+00 0. -1.
         23    2    1    2    0    0 -0.28298843727E+03  0.62732491333E+03  0.76320304825E+02  0.70119826106E+03  0.11061288296E+03 0.  0.
         11    1    3    3    0    0 -0.18773390202E+03  0.29744598172E+03  0.64757091552E+02  0.35764732756E+03  0.00000000000E+00 0.  1.
        -11    1    3    3    0    0 -0.95254535250E+02  0.32987893161E+03  0.11563213273E+02  0.34355093350E+03  0.00000000000E+00 0. -1.
         22    1    1    2    0    0  0.28298843727E+03 -0.62732491333E+03 -0.37461813738E+04  0.38088704215E+04  0.00000000000E+00 0. -1.
<mgrwt>
<rscale>  0 0.26216101E+04</rscale>
<asrwt>0</asrwt>
<pdfrwt beam="1">  1        2 0.62922536E+00 0.26216101E+04</pdfrwt>
<pdfrwt beam="2">  1       -2 0.64631356E-01 0.26216101E+04</pdfrwt>
<totfact> 0.56443938E-01</totfact>
</mgrwt>
</event>
<event>
 6    1  0.1762360E-005  0.1121562E+04  0.7818608E-02  0.9184427E-01
          2   -1    0    0  501    0  0.00000000000E+00  0.00000000000E+00  0.14157279697E+04  0.14157279697E+04  0.00000000000E+00 0. -1.
         -2   -1    0    0    0  501 -0.00000000000E+00 -0.00000000000E+00 -0.22212990427E+03  0.22212990427E+03  0.00000000000E+00 0.  1.
         23    2    1    2    0    0  0.39786006419E+03  0.38363477582E+03  0.50355048347E+03  0.75375723644E+03  0.95491414215E+02 0.  0.
         13    1    3    3    0    0  0.15884741230E+03  0.17971333366E+03  0.16063565360E+03  0.28867489655E+03  0.00000000000E+00 0. -1.
        -13    1    3    3    0    0  0.23901265189E+03  0.20392144216E+03  0.34291482987E+03  0.46508233989E+03  0.00000000000E+00 0.  1.
         22    1    1    2    0    0 -0.39786006419E+03 -0.38363477582E+03  0.69004758193E+03  0.88410063750E+03  0.00000000000E+00 0.  1.
<mgrwt>
<rscale>  0 0.11215623E+04</rscale>
<asrwt>0</asrwt>
<pdfrwt beam="1">  1        2 0.21780430E+00 0.11215623E+04</pdfrwt>
<pdfrwt beam="2">  1       -2 0.34173832E-01 0.11215623E+04</pdfrwt>
<totfact> 0.11260614E+02</totfact>
</mgrwt>
</event>
<event>
 6    1  0.1762360E-005  0.2993779E+04  0.7818608E-02  0.8245510E-01
         -2   -1    0    0    0  501 -0.00000000000E+00  0.00000000000E+00  0.93561293247E+03  0.93561293247E+03  0.00000000000E+00 0.  1.
          2   -1    0    0  501    0  0.00000000000E+00 -0.00000000000E+00 -0.23948768790E+04  0.23948768790E+04  0.00000000000E+00 0. -1.
         23    2    1    2    0    0 -0.50502533047E+03 -0.10825624916E+04 -0.17309307241E+04  0.21054204377E+04  0.98396723363E+02 0.  0.
         11    1    3    3    0    0 -0.15909142738E+03 -0.26642478076E+03 -0.50177767119E+03  0.58997718377E+03  0.00000000000E+00 0. -1.
        -11    1    3    3    0    0 -0.34593390310E+03 -0.81613771082E+03 -0.12291530530E+04  0.15154432539E+04  0.00000000000E+00 0.  1.
         22    1    1    2    0    0  0.50502533047E+03  0.10825624916E+04  0.27166677756E+03  0.12250693738E+04  0.00000000000E+00 0. -1.
<mgrwt>
<rscale>  0 0.29937787E+04</rscale>
<asrwt>0</asrwt>
<pdfrwt beam="1">  1        2 0.36844260E+00 0.29937787E+04</pdfrwt>
<pdfrwt beam="2">  1       -2 0.14394045E+00 0.29937787E+04</pdfrwt>
<totfact> 0.11449268E+00</totfact>
</mgrwt>
</event>
<event>
 6    1  0.1762360E-005  0.3375193E+04  0.7818608E-02  0.8144022E-01
         -2   -1    0    0    0  501 -0.00000000000E+00  0.00000000000E+00  0.98047818563E+03  0.98047818563E+03  0.00000000000E+00 0. -1.
          2   -1    0    0  501    0  0.00000000000E+00 -0.00000000000E+00 -0.29046868584E+04  0.29046868584E+04  0.00000000000E+00 0.  1.
         23    2    1    2    0    0 -0.25831704779E+03  0.66034235349E+03 -0.27240248930E+04  0.28162938137E+04  0.91757869232E+02 0.  0.
         13    1    3    3    0    0 -0.18771882567E+03  0.56442181280E+03 -0.23241721037E+04  0.23990803045E+04  0.00000000000E+00 0. -1.
        -13    1    3    3    0    0 -0.70598222117E+02  0.95920540689E+02 -0.39985278931E+03  0.41721350914E+03  0.00000000000E+00 0.  1.
         22    1    1    2    0    0  0.25831704779E+03 -0.66034235349E+03  0.79981622019E+03  0.10688712303E+04  0.00000000000E+00 0. -1.
<mgrwt>
<rscale>  0 0.33751931E+04</rscale>
<asrwt>0</asrwt>
<pdfrwt beam="1">  1        2 0.44687489E+00 0.33751931E+04</pdfrwt>
<pdfrwt beam="2">  1       -2 0.15084280E+00 0.33751931E+04</pdfrwt>
<totfact> 0.48875248E-01</totfact>
</mgrwt>
</event>
<event>
 6    1  0.1762360E-005  0.3032188E+04  0.7818608E-02  0.8234599E-01
         -2   -1    0    0    0  501 -0.00000000000E+00  0.00000000000E+00  0.14613151165E+04  0.14613151165E+04  0.00000000000E+00 0.  1.
          2   -1    0    0  501    0  0.00000000000E+00 -0.00000000000E+00 -0.15729267283E+04  0.15729267283E+04  0.00000000000E+00 0. -1.
         23    2    1    2    0    0 -0.78781242512E+03  0.44588173881E+03 -0.12711076237E+04  0.15632252086E+04  0.92192838789E+02 0.  0.
         11    1    3    3    0    0 -0.78658659080E+03  0.43628512804E+03 -0.12632465122E+04  0.15507594683E+04  0.00000000000E+00 0.  1.
        -11    1    3    3    0    0 -0.12258343242E+01  0.95966107668E+01 -0.78611115087E+01  0.12465740337E+02  0.00000000000E+00 0. -1.
         22    1    1    2    0    0  0.78781242512E+03 -0.44588173881E+03  0.11594960120E+04  0.14710166362E+04  0.00000000000E+00 0.  1.
<mgrwt>
<rscale>  0 0.30321884E+04</rscale>
<asrwt>0</asrwt>
<pdfrwt beam="1">  1        2 0.24198873E+00 0.30321884E+04</pdfrwt>
<pdfrwt beam="2">  1       -2 0.22481771E+00 0.30321884E+04</pdfrwt>
<totfact> 0.90860052E-01</totfact>
</mgrwt>
</event>
<event>
 6    1  0.1762360E-005  0.3281570E+04  0.7818608E-02  0.8167601E-01
          1   -1    0    0  501    0  0.00000000000E+00  0.00000000000E+00  0.38104121674E+04  0.38104121674E+04  0.00000000000E+00 0. -1.
         -1   -1    0    0    0  501 -0.00000000000E+00 -0.00000000000E+00 -0.70653136991E+03  0.70653136991E+03  0.00000000000E+00 0.  1.
         23    2    1    2    0    0  0.10020861438E+04  0.59993727532E+03  0.31366373392E+04  0.33485367738E+04  0.10051543961E+03 0.  0.
         13    1    3    3    0    0  0.23281897884E+03  0.93018811179E+02  0.64133275579E+03  0.68859631119E+03  0.00000000000E+00 0.  1.
        -13    1    3    3    0    0  0.76926716498E+03  0.50691846414E+03  0.24953045835E+04  0.26599404626E+04  0.00000000000E+00 0. -1.
         22    1    1    2    0    0 -0.10020861438E+04 -0.59993727532E+03 -0.32756541771E+02  0.11684067635E+04  0.00000000000E+00 0.  1.
<mgrwt>
<rscale>  0 0.32815702E+04</rscale>
<asrwt>0</asrwt>
<pdfrwt beam="1">  1        1 0.58621725E+00 0.32815702E+04</pdfrwt>
<pdfrwt beam="2">  1       -1 0.10869714E+00 0.32815702E+04</pdfrwt>
<totfact> 0.90950050E-02</totfact>
</mgrwt>
</event>
<event>
 6    1  0.1762360E-005  0.1704562E+04  0.7818608E-02  0.8758767E-01
          1   -1    0    0  501    0  0.00000000000E+00  0.00000000000E+00  0.94319439539E+03  0.94319439539E+03  0.00000000000E+00 0. -1.
         -1   -1    0    0    0  501 -0.00000000000E+00 -0.00000000000E+00 -0.77013095872E+03  0.77013095872E+03  0.00000000000E+00 0.  1.
         23    2    1    2    0    0  0.48386577045E+03  0.17181005961E+03  0.76742693382E+03  0.92788742077E+03  0.91576123862E+02 0.  0.
         13    1    3    3    0    0  0.42029688767E+02  0.36579229327E+02  0.12188343546E+03  0.13401532224E+03  0.00000000000E+00 0.  1.
        -13    1    3    3    0    0  0.44183608168E+03  0.13523083028E+03  0.64554349836E+03  0.79387209852E+03  0.00000000000E+00 0. -1.
         22    1    1    2    0    0 -0.48386577045E+03 -0.17181005961E+03 -0.59436349715E+03  0.78543793335E+03  0.00000000000E+00 0.  1.
<mgrwt>
<rscale>  0 0.17045624E+04</rscale>
<asrwt>0</asrwt>
<pdfrwt beam="1">  1        1 0.14510683E+00 0.17045624E+04</pdfrwt>
<pdfrwt beam="2">  1       -1 0.11848169E+00 0.17045624E+04</pdfrwt>
<totfact> 0.10199475E+01</totfact>
</mgrwt>
</event>
<event>
 6    1  0.1762360E-005  0.2158143E+04  0.7818608E-02  0.8536055E-01
         -2   -1    0    0    0  501 -0.00000000000E+00  0.00000000000E+00  0.43624098526E+03  0.43624098526E+03  0.00000000000E+00 0.  1.
          2   -1    0    0  501    0  0.00000000000E+00 -0.00000000000E+00 -0.26691563856E+04  0.26691563856E+04  0.00000000000E+00 0. -1.
         23    2    1    2    0    0  0.83347689161E+03  0.55666938013E+03 -0.16862160619E+04  0.19637123467E+04  0.90978270481E+02 0.  0.
         13    1    3    3    0    0  0.65075286193E+03  0.47805475574E+03 -0.13498904646E+04  0.15729653217E+04  0.00000000000E+00 0. -1.
        -13    1    3    3    0    0  0.18272402969E+03  0.78614624387E+02 -0.33632559730E+03  0.39074702506E+03  0.00000000000E+00 0.  1.
         22    1    1    2    0    0 -0.83347689161E+03 -0.55666938013E+03 -0.54669933844E+03  0.11416850241E+04  0.00000000000E+00 0.  1.
<mgrwt>
<rscale>  0 0.21581431E+04</rscale>
<asrwt>0</asrwt>
<pdfrwt beam="1">  1        2 0.41063944E+00 0.21581431E+04</pdfrwt>
<pdfrwt beam="2">  1       -2 0.67113998E-01 0.21581431E+04</pdfrwt>
<totfact> 0.51787817E+00</totfact>
</mgrwt>
</event>
<event>
 6    1  0.1762360E-005  0.1654197E+04  0.7818608E-02  0.8787927E-01
          2   -1    0    0  501    0  0.00000000000E+00  0.00000000000E+00  0.23627616039E+04  0.23627616039E+04  0.00000000000E+00 0. -1.
         -2   -1    0    0    0  501 -0.00000000000E+00 -0.00000000000E+00 -0.28953074329E+03  0.28953074329E+03  0.00000000000E+00 0.  1.
         23    2    1    2    0    0  0.16864546930E+03 -0.80479257260E+03  0.94395990801E+03  0.12553724269E+04  0.93633557715E+02 0.  0.
         11    1    3    3    0    0  0.13671660915E+03 -0.44198172841E+03  0.55423323742E+03  0.72195135634E+03  0.00000000000E+00 0. -1.
        -11    1    3    3    0    0  0.31928860150E+02 -0.36281084419E+03  0.38972667059E+03  0.53342107058E+03  0.00000000000E+00 0.  1.
         22    1    1    2    0    0 -0.16864546930E+03  0.80479257260E+03  0.11292709526E+04  0.13969199202E+04  0.00000000000E+00 0. -1.
<mgrwt>
<rscale>  0 0.16541972E+04</rscale>
<asrwt>0</asrwt>
<pdfrwt beam="1">  1        2 0.36350177E+00 0.16541972E+04</pdfrwt>
<pdfrwt beam="2">  1       -2 0.44543193E-01 0.16541972E+04</pdfrwt>
<totfact> 0.19081827E+01</totfact>
</mgrwt>
</event>
<event>
 6    1  0.1762360E-005  0.3437910E+04  0.7818608E-02  0.8128664E-01
          2   -1    0    0  501    0  0.00000000000E+00  0.00000000000E+00  0.27284108099E+04  0.27284108099E+04  0.00000000000E+00 0. -1.
         -2   -1    0    0    0  501 -0.00000000000E+00 -0.00000000000E+00 -0.10829767582E+04  0.10829767582E+04  0.00000000000E+00 0.  1.
         23    2    1    2    0    0 -0.12754743011E+04  0.98061250957E+03  0.15610690717E+03  0.16190073707E+04  0.91541866297E+02 0.  0.
         11    1    3    3    0    0 -0.54618925606E+03  0.47119847586E+03  0.90487644220E+02  0.72700668556E+03  0.00000000000E+00 0. -1.
        -11    1    3    3    0    0 -0.72928504504E+03  0.50941403371E+03  0.65619262949E+02  0.89200068516E+03  0.00000000000E+00 0.  1.
         22    1    1    2    0    0  0.12754743011E+04 -0.98061250957E+03  0.14893271445E+04  0.21923801974E+04  0.00000000000E+00 0.  1.
<mgrwt>
<rscale>  0 0.34379095E+04</rscale>
<asrwt>0</asrwt>
<pdfrwt beam="1">  1        2 0.41975551E+00 0.34379095E+04</pdfrwt>
<pdfrwt beam="2">  1       -2 0.16661181E+00 0.34379095E+04</pdfrwt>
<totfact> 0.47518654E-01</totfact>
</mgrwt>
</event>
<event>
 6    1  0.1762360E-005  0.1198735E+04  0.7818608E-02  0.9113964E-01
          2   -1    0    0  501    0  0.00000000000E+00  0.00000000000E+00  0.12172294242E+04  0.12172294242E+04  0.00000000000E+00 0. -1.
         -2   -1    0    0    0  501 -0.00000000000E+00 -0.00000000000E+00 -0.29513050149E+03  0.29513050149E+03  0.00000000000E+00 0.  1.
         23    2    1    2    0    0  0.14096014318E+03 -0.25133708491E+03 -0.19417794541E+03  0.35948779987E+03  0.92121178656E+02 0.  0.
         13    1    3    3    0    0  0.67339076522E+02 -0.20442679909E+03 -0.13907528184E+03  0.25625534420E+03  0.00000000000E+00 0. -1.
        -13    1    3    3    0    0  0.73621066653E+02 -0.46910285818E+02 -0.55102663565E+02  0.10323245567E+03  0.00000000000E+00 0.  1.
         22    1    1    2    0    0 -0.14096014318E+03  0.25133708491E+03  0.11162768682E+04  0.11528721259E+04  0.00000000000E+00 0. -1.
<mgrwt>
<rscale>  0 0.11987352E+04</rscale>
<asrwt>0</asrwt>
<pdfrwt beam="1">  1        2 0.18726606E+00 0.11987352E+04</pdfrwt>
<pdfrwt beam="2">  1       -2 0.45404693E-01 0.11987352E+04</pdfrwt>
<totfact> 0.83926720E+01</totfact>
</mgrwt>
</event>
<event>
 6    1  0.1762360E-005  0.1496590E+04  0.7818608E-02  0.8886723E-01
         -2   -1    0    0    0  501 -0.00000000000E+00  0.00000000000E+00  0.23943494479E+03  0.23943494479E+03  0.00000000000E+00 0. -1.
          2   -1    0    0  501    0  0.00000000000E+00 -0.00000000000E+00 -0.23386129588E+04  0.23386129588E+04  0.00000000000E+00 0.  1.
         23    2    1    2    0    0 -0.50846624795E+03  0.45691514557E+03 -0.15657526592E+04  0.17109539152E+04  0.92046372092E+02 0.  0.
         11    1    3    3    0    0 -0.18595092078E+03  0.21221551748E+03 -0.71960771891E+03  0.77294788952E+03  0.00000000000E+00 0.  1.
        -11    1    3    3    0    0 -0.32251532717E+03  0.24469962809E+03 -0.84614494027E+03  0.93800602567E+03  0.00000000000E+00 0. -1.
         22    1    1    2    0    0  0.50846624795E+03 -0.45691514557E+03 -0.53342535485E+03  0.86709398842E+03  0.00000000000E+00 0. -1.
<mgrwt>
<rscale>  0 0.14965903E+04</rscale>
<asrwt>0</asrwt>
<pdfrwt beam="1">  1        2 0.35978663E+00 0.14965903E+04</pdfrwt>
<pdfrwt beam="2">  1       -2 0.36836143E-01 0.14965903E+04</pdfrwt>
<totfact> 0.28972620E+01</totfact>
</mgrwt>
</event>
<event>
 6    1  0.1762360E-005  0.5435832E+04  0.7818608E-02  0.7764581E-01
          2   -1    0    0  501    0  0.00000000000E+00  0.00000000000E+00  0.33163820099E+04  0.33163820099E+04  0.00000000000E+00 0. -1.
         -2   -1    0    0    0  501 -0.00000000000E+00 -0.00000000000E+00 -0.22274473368E+04  0.22274473368E+04  0.00000000000E+00 0.  1.
         23    2    1    2    0    0  0.41900910481E+03  0.16552011392E+04  0.27002834846E+04  0.31961273994E+04  0.91869553512E+02 0.  0.
         13    1    3    3    0    0  0.59505323698E+02  0.24217453954E+03  0.33649633670E+03  0.41883072447E+03  0.00000000000E+00 0. -1.
        -13    1    3    3    0    0  0.35950378111E+03  0.14130265997E+04  0.23637871479E+04  0.27772966749E+04  0.00000000000E+00 0.  1.
         22    1    1    2    0    0 -0.41900910481E+03 -0.16552011392E+04 -0.16113488115E+04  0.23477019473E+04  0.00000000000E+00 0.  1.
<mgrwt>
<rscale>  0 0.54358316E+04</rscale>
<asrwt>0</asrwt>
<pdfrwt beam="1">  1        2 0.51021262E+00 0.54358316E+04</pdfrwt>
<pdfrwt beam="2">  1       -2 0.34268421E+00 0.54358316E+04</pdfrwt>
<totfact> 0.13197342E-02</totfact>
</mgrwt>
</event>
<event>
 6    1  0.1762360E-005  0.2317662E+04  0.7818608E-02  0.8470990E-01
          1   -1    0    0  501    0  0.00000000000E+00  0.00000000000E+00  0.16168923020E+04  0.16168923020E+04  0.00000000000E+00 0. -1.
         -1   -1    0    0    0  501 -0.00000000000E+00 -0.00000000000E+00 -0.83053702869E+03  0.83053702869E+03  0.00000000000E+00 0.  1.
         23    2    1    2    0    0  0.72026275080E+03  0.83297989692E+03  0.18852588220E+02  0.11051572605E+04  0.91559878885E+02 0.  0.
         13    1    3    3    0    0  0.10120289338E+03  0.95516956126E+02 -0.24628381017E+02  0.14132258025E+03  0.00000000000E+00 0.  1.
        -13    1    3    3    0    0  0.61905985742E+03  0.73746294080E+03  0.43480969237E+02  0.96383468023E+03  0.00000000000E+00 0. -1.
         22    1    1    2    0    0 -0.72026275080E+03 -0.83297989692E+03  0.76750268509E+03  0.13422720702E+04  0.00000000000E+00 0. -1.
<mgrwt>
<rscale>  0 0.23176617E+04</rscale>
<asrwt>0</asrwt>
<pdfrwt beam="1">  1        1 0.24875266E+00 0.23176617E+04</pdfrwt>
<pdfrwt beam="2">  1       -1 0.12777493E+00 0.23176617E+04</pdfrwt>
<totfact> 0.25972665E+00</totfact>
</mgrwt>
</event>
<event>
 6    1  0.1762360E-005  0.3316845E+04  0.7818608E-02  0.8158622E-01
         -1   -1    0    0    0  501 -0.00000000000E+00  0.00000000000E+00  0.16716922427E+04  0.16716922427E+04  0.00000000000E+00 0.  1.
          1   -1    0    0  501    0  0.00000000000E+00 -0.00000000000E+00 -0.16452577656E+04  0.16452577656E+04  0.00000000000E+00 0. -1.
         23    2    1    2    0    0 -0.12266349202E+04  0.74992448040E+03  0.83733308626E+03  0.16663208834E+04  0.92079504814E+02 0.  0.
         13    1    3    3    0    0 -0.49183061634E+03  0.31370473271E+03  0.28931552923E+03  0.65116164656E+03  0.00000000000E+00 0. -1.
        -13    1    3    3    0    0 -0.73480430388E+03  0.43621974769E+03  0.54801755703E+03  0.10151592368E+04  0.00000000000E+00 0.  1.
         22    1    1    2    0    0  0.12266349202E+04 -0.74992448040E+03 -0.81089860914E+03  0.16506291249E+04  0.00000000000E+00 0. -1.
<mgrwt>
<rscale>  0 0.33168447E+04</rscale>
<asrwt>0</asrwt>
<pdfrwt beam="1">  1        1 0.25311658E+00 0.33168447E+04</pdfrwt>
<pdfrwt beam="2">  1       -1 0.25718342E+00 0.33168447E+04</pdfrwt>
<totfact> 0.26936903E-01</totfact>
</mgrwt>
</event>
<event>
 6    1  0.1762360E-005  0.2233305E+04  0.7818608E-02  0.8504692E-01
         -1   -1    0    0    0  501 -0.00000000000E+00  0.00000000000E+00  0.16956774663E+04  0.16956774663E+04  0.00000000000E+00 0.  1.
          1   -1    0    0  501    0  0.00000000000E+00 -0.00000000000E+00 -0.73534801720E+03  0.73534801720E+03  0.00000000000E+00 0. -1.
         23    2    1    2    0    0  0.51502987463E+03  0.18758262379E+03  0.15379445565E+04  0.16347326826E+04  0.81452270477E+02 0.  0.
         13    1    3    3    0    0  0.34468385215E+03  0.88864281513E+02  0.93543603148E+03  0.10008718137E+04  0.00000000000E+00 0. -1.
        -13    1    3    3    0    0  0.17034602249E+03  0.98718342280E+02  0.60250852498E+03  0.63386086892E+03  0.00000000000E+00 0.  1.
         22    1    1    2    0    0 -0.51502987463E+03 -0.18758262379E+03 -0.57761510735E+03  0.79629280089E+03  0.00000000000E+00 0. -1.
<mgrwt>
<rscale>  0 0.22333052E+04</rscale>
<asrwt>0</asrwt>
<pdfrwt beam="1">  1        1 0.11313046E+00 0.22333052E+04</pdfrwt>
<pdfrwt beam="2">  1       -1 0.26087345E+00 0.22333052E+04</pdfrwt>
<totfact> 0.13597920E+00</totfact>
</mgrwt>
</event>
<event>
 6    1  0.1762360E-005  0.1065872E+04  0.7818608E-02  0.9239109E-01
          4   -1    0    0  501    0  0.00000000000E+00  0.00000000000E+00  0.34233913312E+03  0.34233913312E+03  0.00000000000E+00 0. -1.
         -4   -1    0    0    0  501 -0.00000000000E+00 -0.00000000000E+00 -0.82964787971E+03  0.82964787971E+03  0.00000000000E+00 0.  1.
         23    2    1    2    0    0 -0.46654663801E+03  0.93139367884E+02 -0.49952480176E+03  0.69607742132E+03  0.93048598168E+02 0.  0.
         11    1    3    3    0    0 -0.17500962622E+03  0.39197252664E+02 -0.25506779639E+03  0.31180823376E+03  0.00000000000E+00 0. -1.
        -11    1    3    3    0    0 -0.29153701179E+03  0.53942115220E+02 -0.24445700537E+03  0.38426918756E+03  0.00000000000E+00 0.  1.
         22    1    1    2    0    0  0.46654663801E+03 -0.93139367884E+02  0.12216055161E+02  0.47590959151E+03  0.00000000000E+00 0. -1.
<mgrwt>
<rscale>  0 0.10658723E+04</rscale>
<asrwt>0</asrwt>
<pdfrwt beam="1">  1        4 0.52667559E-01 0.10658723E+04</pdfrwt>
<pdfrwt beam="2">  1       -4 0.12763814E+00 0.10658723E+04</pdfrwt>
<totfact> 0.31048985E+00</totfact>
</mgrwt>
</event>
<event>
 6    1  0.1762360E-005  0.1609883E+04  0.7818608E-02  0.8814499E-01
          1   -1    0    0  501    0  0.00000000000E+00  0.00000000000E+00  0.63791694951E+03  0.63791694951E+03  0.00000000000E+00 0. -1.
         -1   -1    0    0    0  501 -0.00000000000E+00 -0.00000000000E+00 -0.10156981358E+04  0.10156981358E+04  0.00000000000E+00 0.  1.
         23    2    1    2    0    0 -0.35404747014E+03 -0.60307778305E+03 -0.59344930592E+03  0.92179190899E+03  0.92009897685E+02 0.  0.
         11    1    3    3    0    0 -0.10439740934E+03 -0.26706369290E+03 -0.24187437470E+03  0.37513337398E+03  0.00000000000E+00 0.  1.
        -11    1    3    3    0    0 -0.24965006079E+03 -0.33601409015E+03 -0.35157493122E+03  0.54665853501E+03  0.00000000000E+00 0. -1.
         22    1    1    2    0    0  0.35404747014E+03  0.60307778305E+03  0.21566811965E+03  0.73182317629E+03  0.00000000000E+00 0. -1.
<mgrwt>
<rscale>  0 0.16098833E+04</rscale>
<asrwt>0</asrwt>
<pdfrwt beam="1">  1        1 0.98141070E-01 0.16098833E+04</pdfrwt>
<pdfrwt beam="2">  1       -1 0.15626125E+00 0.16098833E+04</pdfrwt>
<totfact> 0.93696271E+00</totfact>
</mgrwt>
</event>
<event>
 6    1  0.1762360E-005  0.2276385E+04  0.7818608E-02  0.8487291E-01
         -1   -1    0    0    0  501 -0.00000000000E+00  0.00000000000E+00  0.11582965623E+04  0.11582965623E+04  0.00000000000E+00 0.  1.
          1   -1    0    0  501    0  0.00000000000E+00 -0.00000000000E+00 -0.11184377010E+04  0.11184377010E+04  0.00000000000E+00 0. -1.
         23    2    1    2    0    0 -0.71559479431E+03  0.87237484618E+03 -0.11486080003E+03  0.11378523749E+04  0.91658288718E+02 0.  0.
         11    1    3    3    0    0 -0.49517843151E+03  0.55713457769E+03 -0.10772847836E+03  0.75313082644E+03  0.00000000000E+00 0.  1.
        -11    1    3    3    0    0 -0.22041636280E+03  0.31524026850E+03 -0.71323216724E+01  0.38472154851E+03  0.00000000000E+00 0. -1.
         22    1    1    2    0    0  0.71559479431E+03 -0.87237484618E+03  0.15471966135E+03  0.11388818883E+04  0.00000000000E+00 0. -1.
<mgrwt>
<rscale>  0 0.22763853E+04</rscale>
<asrwt>0</asrwt>
<pdfrwt beam="1">  1        1 0.17206734E+00 0.22763853E+04</pdfrwt>
<pdfrwt beam="2">  1       -1 0.17819947E+00 0.22763853E+04</pdfrwt>
<totfact> 0.23850508E+00</totfact>
</mgrwt>
</event>
<event>
 6    1  0.1762360E-005  0.5169373E+04  0.7818608E-02  0.7802898E-01
         -2   -1    0    0    0  501 -0.00000000000E+00  0.00000000000E+00  0.16725315109E+04  0.16725315109E+04  0.00000000000E+00 0.  1.
          2   -1    0    0  501    0  0.00000000000E+00 -0.00000000000E+00 -0.39943064739E+04  0.39943064739E+04  0.00000000000E+00 0. -1.
         23    2    1    2    0    0 -0.22700232029E+04  0.98516534594E+03 -0.34667767712E+03  0.25006785780E+04  0.98243768536E+02 0.  0.
         13    1    3    3    0    0 -0.67360664435E+03  0.33157349780E+03 -0.13270625172E+03  0.76242891144E+03  0.00000000000E+00 0.  1.
        -13    1    3    3    0    0 -0.15964165585E+04  0.65359184814E+03 -0.21397142540E+03  0.17382496665E+04  0.00000000000E+00 0. -1.
         22    1    1    2    0    0  0.22700232029E+04 -0.98516534594E+03 -0.19750972859E+04  0.31661594068E+04  0.00000000000E+00 0. -1.
<mgrwt>
<rscale>  0 0.51693727E+04</rscale>
<asrwt>0</asrwt>
<pdfrwt beam="1">  1        2 0.61450868E+00 0.51693727E+04</pdfrwt>
<pdfrwt beam="2">  1       -2 0.25731254E+00 0.51693727E+04</pdfrwt>
<totfact> 0.14324668E-02</totfact>
</mgrwt>
</event>
<event>
 6    1  0.1762360E-005  0.7403363E+03  0.7818608E-02  0.9650634E-01
          1   -1    0    0  501    0  0.00000000000E+00  0.00000000000E+00  0.98172961644E+03  0.98172961644E+03  0.00000000000E+00 0. -1.
         -1   -1    0    0    0  501 -0.00000000000E+00 -0.00000000000E+00 -0.13957453403E+03  0.13957453403E+03  0.00000000000E+00 0.  1.
         23    2    1    2    0    0  0.34297286745E+03  0.98634449692E+02  0.54031628457E+03  0.65390089593E+03  0.91025006736E+02 0.  0.
         13    1    3    3    0    0  0.28611005970E+03  0.86690437671E+02  0.50208085612E+03  0.58434526124E+03  0.00000000000E+00 0. -1.
        -13    1    3    3    0    0  0.56862807755E+02  0.11944012021E+02  0.38235428443E+02  0.69555634690E+02  0.00000000000E+00 0.  1.
         22    1    1    2    0    0 -0.34297286745E+03 -0.98634449692E+02  0.30183879784E+03  0.46740325454E+03  0.00000000000E+00 0. -1.
<mgrwt>
<rscale>  0 0.74033629E+03</rscale>
<asrwt>0</asrwt>
<pdfrwt beam="1">  1        1 0.15103532E+00 0.74033629E+03</pdfrwt>
<pdfrwt beam="2">  1       -1 0.21473006E-01 0.74033629E+03</pdfrwt>
<totfact> 0.28706151E+02</totfact>
</mgrwt>
</event>
<event>
 6    1  0.1762360E-005  0.1628974E+04  0.7818608E-02  0.8802943E-01
         -1   -1    0    0    0  501 -0.00000000000E+00  0.00000000000E+00  0.26566093376E+04  0.26566093376E+04  0.00000000000E+00 0.  1.
          1   -1    0    0  501    0  0.00000000000E+00 -0.00000000000E+00 -0.24971260509E+03  0.24971260509E+03  0.00000000000E+00 0. -1.
         23    2    1    2    0    0  0.74942231007E+03  0.10828610691E+03  0.68463875529E+03  0.10249574858E+04  0.91912689896E+02 0.  0.
         11    1    3    3    0    0  0.41421800720E+03  0.67485862140E+02  0.31830970565E+03  0.52673709551E+03  0.00000000000E+00 0. -1.
        -11    1    3    3    0    0  0.33520430287E+03  0.40800244773E+02  0.36632904964E+03  0.49822039024E+03  0.00000000000E+00 0.  1.
         22    1    1    2    0    0 -0.74942231007E+03 -0.10828610691E+03  0.17222579773E+04  0.18813644570E+04  0.00000000000E+00 0.  1.
<mgrwt>
<rscale>  0 0.16289737E+04</rscale>
<asrwt>0</asrwt>
<pdfrwt beam="1">  1        1 0.38417326E-01 0.16289737E+04</pdfrwt>
<pdfrwt beam="2">  1       -1 0.40870911E+00 0.16289737E+04</pdfrwt>
<totfact> 0.66809521E-01</totfact>
</mgrwt>
</event>
<event>
 6    1  0.1762360E-005  0.6943334E+04  0.7818608E-02  0.7583308E-01
         -2   -1    0    0    0  501 -0.00000000000E+00  0.00000000000E+00  0.26808916229E+04  0.26808916229E+04  0.00000000000E+00 0.  1.
          2   -1    0    0  501    0  0.00000000000E+00 -0.00000000000E+00 -0.44956949702E+04  0.44956949702E+04  0.00000000000E+00 0. -1.
         23    2    1    2    0    0 -0.15363431051E+04 -0.27330409733E+04  0.63212528734E+03  0.31994867904E+04  0.85265728672E+02 0.  0.
         13    1    3    3    0    0 -0.64771962944E+03 -0.11094845515E+04  0.29608199493E+03  0.13183934299E+04  0.00000000000E+00 0. -1.
        -13    1    3    3    0    0 -0.88862347562E+03 -0.16235564218E+04  0.33604329241E+03  0.18810933604E+04  0.00000000000E+00 0.  1.
         22    1    1    2    0    0  0.15363431051E+04  0.27330409733E+04 -0.24469286346E+04  0.39770998028E+04  0.00000000000E+00 0. -1.
<mgrwt>
<rscale>  0 0.69433338E+04</rscale>
<asrwt>0</asrwt>
<pdfrwt beam="1">  1        2 0.69164538E+00 0.69433338E+04</pdfrwt>
<pdfrwt beam="2">  1       -2 0.41244487E+00 0.69433338E+04</pdfrwt>
<totfact> 0.47355096E-04</totfact>
</mgrwt>
</event>
<event>
 6    1  0.1762360E-005  0.1469079E+04  0.7818608E-02  0.8905280E-01
          2   -1    0    0  501    0  0.00000000000E+00  0.00000000000E+00  0.12838324452E+04  0.12838324452E+04  0.00000000000E+00 0. -1.
         -2   -1    0    0    0  501 -0.00000000000E+00 -0.00000000000E+00 -0.42026366945E+03  0.42026366945E+03  0.00000000000E+00 0.  1.
         23    2    1    2    0    0 -0.35793798071E+03 -0.63490446733E+03  0.36863253314E+03  0.82308240027E+03  0.10174189147E+03 0.  0.
         13    1    3    3    0    0 -0.14571171411E+03 -0.33409690040E+03  0.22228061698E+03  0.42692073641E+03  0.00000000000E+00 0.  1.
        -13    1    3    3    0    0 -0.21222626660E+03 -0.30080756692E+03  0.14635191616E+03  0.39616166387E+03  0.00000000000E+00 0. -1.
         22    1    1    2    0    0  0.35793798071E+03  0.63490446733E+03  0.49493624259E+03  0.88101371436E+03  0.00000000000E+00 0.  1.
<mgrwt>
<rscale>  0 0.14690788E+04</rscale>
<asrwt>0</asrwt>
<pdfrwt beam="1">  1        2 0.19751268E+00 0.14690788E+04</pdfrwt>
<pdfrwt beam="2">  1       -2 0.64655950E-01 0.14690788E+04</pdfrwt>
<totfact> 0.36130004E+01</totfact>
</mgrwt>
</event>
<event>
 6    1  0.1762360E-005  0.1836163E+04  0.7818608E-02  0.8687302E-01
          1   -1    0    0  501    0  0.00000000000E+00  0.00000000000E+00  0.82602674648E+03  0.82602674648E+03  0.00000000000E+00 0. -1.
         -1   -1    0    0    0  501 -0.00000000000E+00 -0.00000000000E+00 -0.10203946187E+04  0.10203946187E+04  0.00000000000E+00 0.  1.
         23    2    1    2    0    0  0.37654892400E+03  0.54643042815E+03  0.53706547808E+03  0.85881311749E+03  0.93516512225E+02 0.  0.
         13    1    3    3    0    0  0.84207633970E+02  0.70769763162E+02  0.11310223581E+03  0.15777008824E+03  0.00000000000E+00 0.  1.
        -13    1    3    3    0    0  0.29234129003E+03  0.47566066499E+03  0.42396324227E+03  0.70104302926E+03  0.00000000000E+00 0. -1.
         22    1    1    2    0    0 -0.37654892400E+03 -0.54643042815E+03 -0.73143335034E+03  0.98760824772E+03  0.00000000000E+00 0.  1.
<mgrwt>
<rscale>  0 0.18361626E+04</rscale>
<asrwt>0</asrwt>
<pdfrwt beam="1">  1        1 0.12708104E+00 0.18361626E+04</pdfrwt>
<pdfrwt beam="2">  1       -1 0.15698379E+00 0.18361626E+04</pdfrwt>
<totfact> 0.60847716E+00</totfact>
</mgrwt>
</event>
<event>
 6    1  0.1762360E-005  0.4684208E+04  0.7818608E-02  0.7879158E-01
          2   -1    0    0  501    0  0.00000000000E+00  0.00000000000E+00  0.39096691044E+04  0.39096691044E+04  0.00000000000E+00 0. -1.
         -2   -1    0    0    0  501 -0.00000000000E+00 -0.00000000000E+00 -0.14030474125E+04  0.14030474125E+04  0.00000000000E+00 0.  1.
         23    2    1    2    0    0  0.10491235897E+04 -0.13744932084E+04 -0.53638110757E+03  0.18127510993E+04  0.92032434586E+02 0.  0.
         13    1    3    3    0    0  0.71647599994E+03 -0.94826918677E+03 -0.41264783026E+03  0.12581059339E+04  0.00000000000E+00 0.  1.
        -13    1    3    3    0    0  0.33264758980E+03 -0.42622402167E+03 -0.12373327731E+03  0.55464516546E+03  0.00000000000E+00 0. -1.
         22    1    1    2    0    0 -0.10491235897E+04  0.13744932084E+04  0.30430027995E+04  0.34999654176E+04  0.00000000000E+00 0. -1.
<mgrwt>
<rscale>  0 0.46842080E+04</rscale>
<asrwt>0</asrwt>
<pdfrwt beam="1">  1        2 0.60148755E+00 0.46842080E+04</pdfrwt>
<pdfrwt beam="2">  1       -2 0.21585345E+00 0.46842080E+04</pdfrwt>
<totfact> 0.31548238E-02</totfact>
</mgrwt>
</event>
<event>
 6    1  0.1762360E-005  0.3094570E+04  0.7818608E-02  0.8217230E-01
         -1   -1    0    0    0  501 -0.00000000000E+00  0.00000000000E+00  0.11503777837E+04  0.11503777837E+04  0.00000000000E+00 0.  1.
          1   -1    0    0  501    0  0.00000000000E+00 -0.00000000000E+00 -0.20811339317E+04  0.20811339317E+04  0.00000000000E+00 0. -1.
         23    2    1    2    0    0  0.71238696204E+03  0.13486913312E+04 -0.72863123873E+03  0.16929026132E+04  0.92478565672E+02 0.  0.
         11    1    3    3    0    0  0.50867844958E+03  0.97163148963E+03 -0.47747170925E+03  0.11961608378E+04  0.00000000000E+00 0.  1.
        -11    1    3    3    0    0  0.20370851246E+03  0.37705984156E+03 -0.25115952949E+03  0.49674177539E+03  0.00000000000E+00 0. -1.
         22    1    1    2    0    0 -0.71238696204E+03 -0.13486913312E+04 -0.20212490927E+03  0.15386091022E+04  0.00000000000E+00 0.  1.
<mgrwt>
<rscale>  0 0.30945696E+04</rscale>
<asrwt>0</asrwt>
<pdfrwt beam="1">  1        1 0.32017445E+00 0.30945696E+04</pdfrwt>
<pdfrwt beam="2">  1       -1 0.17698120E+00 0.30945696E+04</pdfrwt>
<totfact> 0.48486866E-01</totfact>
</mgrwt>
</event>
<event>
 6    1  0.1762360E-005  0.2720756E+03  0.7818608E-02  0.1100098E+00
         -2   -1    0    0    0  501 -0.00000000000E+00  0.00000000000E+00  0.18026069068E+02  0.18026069068E+02  0.00000000000E+00 0.  1.
          2   -1    0    0  501    0  0.00000000000E+00 -0.00000000000E+00 -0.10266399615E+04  0.10266399615E+04  0.00000000000E+00 0. -1.
         23    2    1    2    0    0 -0.13703858964E+02  0.11391089864E+03 -0.41710516774E+03  0.44213299416E+03  0.91331128251E+02 0.  0.
         11    1    3    3    0    0  0.29613061146E+02  0.86951355498E+02 -0.31295720667E+03  0.32615898703E+03  0.00000000000E+00 0. -1.
        -11    1    3    3    0    0 -0.43316920109E+02  0.26959543142E+02 -0.10414796106E+03  0.11597400712E+03  0.00000000000E+00 0.  1.
         22    1    1    2    0    0  0.13703858964E+02 -0.11391089864E+03 -0.59150872471E+03  0.60253303642E+03  0.00000000000E+00 0. -1.
<mgrwt>
<rscale>  0 0.27207560E+03</rscale>
<asrwt>0</asrwt>
<pdfrwt beam="1">  1        2 0.15794463E+00 0.27207560E+03</pdfrwt>
<pdfrwt beam="2">  1       -2 0.27732410E-02 0.27207560E+03</pdfrwt>
<totfact> 0.12009354E+04</totfact>
</mgrwt>
</event>
<event>
 6    1  0.1762360E-005  0.2200719E+04  0.7818608E-02  0.8518129E-01
         -1   -1    0    0    0  501 -0.00000000000E+00  0.00000000000E+00  0.10153386095E+04  0.10153386095E+04  0.00000000000E+00 0.  1.
          1   -1    0    0  501    0  0.00000000000E+00 -0.00000000000E+00 -0.11924998442E+04  0.11924998442E+04  0.00000000000E+00 0. -1.
         23    2    1    2    0    0 -0.30889156622E+03  0.66580489308E+03  0.73118291082E+03  0.10400202992E+04  0.91124191790E+02 0.  0.
         11    1    3    3    0    0 -0.18471765546E+03  0.44859901156E+03  0.42816267752E+03  0.64705870200E+03  0.00000000000E+00 0. -1.
        -11    1    3    3    0    0 -0.12417391076E+03  0.21720588152E+03  0.30302023331E+03  0.39296159720E+03  0.00000000000E+00 0.  1.
         22    1    1    2    0    0  0.30889156622E+03 -0.66580489308E+03 -0.90834414556E+03  0.11678181546E+04  0.00000000000E+00 0. -1.
<mgrwt>
<rscale>  0 0.22007191E+04</rscale>
<asrwt>0</asrwt>
<pdfrwt beam="1">  1        1 0.18346151E+00 0.22007191E+04</pdfrwt>
<pdfrwt beam="2">  1       -1 0.15620594E+00 0.22007191E+04</pdfrwt>
<totfact> 0.30821843E+00</totfact>
</mgrwt>
</event>
<event>
 6    1  0.1762360E-005  0.4390576E+04  0.7818608E-02  0.7930079E-01
          2   -1    0    0  501    0  0.00000000000E+00  0.00000000000E+00  0.28152594913E+04  0.28152594913E+04  0.00000000000E+00 0. -1.
         -2   -1    0    0    0  501 -0.00000000000E+00 -0.00000000000E+00 -0.17118452024E+04  0.17118452024E+04  0.00000000000E+00 0.  1.
         23    2    1    2    0    0  0.60666365387E+03 -0.24207744661E+03  0.27121664634E+04  0.27908081066E+04  0.78234796545E+02 0.  0.
         13    1    3    3    0    0  0.33066325666E+03 -0.16405846918E+03  0.14199397497E+04  0.14671340305E+04  0.00000000000E+00 0. -1.
        -13    1    3    3    0    0  0.27600039721E+03 -0.78018977436E+02  0.12922267137E+04  0.13236740761E+04  0.00000000000E+00 0.  1.
         22    1    1    2    0    0 -0.60666365387E+03  0.24207744661E+03 -0.16087521746E+04  0.17362965871E+04  0.00000000000E+00 0.  1.
<mgrwt>
<rscale>  0 0.43905756E+04</rscale>
<asrwt>0</asrwt>
<pdfrwt beam="1">  1        2 0.43311685E+00 0.43905756E+04</pdfrwt>
<pdfrwt beam="2">  1       -2 0.26336080E+00 0.43905756E+04</pdfrwt>
<totfact> 0.92058152E-02</totfact>
</mgrwt>
</event>
<event>
 6    1  0.1762360E-005  0.1910458E+04  0.7818608E-02  0.8649668E-01
          1   -1    0    0  501    0  0.00000000000E+00  0.00000000000E+00  0.44070513682E+03  0.44070513682E+03  0.00000000000E+00 0. -1.
         -1   -1    0    0    0  501 -0.00000000000E+00 -0.00000000000E+00 -0.20704604437E+04  0.20704604437E+04  0.00000000000E+00 0.  1.
         23    2    1    2    0    0  0.69368918912E+03 -0.42892982904E+03 -0.16872175519E+03  0.83790393676E+03  0.91817684707E+02 0.  0.
         13    1    3    3    0    0  0.55609604854E+03 -0.38453552756E+03 -0.13500409091E+03  0.68944651114E+03  0.00000000000E+00 0.  1.
        -13    1    3    3    0    0  0.13759314058E+03 -0.44394301482E+02 -0.33717664285E+02  0.14845742563E+03  0.00000000000E+00 0. -1.
         22    1    1    2    0    0 -0.69368918912E+03  0.42892982904E+03 -0.14610335517E+04  0.16732616438E+04  0.00000000000E+00 0.  1.
<mgrwt>
<rscale>  0 0.19104581E+04</rscale>
<asrwt>0</asrwt>
<pdfrwt beam="1">  1        1 0.67800790E-01 0.19104581E+04</pdfrwt>
<pdfrwt beam="2">  1       -1 0.31853238E+00 0.19104581E+04</pdfrwt>
<totfact> 0.12335337E+00</totfact>
</mgrwt>
</event>
<event>
 6    1  0.1762360E-005  0.6332083E+03  0.7818608E-02  0.9838808E-01
         -2   -1    0    0    0  501 -0.00000000000E+00  0.00000000000E+00  0.60687997214E+02  0.60687997214E+02  0.00000000000E+00 0.  1.
          2   -1    0    0  501    0  0.00000000000E+00 -0.00000000000E+00 -0.16516969310E+04  0.16516969310E+04  0.00000000000E+00 0. -1.
         23    2    1    2    0    0  0.16073533485E+03 -0.16896628971E+03 -0.13648678826E+04  0.13875384569E+04  0.89516352422E+02 0.  0.
         11    1    3    3    0    0  0.62664292609E+01 -0.49264358820E+02 -0.40069790552E+03  0.40376361485E+03  0.00000000000E+00 0. -1.
        -11    1    3    3    0    0  0.15446890559E+03 -0.11970193089E+03 -0.96416997710E+03  0.98377484203E+03  0.00000000000E+00 0.  1.
         22    1    1    2    0    0 -0.16073533485E+03  0.16896628971E+03 -0.22614105120E+03  0.32484647138E+03  0.00000000000E+00 0. -1.
<mgrwt>
<rscale>  0 0.63320827E+03</rscale>
<asrwt>0</asrwt>
<pdfrwt beam="1">  1        2 0.25410720E+00 0.63320827E+03</pdfrwt>
<pdfrwt beam="2">  1       -2 0.93366155E-02 0.63320827E+03</pdfrwt>
<totfact> 0.81784802E+02</totfact>
</mgrwt>
</event>
<event>
 6    1  0.1762360E-005  0.4082194E+04  0.7818608E-02  0.7988168E-01
         -2   -1    0    0    0  501 -0.00000000000E+00  0.00000000000E+00  0.22555349249E+04  0.22555349249E+04  0.00000000000E+00 0. -1.
          2   -1    0    0  501    0  0.00000000000E+00 -0.00000000000E+00 -0.18470461070E+04  0.18470461070E+04  0.00000000000E+00 0.  1.
         23    2    1    2    0    0 -0.78825043339E+03  0.15328654568E+04 -0.89231694105E+03  0.19431572947E+04  0.92819687313E+02 0.  0.
         11    1    3    3    0    0 -0.63051525310E+03  0.11950409124E+04 -0.65876081855E+03  0.15032092611E+04  0.00000000000E+00 0. -1.
        -11    1    3    3    0    0 -0.15773518030E+03  0.33782454440E+03 -0.23355612251E+03  0.43994803360E+03  0.00000000000E+00 0.  1.
         22    1    1    2    0    0  0.78825043339E+03 -0.15328654568E+04  0.13008057589E+04  0.21594237372E+04  0.00000000000E+00 0. -1.
<mgrwt>
<rscale>  0 0.40821940E+04</rscale>
<asrwt>0</asrwt>
<pdfrwt beam="1">  1        2 0.28416094E+00 0.40821940E+04</pdfrwt>
<pdfrwt beam="2">  1       -2 0.34700537E+00 0.40821940E+04</pdfrwt>
<totfact> 0.10344549E-01</totfact>
</mgrwt>
</event>
<event>
 6    1  0.1762360E-005  0.2191474E+04  0.7818608E-02  0.8521985E-01
          2   -1    0    0  501    0  0.00000000000E+00  0.00000000000E+00  0.71838975207E+03  0.71838975207E+03  0.00000000000E+00 0. -1.
         -2   -1    0    0    0  501 -0.00000000000E+00 -0.00000000000E+00 -0.16712923420E+04  0.16712923420E+04  0.00000000000E+00 0.  1.
         23    2    1    2    0    0 -0.59063826072E+03  0.85309106997E+03 -0.85475467344E+03  0.13474484627E+04  0.91618116475E+02 0.  0.
         13    1    3    3    0    0 -0.35131186336E+03  0.42711132984E+03 -0.45278477288E+03  0.71474342527E+03  0.00000000000E+00 0. -1.
        -13    1    3    3    0    0 -0.23932639736E+03  0.42597974013E+03 -0.40196990056E+03  0.63270503746E+03  0.00000000000E+00 0.  1.
         22    1    1    2    0    0  0.59063826072E+03 -0.85309106997E+03 -0.98147916447E+02  0.10422336313E+04  0.00000000000E+00 0.  1.
<mgrwt>
<rscale>  0 0.21914737E+04</rscale>
<asrwt>0</asrwt>
<pdfrwt beam="1">  1        2 0.11052150E+00 0.21914737E+04</pdfrwt>
<pdfrwt beam="2">  1       -2 0.25712190E+00 0.21914737E+04</pdfrwt>
<totfact> 0.21065502E+00</totfact>
</mgrwt>
</event>
<event>
 6    1  0.1881756E-005  0.4488173E+04  0.7818608E-02  0.7912711E-01
          2   -1    0    0  501    0  0.00000000000E+00  0.00000000000E+00  0.21769855671E+04  0.21769855671E+04  0.00000000000E+00 0. -1.
         -2   -1    0    0    0  501 -0.00000000000E+00 -0.00000000000E+00 -0.23132555208E+04  0.23132555208E+04  0.00000000000E+00 0.  1.
         23    2    1    2    0    0  0.45308008987E+03  0.10528308646E+03  0.21273188183E+04  0.21793537638E+04  0.87928249540E+02 0.  0.
         13    1    3    3    0    0  0.16812098394E+03  0.22584670228E+02  0.60198355593E+03  0.62542700148E+03  0.00000000000E+00 0.  1.
        -13    1    3    3    0    0  0.28495910594E+03  0.82698416236E+02  0.15253352623E+04  0.15539267623E+04  0.00000000000E+00 0. -1.
         22    1    1    2    0    0 -0.45308008987E+03 -0.10528308646E+03 -0.22635887719E+04  0.23108873241E+04  0.00000000000E+00 0.  1.
<mgrwt>
<rscale>  0 0.44881728E+04</rscale>
<asrwt>0</asrwt>
<pdfrwt beam="1">  1        2 0.33492086E+00 0.44881728E+04</pdfrwt>
<pdfrwt beam="2">  1       -2 0.35588546E+00 0.44881728E+04</pdfrwt>
<totfact> 0.57620571E-02</totfact>
</mgrwt>
</event>
<event>
 6    1  0.1762360E-005  0.2242178E+04  0.7818608E-02  0.8501075E-01
          2   -1    0    0  501    0  0.00000000000E+00  0.00000000000E+00  0.13065727858E+04  0.13065727858E+04  0.00000000000E+00 0. -1.
         -2   -1    0    0    0  501 -0.00000000000E+00 -0.00000000000E+00 -0.96193648141E+03  0.96193648141E+03  0.00000000000E+00 0.  1.
         23    2    1    2    0    0  0.42575979817E+03 -0.28246396840E+03 -0.83483091930E+03  0.98312985592E+03  0.92435656526E+02 0.  0.
         11    1    3    3    0    0  0.13310927908E+03 -0.12969168133E+03 -0.35499255595E+03  0.40069655247E+03  0.00000000000E+00 0. -1.
        -11    1    3    3    0    0  0.29265051909E+03 -0.15277228708E+03 -0.47983836335E+03  0.58243330345E+03  0.00000000000E+00 0.  1.
         22    1    1    2    0    0 -0.42575979817E+03  0.28246396840E+03  0.11794672237E+04  0.12853794113E+04  0.00000000000E+00 0. -1.
<mgrwt>
<rscale>  0 0.22421775E+04</rscale>
<asrwt>0</asrwt>
<pdfrwt beam="1">  1        2 0.20101120E+00 0.22421775E+04</pdfrwt>
<pdfrwt beam="2">  1       -2 0.14799023E+00 0.22421775E+04</pdfrwt>
<totfact> 0.46354067E+00</totfact>
</mgrwt>
</event>
<event>
 6    1  0.1762360E-005  0.2389188E+04  0.7818608E-02  0.8443563E-01
          1   -1    0    0  501    0  0.00000000000E+00  0.00000000000E+00  0.82050950608E+03  0.82050950608E+03  0.00000000000E+00 0. -1.
         -1   -1    0    0    0  501 -0.00000000000E+00 -0.00000000000E+00 -0.17392294881E+04  0.17392294881E+04  0.00000000000E+00 0.  1.
         23    2    1    2    0    0 -0.50954156709E+03 -0.68451212122E+03  0.43290404225E+03  0.96127818587E+03  0.91980368225E+02 0.  0.
         13    1    3    3    0    0 -0.45882484996E+03 -0.61667482167E+03  0.35682436464E+03  0.84742651942E+03  0.00000000000E+00 0. -1.
        -13    1    3    3    0    0 -0.50716717122E+02 -0.67837299558E+02  0.76079677612E+02  0.11385166645E+03  0.00000000000E+00 0.  1.
         22    1    1    2    0    0  0.50954156709E+03  0.68451212122E+03 -0.13516240242E+04  0.15984608083E+04  0.00000000000E+00 0.  1.
<mgrwt>
<rscale>  0 0.23891876E+04</rscale>
<asrwt>0</asrwt>
<pdfrwt beam="1">  1        1 0.12623223E+00 0.23891876E+04</pdfrwt>
<pdfrwt beam="2">  1       -1 0.26757376E+00 0.23891876E+04</pdfrwt>
<totfact> 0.10198531E+00</totfact>
</mgrwt>
</event>
<event>
 6    1  0.1762360E-005  0.4305199E+04  0.7818608E-02  0.7945657E-01
          2   -1    0    0  501    0  0.00000000000E+00  0.00000000000E+00  0.22871296404E+04  0.22871296404E+04  0.00000000000E+00 0. -1.
         -2   -1    0    0    0  501 -0.00000000000E+00 -0.00000000000E+00 -0.20259824540E+04  0.20259824540E+04  0.00000000000E+00 0.  1.
         23    2    1    2    0    0 -0.70524684737E+03  0.11792322103E+04 -0.15288377542E+04  0.20565643309E+04  0.64422408446E+02 0.  0.
         11    1    3    3    0    0 -0.14146195643E+03  0.21842094051E+03 -0.25530172913E+03  0.36455200626E+03  0.00000000000E+00 0.  1.
        -11    1    3    3    0    0 -0.56378489094E+03  0.96081126979E+03 -0.12735360251E+04  0.16920123246E+04  0.00000000000E+00 0. -1.
         22    1    1    2    0    0  0.70524684737E+03 -0.11792322103E+04  0.17899849406E+04  0.22565477635E+04  0.00000000000E+00 0. -1.
<mgrwt>
<rscale>  0 0.43051990E+04</rscale>
<asrwt>0</asrwt>
<pdfrwt beam="1">  1        2 0.35186610E+00 0.43051990E+04</pdfrwt>
<pdfrwt beam="2">  1       -2 0.31168961E+00 0.43051990E+04</pdfrwt>
<totfact> 0.95613758E-02</totfact>
</mgrwt>
</event>
<event>
 6    1  0.1762360E-005  0.6586709E+03  0.7818608E-02  0.9790644E-01
          2   -1    0    0  501    0  0.00000000000E+00  0.00000000000E+00  0.41232602446E+03  0.41232602446E+03  0.00000000000E+00 0. -1.
         -2   -1    0    0    0  501 -0.00000000000E+00 -0.00000000000E+00 -0.26304870693E+03  0.26304870693E+03  0.00000000000E+00 0.  1.
         23    2    1    2    0    0  0.40595953709E+02  0.15385338780E+03  0.36372369847E+03  0.40834262341E+03  0.95550368220E+02 0.  0.
         13    1    3    3    0    0  0.42736213756E+02  0.92536297984E+02  0.31156383580E+03  0.32781301711E+03  0.00000000000E+00 0. -1.
        -13    1    3    3    0    0 -0.21402600463E+01  0.61317089813E+02  0.52159862679E+02  0.80529606300E+02  0.00000000000E+00 0.  1.
         22    1    1    2    0    0 -0.40595953709E+02 -0.15385338780E+03 -0.21444638094E+03  0.26703210798E+03  0.00000000000E+00 0.  1.
<mgrwt>
<rscale>  0 0.65867087E+03</rscale>
<asrwt>0</asrwt>
<pdfrwt beam="1">  1        2 0.63434773E-01 0.65867087E+03</pdfrwt>
<pdfrwt beam="2">  1       -2 0.40469032E-01 0.65867087E+03</pdfrwt>
<totfact> 0.44778711E+02</totfact>
</mgrwt>
</event>
<event>
 6    1  0.1762360E-005  0.5088704E+04  0.7818608E-02  0.7814968E-01
         -2   -1    0    0    0  501 -0.00000000000E+00  0.00000000000E+00  0.22704931279E+04  0.22704931279E+04  0.00000000000E+00 0.  1.
          2   -1    0    0  501    0  0.00000000000E+00 -0.00000000000E+00 -0.28512426792E+04  0.28512426792E+04  0.00000000000E+00 0. -1.
         23    2    1    2    0    0 -0.16795126461E+04  0.14097360992E+04 -0.15877844887E+04  0.27088044026E+04  0.91886403107E+02 0.  0.
         11    1    3    3    0    0 -0.10971593908E+04  0.92843085881E+03 -0.10937300458E+04  0.18060974507E+04  0.00000000000E+00 0. -1.
        -11    1    3    3    0    0 -0.58235325528E+03  0.48130524038E+03 -0.49405444290E+03  0.90270695185E+03  0.00000000000E+00 0.  1.
         22    1    1    2    0    0  0.16795126461E+04 -0.14097360992E+04  0.10070349375E+04  0.24129314045E+04  0.00000000000E+00 0.  1.
<mgrwt>
<rscale>  0 0.50887039E+04</rscale>
<asrwt>0</asrwt>
<pdfrwt beam="1">  1        2 0.43865272E+00 0.50887039E+04</pdfrwt>
<pdfrwt beam="2">  1       -2 0.34930664E+00 0.50887039E+04</pdfrwt>
<totfact> 0.24448985E-02</totfact>
</mgrwt>
</event>
<event>
 6    1  0.1762360E-005  0.3187372E+04  0.7818608E-02  0.8192160E-01
         -2   -1    0    0    0  501 -0.00000000000E+00  0.00000000000E+00  0.27280644653E+04  0.27280644653E+04  0.00000000000E+00 0.  1.
          2   -1    0    0  501    0  0.00000000000E+00 -0.00000000000E+00 -0.93100241263E+03  0.93100241263E+03  0.00000000000E+00 0. -1.
         23    2    1    2    0    0 -0.77045625771E+03  0.12763992855E+04  0.25652584186E+03  0.15152269124E+04  0.85493317504E+02 0.  0.
         13    1    3    3    0    0 -0.63076038249E+03  0.10377554263E+04  0.17514792125E+03  0.12269766825E+04  0.00000000000E+00 0. -1.
        -13    1    3    3    0    0 -0.13969587522E+03  0.23864385916E+03  0.81377920609E+02  0.28825022989E+03  0.00000000000E+00 0.  1.
         22    1    1    2    0    0  0.77045625771E+03 -0.12763992855E+04  0.15405362108E+04  0.21438399655E+04  0.00000000000E+00 0.  1.
<mgrwt>
<rscale>  0 0.31873717E+04</rscale>
<asrwt>0</asrwt>
<pdfrwt beam="1">  1        2 0.14323114E+00 0.31873717E+04</pdfrwt>
<pdfrwt beam="2">  1       -2 0.41970222E+00 0.31873717E+04</pdfrwt>
<totfact> 0.12961654E-01</totfact>
</mgrwt>
</event>
<event>
 6    1  0.1762360E-005  0.2077443E+04  0.7818608E-02  0.8571245E-01
          2   -1    0    0  501    0  0.00000000000E+00  0.00000000000E+00  0.18655621959E+04  0.18655621959E+04  0.00000000000E+00 0. -1.
         -2   -1    0    0    0  501 -0.00000000000E+00 -0.00000000000E+00 -0.57834708235E+03  0.57834708235E+03  0.00000000000E+00 0.  1.
         23    2    1    2    0    0  0.99479742419E+03  0.15708305685E+03  0.35559932065E+03  0.10719745176E+04  0.91550464670E+02 0.  0.
         13    1    3    3    0    0  0.56209825039E+03  0.79292433004E+02  0.24732134310E+03  0.61920075886E+03  0.00000000000E+00 0. -1.
        -13    1    3    3    0    0  0.43269917381E+03  0.77790623842E+02  0.10827797755E+03  0.45277375873E+03  0.00000000000E+00 0.  1.
         22    1    1    2    0    0 -0.99479742419E+03 -0.15708305685E+03  0.93161579293E+03  0.13719347607E+04  0.00000000000E+00 0. -1.
<mgrwt>
<rscale>  0 0.20774431E+04</rscale>
<asrwt>0</asrwt>
<pdfrwt beam="1">  1        2 0.28700957E+00 0.20774431E+04</pdfrwt>
<pdfrwt beam="2">  1       -2 0.88976475E-01 0.20774431E+04</pdfrwt>
<totfact> 0.79488278E+00</totfact>
</mgrwt>
</event>
<event>
 6    1  0.1762360E-005  0.2094656E+04  0.7818608E-02  0.8563601E-01
         -1   -1    0    0    0  501 -0.00000000000E+00  0.00000000000E+00  0.86436832007E+03  0.86436832007E+03  0.00000000000E+00 0.  1.
          1   -1    0    0  501    0  0.00000000000E+00 -0.00000000000E+00 -0.12690150418E+04  0.12690150418E+04  0.00000000000E+00 0. -1.
         23    2    1    2    0    0 -0.97803803247E+03  0.27898621047E+03 -0.44873762865E+03  0.11153776121E+04  0.91159528171E+02 0.  0.
         13    1    3    3    0    0 -0.20097404810E+03  0.33585173857E+02 -0.59330231851E+02  0.21222301554E+03  0.00000000000E+00 0.  1.
        -13    1    3    3    0    0 -0.77706398437E+03  0.24540103661E+03 -0.38940739680E+03  0.90315459655E+03  0.00000000000E+00 0. -1.
         22    1    1    2    0    0  0.97803803247E+03 -0.27898621047E+03  0.44090906891E+02  0.10180057498E+04  0.00000000000E+00 0.  1.
<mgrwt>
<rscale>  0 0.20946564E+04</rscale>
<asrwt>0</asrwt>
<pdfrwt beam="1">  1        1 0.19523308E+00 0.20946564E+04</pdfrwt>
<pdfrwt beam="2">  1       -1 0.13297974E+00 0.20946564E+04</pdfrwt>
<totfact> 0.41945110E+00</totfact>
</mgrwt>
</event>
<event>
 6    1  0.1762360E-005  0.1100193E+04  0.7818608E-02  0.9205003E-01
         -1   -1    0    0    0  501 -0.00000000000E+00  0.00000000000E+00  0.16888120749E+03  0.16888120749E+03  0.00000000000E+00 0.  1.
          1   -1    0    0  501    0  0.00000000000E+00 -0.00000000000E+00 -0.17918297717E+04  0.17918297717E+04  0.00000000000E+00 0. -1.
         23    2    1    2    0    0  0.44023789355E+03  0.32339564431E+03 -0.84136823491E+03  0.10071586960E+04  0.89855364344E+02 0.  0.
         11    1    3    3    0    0  0.12201380906E+03  0.98821033752E+02 -0.17334878042E+03  0.23388622445E+03  0.00000000000E+00 0.  1.
        -11    1    3    3    0    0  0.31822408449E+03  0.22457461056E+03 -0.66801945449E+03  0.77327247153E+03  0.00000000000E+00 0. -1.
         22    1    1    2    0    0 -0.44023789355E+03 -0.32339564431E+03 -0.78158032933E+03  0.95355228324E+03  0.00000000000E+00 0.  1.
<mgrwt>
<rscale>  0 0.11001934E+04</rscale>
<asrwt>0</asrwt>
<pdfrwt beam="1">  1        1 0.27566612E+00 0.11001934E+04</pdfrwt>
<pdfrwt beam="2">  1       -1 0.25981724E-01 0.11001934E+04</pdfrwt>
<totfact> 0.53967600E+01</totfact>
</mgrwt>
</event>
<event>
 6    1  0.1762360E-005  0.1756609E+04  0.7818608E-02  0.8729721E-01
          2   -1    0    0  501    0  0.00000000000E+00  0.00000000000E+00  0.90279719159E+03  0.90279719159E+03  0.00000000000E+00 0. -1.
         -2   -1    0    0    0  501 -0.00000000000E+00 -0.00000000000E+00 -0.85447641655E+03  0.85447641655E+03  0.00000000000E+00 0.  1.
         23    2    1    2    0    0  0.55935525866E+03  0.47323723894E+03 -0.45601208169E+03  0.86778868974E+03  0.90985722426E+02 0.  0.
         11    1    3    3    0    0  0.11978967773E+03  0.14873915071E+03 -0.13788815028E+03  0.23555475761E+03  0.00000000000E+00 0.  1.
        -11    1    3    3    0    0  0.43956558093E+03  0.32449808823E+03 -0.31812393141E+03  0.63223393213E+03  0.00000000000E+00 0. -1.
         22    1    1    2    0    0 -0.55935525866E+03 -0.47323723894E+03  0.50433285673E+03  0.88948491841E+03  0.00000000000E+00 0. -1.
<mgrwt>
<rscale>  0 0.17566091E+04</rscale>
<asrwt>0</asrwt>
<pdfrwt beam="1">  1        2 0.13889188E+00 0.17566091E+04</pdfrwt>
<pdfrwt beam="2">  1       -2 0.13145791E+00 0.17566091E+04</pdfrwt>
<totfact> 0.11674797E+01</totfact>
</mgrwt>
</event>
<event>
 6    1  0.1762360E-005  0.2485934E+04  0.7818608E-02  0.8408014E-01
          2   -1    0    0  501    0  0.00000000000E+00  0.00000000000E+00  0.19986728007E+04  0.19986728007E+04  0.00000000000E+00 0. -1.
         -2   -1    0    0    0  501 -0.00000000000E+00 -0.00000000000E+00 -0.77299647935E+03  0.77299647935E+03  0.00000000000E+00 0.  1.
         23    2    1    2    0    0  0.32902445358E+03  0.78200269796E+03  0.16237427302E+04  0.18345235195E+04  0.95659703002E+02 0.  0.
         11    1    3    3    0    0  0.10467122986E+03  0.20996013847E+03  0.53879835772E+03  0.58765891161E+03  0.00000000000E+00 0.  1.
        -11    1    3    3    0    0  0.22435322372E+03  0.57204255949E+03  0.10849443725E+04  0.12468646079E+04  0.00000000000E+00 0. -1.
         22    1    1    2    0    0 -0.32902445358E+03 -0.78200269796E+03 -0.39806640890E+03  0.93714576057E+03  0.00000000000E+00 0.  1.
<mgrwt>
<rscale>  0 0.24859341E+04</rscale>
<asrwt>0</asrwt>
<pdfrwt beam="1">  1        2 0.30748812E+00 0.24859341E+04</pdfrwt>
<pdfrwt beam="2">  1       -2 0.11892254E+00 0.24859341E+04</pdfrwt>
<totfact> 0.32451447E+00</totfact>
</mgrwt>
</event>
<event>
 6    1  0.1762360E-005  0.9880061E+03  0.7818608E-02  0.9321798E-01
          1   -1    0    0  501    0  0.00000000000E+00  0.00000000000E+00  0.30577250178E+03  0.30577250178E+03  0.00000000000E+00 0. -1.
         -1   -1    0    0    0  501 -0.00000000000E+00 -0.00000000000E+00 -0.79810652106E+03  0.79810652106E+03  0.00000000000E+00 0.  1.
         23    2    1    2    0    0  0.43235303457E+03  0.18787771814E+03 -0.39611374022E+03  0.62274959578E+03  0.93186803642E+02 0.  0.
         13    1    3    3    0    0  0.64278151272E+02  0.41850802238E+02 -0.11049121404E+03  0.13450456780E+03  0.00000000000E+00 0. -1.
        -13    1    3    3    0    0  0.36807488330E+03  0.14602691590E+03 -0.28562252618E+03  0.48824502798E+03  0.00000000000E+00 0.  1.
         22    1    1    2    0    0 -0.43235303457E+03 -0.18787771814E+03 -0.96220279059E+02  0.48112942706E+03  0.00000000000E+00 0. -1.
<mgrwt>
<rscale>  0 0.98800613E+03</rscale>
<asrwt>0</asrwt>
<pdfrwt beam="1">  1        1 0.47041924E-01 0.98800613E+03</pdfrwt>
<pdfrwt beam="2">  1       -1 0.12278562E+00 0.98800613E+03</pdfrwt>
<totfact> 0.50214952E+01</totfact>
</mgrwt>
</event>
<event>
 6    1  0.1762360E-005  0.3406447E+04  0.7818608E-02  0.8136326E-01
          2   -1    0    0  501    0  0.00000000000E+00  0.00000000000E+00  0.37832425066E+04  0.37832425066E+04  0.00000000000E+00 0. -1.
         -2   -1    0    0    0  501 -0.00000000000E+00 -0.00000000000E+00 -0.76679464555E+03  0.76679464555E+03  0.00000000000E+00 0.  1.
         23    2    1    2    0    0 -0.88795302217E+03 -0.55405993608E+03 -0.28351178084E+03  0.10880757687E+04  0.89927561047E+02 0.  0.
         11    1    3    3    0    0 -0.37834391628E+03 -0.20394964266E+03 -0.15246335593E+03  0.45605334187E+03  0.00000000000E+00 0. -1.
        -11    1    3    3    0    0 -0.50960910590E+03 -0.35011029342E+03 -0.13104842491E+03  0.63202242685E+03  0.00000000000E+00 0.  1.
         22    1    1    2    0    0  0.88795302217E+03  0.55405993608E+03  0.32999596419E+04  0.34619613835E+04  0.00000000000E+00 0. -1.
<mgrwt>
<rscale>  0 0.34064469E+04</rscale>
<asrwt>0</asrwt>
<pdfrwt beam="1">  1        2 0.58203729E+00 0.34064469E+04</pdfrwt>
<pdfrwt beam="2">  1       -2 0.11796841E+00 0.34064469E+04</pdfrwt>
<totfact> 0.23149736E-01</totfact>
</mgrwt>
</event>
<event>
 6    1  0.1762360E-005  0.4352854E+04  0.7818608E-02  0.7936916E-01
          2   -1    0    0  501    0  0.00000000000E+00  0.00000000000E+00  0.15598436420E+04  0.15598436420E+04  0.00000000000E+00 0. -1.
         -2   -1    0    0    0  501 -0.00000000000E+00 -0.00000000000E+00 -0.30367370882E+04  0.30367370882E+04  0.00000000000E+00 0.  1.
         23    2    1    2    0    0  0.76316903267E+02 -0.16537558732E+04  0.75167195575E+03  0.18203897230E+04  0.89862433241E+02 0.  0.
         13    1    3    3    0    0  0.33825812234E+02 -0.40647461548E+03  0.14644353830E+03  0.43337225166E+03  0.00000000000E+00 0. -1.
        -13    1    3    3    0    0  0.42491091033E+02 -0.12472812577E+04  0.60522841746E+03  0.13870174714E+04  0.00000000000E+00 0.  1.
         22    1    1    2    0    0 -0.76316903267E+02  0.16537558732E+04 -0.22285654019E+04  0.27761910072E+04  0.00000000000E+00 0.  1.
<mgrwt>
<rscale>  0 0.43528543E+04</rscale>
<asrwt>0</asrwt>
<pdfrwt beam="1">  1        2 0.23997595E+00 0.43528543E+04</pdfrwt>
<pdfrwt beam="2">  1       -2 0.46719032E+00 0.43528543E+04</pdfrwt>
<totfact> 0.24126943E-02</totfact>
</mgrwt>
</event>
<event>
 6    1  0.1762360E-005  0.3692367E+04  0.7818608E-02  0.8069656E-01
          2   -1    0    0  501    0  0.00000000000E+00  0.00000000000E+00  0.15776971038E+04  0.15776971038E+04  0.00000000000E+00 0. -1.
         -2   -1    0    0    0  501 -0.00000000000E+00 -0.00000000000E+00 -0.21603598094E+04  0.21603598094E+04  0.00000000000E+00 0.  1.
         23    2    1    2    0    0 -0.10187771275E+04 -0.54892169826E+03 -0.17463799200E+04  0.20968806213E+04  0.88564374914E+02 0.  0.
         11    1    3    3    0    0 -0.51976242810E+03 -0.30836107493E+03 -0.84497891253E+03  0.10388594211E+04  0.00000000000E+00 0. -1.
        -11    1    3    3    0    0 -0.49901469942E+03 -0.24056062332E+03 -0.90140100747E+03  0.10580212002E+04  0.00000000000E+00 0.  1.
         22    1    1    2    0    0  0.10187771275E+04  0.54892169826E+03  0.11637172143E+04  0.16411762920E+04  0.00000000000E+00 0. -1.
<mgrwt>
<rscale>  0 0.36923669E+04</rscale>
<asrwt>0</asrwt>
<pdfrwt beam="1">  1        2 0.24272263E+00 0.36923669E+04</pdfrwt>
<pdfrwt beam="2">  1       -2 0.33236305E+00 0.36923669E+04</pdfrwt>
<totfact> 0.18626437E-01</totfact>
</mgrwt>
</event>
<event>
 6    1  0.1762360E-005  0.2606260E+04  0.7818608E-02  0.8366078E-01
          2   -1    0    0  501    0  0.00000000000E+00  0.00000000000E+00  0.73842785748E+03  0.73842785748E+03  0.00000000000E+00 0. -1.
         -2   -1    0    0    0  501 -0.00000000000E+00 -0.00000000000E+00 -0.22996803772E+04  0.22996803772E+04  0.00000000000E+00 0.  1.
         23    2    1    2    0    0  0.33166145146E+03 -0.26937353395E+03  0.65145182449E+03  0.78452843044E+03  0.92379431437E+02 0.  0.
         13    1    3    3    0    0  0.26412772685E+03 -0.18750508402E+03  0.42431778517E+03  0.53382318743E+03  0.00000000000E+00 0. -1.
        -13    1    3    3    0    0  0.67533724610E+02 -0.81868449925E+02  0.22713403932E+03  0.25070524300E+03  0.00000000000E+00 0.  1.
         22    1    1    2    0    0 -0.33166145146E+03  0.26937353395E+03 -0.22127043442E+04  0.22535798042E+04  0.00000000000E+00 0.  1.
<mgrwt>
<rscale>  0 0.26062602E+04</rscale>
<asrwt>0</asrwt>
<pdfrwt beam="1">  1        2 0.11360429E+00 0.26062602E+04</pdfrwt>
<pdfrwt beam="2">  1       -2 0.35379697E+00 0.26062602E+04</pdfrwt>
<totfact> 0.49816885E-01</totfact>
</mgrwt>
</event>
<event>
 6    1  0.1762360E-005  0.1103287E+04  0.7818608E-02  0.9201994E-01
         -1   -1    0    0    0  501 -0.00000000000E+00  0.00000000000E+00  0.67448729884E+03  0.67448729884E+03  0.00000000000E+00 0.  1.
          1   -1    0    0  501    0  0.00000000000E+00 -0.00000000000E+00 -0.45117345054E+03  0.45117345054E+03  0.00000000000E+00 0. -1.
         23    2    1    2    0    0  0.94303380193E+01 -0.16420681797E+03 -0.42081794039E+03  0.46086110171E+03  0.90842752977E+02 0.  0.
         11    1    3    3    0    0 -0.31277840152E+02 -0.12608548518E+03 -0.26000370466E+03  0.29065061379E+03  0.00000000000E+00 0. -1.
        -11    1    3    3    0    0  0.40708178172E+02 -0.38121332781E+02 -0.16081423573E+03  0.17021048792E+03  0.00000000000E+00 0.  1.
         22    1    1    2    0    0 -0.94303380193E+01  0.16420681797E+03  0.64413178869E+03  0.66479964767E+03  0.00000000000E+00 0.  1.
<mgrwt>
<rscale>  0 0.11032874E+04</rscale>
<asrwt>0</asrwt>
<pdfrwt beam="1">  1        1 0.69411300E-01 0.11032874E+04</pdfrwt>
<pdfrwt beam="2">  1       -1 0.10376728E+00 0.11032874E+04</pdfrwt>
<totfact> 0.44508298E+01</totfact>
</mgrwt>
</event>
<event>
 6    1  0.1762360E-005  0.2742805E+04  0.7818608E-02  0.8321248E-01
          4   -1    0    0  501    0  0.00000000000E+00  0.00000000000E+00  0.24077713063E+04  0.24077713063E+04  0.00000000000E+00 0. -1.
         -4   -1    0    0    0  501 -0.00000000000E+00 -0.00000000000E+00 -0.78111440504E+03  0.78111440504E+03  0.00000000000E+00 0.  1.
         23    2    1    2    0    0 -0.13428748303E+04 -0.12808023237E+03  0.53981646861E+03  0.14565637200E+04  0.10226776049E+03 0.  0.
         13    1    3    3    0    0 -0.90413972106E+03 -0.57885497000E+02  0.31996432359E+03  0.96083116849E+03  0.00000000000E+00 0.  1.
        -13    1    3    3    0    0 -0.43873510923E+03 -0.70194735367E+02  0.21985214502E+03  0.49573255150E+03  0.00000000000E+00 0. -1.
         22    1    1    2    0    0  0.13428748303E+04  0.12808023237E+03  0.10868404327E+04  0.17323219914E+04  0.00000000000E+00 0.  1.
<mgrwt>
<rscale>  0 0.27428050E+04</rscale>
<asrwt>0</asrwt>
<pdfrwt beam="1">  1        4 0.37042635E+00 0.27428050E+04</pdfrwt>
<pdfrwt beam="2">  1       -4 0.12017145E+00 0.27428050E+04</pdfrwt>
<totfact> 0.99697156E-03</totfact>
</mgrwt>
</event>
<event>
 6    1  0.1762360E-005  0.2014947E+04  0.7818608E-02  0.8599664E-01
         -2   -1    0    0    0  501 -0.00000000000E+00  0.00000000000E+00  0.11344391601E+04  0.11344391601E+04  0.00000000000E+00 0. -1.
          2   -1    0    0  501    0  0.00000000000E+00 -0.00000000000E+00 -0.89471735428E+03  0.89471735428E+03  0.00000000000E+00 0.  1.
         23    2    1    2    0    0 -0.92807189548E+01 -0.92087978648E+03  0.52645244308E+03  0.10646254515E+04  0.90385089007E+02 0.  0.
         13    1    3    3    0    0 -0.31299058538E+02 -0.48138065365E+03  0.23313980635E+03  0.53578086386E+03  0.00000000000E+00 0.  1.
        -13    1    3    3    0    0  0.22018339583E+02 -0.43949913283E+03  0.29331263672E+03  0.52884458766E+03  0.00000000000E+00 0. -1.
         22    1    1    2    0    0  0.92807189548E+01  0.92087978648E+03 -0.28673063724E+03  0.96453106286E+03  0.00000000000E+00 0.  1.
<mgrwt>
<rscale>  0 0.20149466E+04</rscale>
<asrwt>0</asrwt>
<pdfrwt beam="1">  1        2 0.13764882E+00 0.20149466E+04</pdfrwt>
<pdfrwt beam="2">  1       -2 0.17452910E+00 0.20149466E+04</pdfrwt>
<totfact> 0.54295778E+00</totfact>
</mgrwt>
</event>
<event>
 6    1  0.1762360E-005  0.3548851E+04  0.7818608E-02  0.8102309E-01
          2   -1    0    0  501    0  0.00000000000E+00  0.00000000000E+00  0.22239220520E+04  0.22239220520E+04  0.00000000000E+00 0. -1.
         -2   -1    0    0    0  501 -0.00000000000E+00 -0.00000000000E+00 -0.14157808330E+04  0.14157808330E+04  0.00000000000E+00 0.  1.
         23    2    1    2    0    0 -0.14333256552E+03 -0.10682638504E+04 -0.10398729257E+04  0.15003365869E+04  0.89119548683E+02 0.  0.
         11    1    3    3    0    0 -0.76850430353E+01 -0.30567511130E+03 -0.32643800220E+03  0.44727855172E+03  0.00000000000E+00 0.  1.
        -11    1    3    3    0    0 -0.13564752248E+03 -0.76258873914E+03 -0.71343492350E+03  0.10530580352E+04  0.00000000000E+00 0. -1.
         22    1    1    2    0    0  0.14333256552E+03  0.10682638504E+04  0.18480141447E+04  0.21393662981E+04  0.00000000000E+00 0. -1.
<mgrwt>
<rscale>  0 0.35488512E+04</rscale>
<asrwt>0</asrwt>
<pdfrwt beam="1">  1        2 0.34214185E+00 0.35488512E+04</pdfrwt>
<pdfrwt beam="2">  1       -2 0.21781244E+00 0.35488512E+04</pdfrwt>
<totfact> 0.41811733E-01</totfact>
</mgrwt>
</event>
<event>
 6    1  0.1762360E-005  0.2011273E+04  0.7818608E-02  0.8601368E-01
          1   -1    0    0  501    0  0.00000000000E+00  0.00000000000E+00  0.17816109562E+04  0.17816109562E+04  0.00000000000E+00 0. -1.
         -1   -1    0    0    0  501 -0.00000000000E+00 -0.00000000000E+00 -0.56763487309E+03  0.56763487309E+03  0.00000000000E+00 0.  1.
         23    2    1    2    0    0 -0.26426347960E+03  0.68895051978E+03  0.14026657242E+04  0.15876082606E+04  0.92416718704E+02 0.  0.
         13    1    3    3    0    0 -0.20040967576E+03  0.41208766664E+03  0.91071838681E+03  0.10195039300E+04  0.00000000000E+00 0. -1.
        -13    1    3    3    0    0 -0.63853803840E+02  0.27686285314E+03  0.49194733737E+03  0.56810433061E+03  0.00000000000E+00 0.  1.
         22    1    1    2    0    0  0.26426347960E+03 -0.68895051978E+03 -0.18868964111E+03  0.76163756868E+03  0.00000000000E+00 0.  1.
<mgrwt>
<rscale>  0 0.20112727E+04</rscale>
<asrwt>0</asrwt>
<pdfrwt beam="1">  1        1 0.27409399E+00 0.20112727E+04</pdfrwt>
<pdfrwt beam="2">  1       -1 0.87328442E-01 0.20112727E+04</pdfrwt>
<totfact> 0.50151545E+00</totfact>
</mgrwt>
</event>
<event>
 6    1  0.1762360E-005  0.2021496E+04  0.7818608E-02  0.8596636E-01
         -2   -1    0    0    0  501 -0.00000000000E+00  0.00000000000E+00  0.35782373575E+03  0.35782373575E+03  0.00000000000E+00 0.  1.
          2   -1    0    0  501    0  0.00000000000E+00 -0.00000000000E+00 -0.28550704714E+04  0.28550704714E+04  0.00000000000E+00 0. -1.
         23    2    1    2    0    0 -0.66676047074E+03  0.60247269356E+03 -0.19780008397E+04  0.21750314165E+04  0.10359280374E+03 0.  0.
         13    1    3    3    0    0 -0.38239230940E+03  0.33254975051E+03 -0.99224975763E+03  0.11141691058E+04  0.00000000000E+00 0.  1.
        -13    1    3    3    0    0 -0.28436816134E+03  0.26992294305E+03 -0.98575108205E+03  0.10608623106E+04  0.00000000000E+00 0. -1.
         22    1    1    2    0    0  0.66676047074E+03 -0.60247269356E+03 -0.51924589598E+03  0.10378627907E+04  0.00000000000E+00 0. -1.
<mgrwt>
<rscale>  0 0.20214965E+04</rscale>
<asrwt>0</asrwt>
<pdfrwt beam="1">  1        2 0.43924160E+00 0.20214965E+04</pdfrwt>
<pdfrwt beam="2">  1       -2 0.55049807E-01 0.20214965E+04</pdfrwt>
<totfact> 0.61709650E+00</totfact>
</mgrwt>
</event>
<event>
 6    1  0.1762360E-005  0.3814291E+04  0.7818608E-02  0.8043095E-01
          2   -1    0    0  501    0  0.00000000000E+00  0.00000000000E+00  0.36053420361E+04  0.36053420361E+04  0.00000000000E+00 0. -1.
         -2   -1    0    0    0  501 -0.00000000000E+00 -0.00000000000E+00 -0.10088374328E+04  0.10088374328E+04  0.00000000000E+00 0.  1.
         23    2    1    2    0    0  0.12407063770E+04  0.10564644480E+04  0.10302439406E+03  0.16354359423E+04  0.92559449991E+02 0.  0.
         13    1    3    3    0    0  0.10126894513E+04  0.84264240501E+03  0.49868042883E+02  0.13183599543E+04  0.00000000000E+00 0. -1.
        -13    1    3    3    0    0  0.22801692571E+03  0.21382204299E+03  0.53156351179E+02  0.31707598797E+03  0.00000000000E+00 0.  1.
         22    1    1    2    0    0 -0.12407063770E+04 -0.10564644480E+04  0.24934802093E+04  0.29787435267E+04  0.00000000000E+00 0. -1.
<mgrwt>
<rscale>  0 0.38142910E+04</rscale>
<asrwt>0</asrwt>
<pdfrwt beam="1">  1        2 0.55466800E+00 0.38142910E+04</pdfrwt>
<pdfrwt beam="2">  1       -2 0.15520576E+00 0.38142910E+04</pdfrwt>
<totfact> 0.14960605E-01</totfact>
</mgrwt>
</event>
<event>
 6    1  0.1762360E-005  0.2640217E+04  0.7818608E-02  0.8354667E-01
          2   -1    0    0  501    0  0.00000000000E+00  0.00000000000E+00  0.12942004006E+04  0.12942004006E+04  0.00000000000E+00 0. -1.
         -2   -1    0    0    0  501 -0.00000000000E+00 -0.00000000000E+00 -0.13465352943E+04  0.13465352943E+04  0.00000000000E+00 0.  1.
         23    2    1    2    0    0 -0.37853813659E+03 -0.97707566651E+03 -0.82676712225E+03  0.13377724355E+04  0.90128994883E+02 0.  0.
         11    1    3    3    0    0 -0.17704959965E+03 -0.46527330413E+03 -0.45006014288E+03  0.67110352442E+03  0.00000000000E+00 0.  1.
        -11    1    3    3    0    0 -0.20148853694E+03 -0.51180236238E+03 -0.37670697937E+03  0.66666891105E+03  0.00000000000E+00 0. -1.
         22    1    1    2    0    0  0.37853813659E+03  0.97707566651E+03  0.77443222850E+03  0.13029632594E+04  0.00000000000E+00 0. -1.
<mgrwt>
<rscale>  0 0.26402170E+04</rscale>
<asrwt>0</asrwt>
<pdfrwt beam="1">  1        2 0.19910775E+00 0.26402170E+04</pdfrwt>
<pdfrwt beam="2">  1       -2 0.20715928E+00 0.26402170E+04</pdfrwt>
<totfact> 0.17545609E+00</totfact>
</mgrwt>
</event>
<event>
 6    1  0.1762360E-005  0.1921283E+04  0.7818608E-02  0.8644334E-01
         -2   -1    0    0    0  501 -0.00000000000E+00  0.00000000000E+00  0.12993702947E+04  0.12993702947E+04  0.00000000000E+00 0.  1.
          2   -1    0    0  501    0  0.00000000000E+00 -0.00000000000E+00 -0.71021518466E+03  0.71021518466E+03  0.00000000000E+00 0. -1.
         23    2    1    2    0    0  0.37244299889E+03 -0.18684567985E+03 -0.60759717738E+03  0.74236760822E+03  0.91160519285E+02 0.  0.
         13    1    3    3    0    0  0.21935865393E+03 -0.14427919351E+03 -0.43222059150E+03  0.50571666420E+03  0.00000000000E+00 0. -1.
        -13    1    3    3    0    0  0.15308434496E+03 -0.42566486338E+02 -0.17537658588E+03  0.23665094402E+03  0.00000000000E+00 0.  1.
         22    1    1    2    0    0 -0.37244299889E+03  0.18684567985E+03  0.11967522874E+04  0.12672178711E+04  0.00000000000E+00 0.  1.
<mgrwt>
<rscale>  0 0.19212834E+04</rscale>
<asrwt>0</asrwt>
<pdfrwt beam="1">  1        2 0.10926387E+00 0.19212834E+04</pdfrwt>
<pdfrwt beam="2">  1       -2 0.19990312E+00 0.19212834E+04</pdfrwt>
<totfact> 0.50060410E+00</totfact>
</mgrwt>
</event>
<event>
 6    1  0.1762360E-005  0.1085611E+04  0.7818608E-02  0.9219331E-01
          2   -1    0    0  501    0  0.00000000000E+00  0.00000000000E+00  0.10419640437E+04  0.10419640437E+04  0.00000000000E+00 0. -1.
         -2   -1    0    0    0  501 -0.00000000000E+00 -0.00000000000E+00 -0.28277156791E+03  0.28277156791E+03  0.00000000000E+00 0.  1.
         23    2    1    2    0    0  0.52666608498E+03 -0.45714132217E+02  0.25411145170E+03  0.59359008038E+03  0.91157044097E+02 0.  0.
         11    1    3    3    0    0  0.41621388468E+03 -0.73021528464E+02  0.19550588852E+03  0.46560572791E+03  0.00000000000E+00 0. -1.
        -11    1    3    3    0    0  0.11045220030E+03  0.27307396247E+02  0.58605563176E+02  0.12798435247E+03  0.00000000000E+00 0.  1.
         22    1    1    2    0    0 -0.52666608498E+03  0.45714132217E+02  0.50508102413E+03  0.73114553127E+03  0.00000000000E+00 0.  1.
<mgrwt>
<rscale>  0 0.10856110E+04</rscale>
<asrwt>0</asrwt>
<pdfrwt beam="1">  1        2 0.16030216E+00 0.10856110E+04</pdfrwt>
<pdfrwt beam="2">  1       -2 0.43503319E-01 0.10856110E+04</pdfrwt>
<totfact> 0.11784702E+02</totfact>
</mgrwt>
</event>
<event>
 6    1  0.1762360E-005  0.1886347E+04  0.7818608E-02  0.8661682E-01
         -1   -1    0    0    0  501 -0.00000000000E+00  0.00000000000E+00  0.64665804718E+03  0.64665804718E+03  0.00000000000E+00 0.  1.
          1   -1    0    0  501    0  0.00000000000E+00 -0.00000000000E+00 -0.13756521034E+04  0.13756521034E+04  0.00000000000E+00 0. -1.
         23    2    1    2    0    0 -0.14324698430E+03 -0.49833533356E+03 -0.12071090730E+04  0.13170075400E+04  0.92405318653E+02 0.  0.
         11    1    3    3    0    0 -0.38270315584E+02 -0.23607751388E+03 -0.46382736012E+03  0.52185537231E+03  0.00000000000E+00 0. -1.
        -11    1    3    3    0    0 -0.10497666872E+03 -0.26225781968E+03 -0.74328171291E+03  0.79515216764E+03  0.00000000000E+00 0.  1.
         22    1    1    2    0    0  0.14324698430E+03  0.49833533356E+03  0.47811501684E+03  0.70530261060E+03  0.00000000000E+00 0.  1.
<mgrwt>
<rscale>  0 0.18863473E+04</rscale>
<asrwt>0</asrwt>
<pdfrwt beam="1">  1        1 0.21163878E+00 0.18863473E+04</pdfrwt>
<pdfrwt beam="2">  1       -1 0.99485855E-01 0.18863473E+04</pdfrwt>
<totfact> 0.72203336E+00</totfact>
</mgrwt>
</event>
<event>
 6    1  0.1762360E-005  0.2319511E+04  0.7818608E-02  0.8470268E-01
          1   -1    0    0  501    0  0.00000000000E+00  0.00000000000E+00  0.11573627937E+04  0.11573627937E+04  0.00000000000E+00 0. -1.
         -1   -1    0    0    0  501 -0.00000000000E+00 -0.00000000000E+00 -0.11621534051E+04  0.11621534051E+04  0.00000000000E+00 0.  1.
         23    2    1    2    0    0 -0.90132707858E+02 -0.10653236378E+04  0.44361091920E+03  0.11601619428E+04  0.78401068439E+02 0.  0.
         13    1    3    3    0    0  0.10984834974E+02 -0.23357177114E+03  0.85621224174E+02  0.24901291714E+03  0.00000000000E+00 0. -1.
        -13    1    3    3    0    0 -0.10111754283E+03 -0.83175186670E+03  0.35798969502E+03  0.91114902567E+03  0.00000000000E+00 0.  1.
         22    1    1    2    0    0  0.90132707858E+02  0.10653236378E+04 -0.44840153058E+03  0.11593542560E+04  0.00000000000E+00 0. -1.
<mgrwt>
<rscale>  0 0.23195113E+04</rscale>
<asrwt>0</asrwt>
<pdfrwt beam="1">  1        1 0.17805581E+00 0.23195113E+04</pdfrwt>
<pdfrwt beam="2">  1       -1 0.17879283E+00 0.23195113E+04</pdfrwt>
<totfact> 0.22008773E+00</totfact>
</mgrwt>
</event>
<event>
 6    1  0.1762360E-005  0.2836851E+04  0.7818608E-02  0.8291918E-01
          1   -1    0    0  501    0  0.00000000000E+00  0.00000000000E+00  0.17560547434E+04  0.17560547434E+04  0.00000000000E+00 0. -1.
         -1   -1    0    0    0  501 -0.00000000000E+00 -0.00000000000E+00 -0.11457110249E+04  0.11457110249E+04  0.00000000000E+00 0.  1.
         23    2    1    2    0    0  0.39158588767E+03 -0.79717232216E+03 -0.82381960319E+03  0.12148610134E+04  0.91571417822E+02 0.  0.
         13    1    3    3    0    0  0.22717426725E+03 -0.54640290318E+03 -0.51591759821E+03  0.78507021880E+03  0.00000000000E+00 0. -1.
        -13    1    3    3    0    0  0.16441162042E+03 -0.25076941898E+03 -0.30790200498E+03  0.42979079457E+03  0.00000000000E+00 0.  1.
         22    1    1    2    0    0 -0.39158588767E+03  0.79717232216E+03  0.14341633217E+04  0.16869047549E+04  0.00000000000E+00 0. -1.
<mgrwt>
<rscale>  0 0.28368513E+04</rscale>
<asrwt>0</asrwt>
<pdfrwt beam="1">  1        1 0.27016227E+00 0.28368513E+04</pdfrwt>
<pdfrwt beam="2">  1       -1 0.17626323E+00 0.28368513E+04</pdfrwt>
<totfact> 0.83414741E-01</totfact>
</mgrwt>
</event>
<event>
 6    1  0.1762360E-005  0.5126007E+04  0.7818608E-02  0.7809358E-01
          2   -1    0    0  501    0  0.00000000000E+00  0.00000000000E+00  0.44607522123E+04  0.44607522123E+04  0.00000000000E+00 0. -1.
         -2   -1    0    0    0  501 -0.00000000000E+00 -0.00000000000E+00 -0.14726187574E+04  0.14726187574E+04  0.00000000000E+00 0.  1.
         23    2    1    2    0    0  0.15260587259E+04  0.17163237102E+04  0.28093928252E+04  0.36297714980E+04  0.89054860826E+02 0.  0.
         13    1    3    3    0    0  0.47810838676E+03  0.48812257427E+03  0.87342351791E+03  0.11089273730E+04  0.00000000000E+00 0.  1.
        -13    1    3    3    0    0  0.10479503392E+04  0.12282011360E+04  0.19359693073E+04  0.25208441250E+04  0.00000000000E+00 0. -1.
         22    1    1    2    0    0 -0.15260587259E+04 -0.17163237102E+04  0.17874062963E+03  0.23035994717E+04  0.00000000000E+00 0.  1.
<mgrwt>
<rscale>  0 0.51260072E+04</rscale>
<asrwt>0</asrwt>
<pdfrwt beam="1">  1        2 0.68626957E+00 0.51260072E+04</pdfrwt>
<pdfrwt beam="2">  1       -2 0.22655673E+00 0.51260072E+04</pdfrwt>
<totfact> 0.86202672E-03</totfact>
</mgrwt>
</event>
<event>
 6    1  0.1762360E-005  0.5649474E+03  0.7818608E-02  0.9980922E-01
          1   -1    0    0  501    0  0.00000000000E+00  0.00000000000E+00  0.62827404089E+02  0.62827404089E+02  0.00000000000E+00 0. -1.
         -1   -1    0    0    0  501 -0.00000000000E+00 -0.00000000000E+00 -0.12700091683E+04  0.12700091683E+04  0.00000000000E+00 0.  1.
         23    2    1    2    0    0  0.99673273377E+02 -0.25237358456E+03 -0.71024432420E+03  0.76664401955E+03  0.98330387194E+02 0.  0.
         13    1    3    3    0    0 -0.84138138678E+00 -0.96962693585E+02 -0.17177391591E+03  0.19725301026E+03  0.00000000000E+00 0.  1.
        -13    1    3    3    0    0  0.10051465476E+03 -0.15541089097E+03 -0.53847040829E+03  0.56939100929E+03  0.00000000000E+00 0. -1.
         22    1    1    2    0    0 -0.99673273377E+02  0.25237358456E+03 -0.49693744002E+03  0.56619255285E+03  0.00000000000E+00 0.  1.
<mgrwt>
<rscale>  0 0.56494736E+03</rscale>
<asrwt>0</asrwt>
<pdfrwt beam="1">  1        1 0.96657552E-02 0.56494736E+03</pdfrwt>
<pdfrwt beam="2">  1       -1 0.19538601E+00 0.56494736E+03</pdfrwt>
<totfact> 0.11770943E+02</totfact>
</mgrwt>
</event>
<event>
 6    1  0.1762360E-005  0.4367230E+04  0.7818608E-02  0.7934302E-01
          2   -1    0    0  501    0  0.00000000000E+00  0.00000000000E+00  0.22714811481E+04  0.22714811481E+04  0.00000000000E+00 0. -1.
         -2   -1    0    0    0  501 -0.00000000000E+00 -0.00000000000E+00 -0.20991473655E+04  0.20991473655E+04  0.00000000000E+00 0.  1.
         23    2    1    2    0    0 -0.10558771681E+04  0.56829185139E+03 -0.17389323620E+04  0.21143549268E+04  0.93695114416E+02 0.  0.
         13    1    3    3    0    0 -0.26803356596E+03  0.18169689778E+03 -0.42509196129E+03  0.53437714275E+03  0.00000000000E+00 0. -1.
        -13    1    3    3    0    0 -0.78784360212E+03  0.38659495361E+03 -0.13138404008E+04  0.15799777841E+04  0.00000000000E+00 0.  1.
         22    1    1    2    0    0  0.10558771681E+04 -0.56829185139E+03  0.19112661446E+04  0.22562735867E+04  0.00000000000E+00 0. -1.
<mgrwt>
<rscale>  0 0.43672296E+04</rscale>
<asrwt>0</asrwt>
<pdfrwt beam="1">  1        2 0.34945864E+00 0.43672296E+04</pdfrwt>
<pdfrwt beam="2">  1       -2 0.32294575E+00 0.43672296E+04</pdfrwt>
<totfact> 0.82745220E-02</totfact>
</mgrwt>
</event>
<event>
 6    1  0.1762360E-005  0.1145285E+04  0.7818608E-02  0.9162144E-01
         -1   -1    0    0    0  501 -0.00000000000E+00  0.00000000000E+00  0.23144239699E+03  0.23144239699E+03  0.00000000000E+00 0.  1.
          1   -1    0    0  501    0  0.00000000000E+00 -0.00000000000E+00 -0.14168520822E+04  0.14168520822E+04  0.00000000000E+00 0. -1.
         23    2    1    2    0    0  0.44298552954E+03  0.32587829100E+03 -0.80867682750E+03  0.98169078435E+03  0.85590564964E+02 0.  0.
         13    1    3    3    0    0  0.27367482917E+03  0.15353639892E+03 -0.42522906183E+03  0.52847998347E+03  0.00000000000E+00 0.  1.
        -13    1    3    3    0    0  0.16931070037E+03  0.17234189208E+03 -0.38344776567E+03  0.45321080087E+03  0.00000000000E+00 0. -1.
         22    1    1    2    0    0 -0.44298552954E+03 -0.32587829100E+03 -0.37673285776E+03  0.66660369489E+03  0.00000000000E+00 0. -1.
<mgrwt>
<rscale>  0 0.11452854E+04</rscale>
<asrwt>0</asrwt>
<pdfrwt beam="1">  1        1 0.21797724E+00 0.11452854E+04</pdfrwt>
<pdfrwt beam="2">  1       -1 0.35606523E-01 0.11452854E+04</pdfrwt>
<totfact> 0.55860128E+01</totfact>
</mgrwt>
</event>
<event>
 6    1  0.1762360E-005  0.2650543E+04  0.7818608E-02  0.8351233E-01
         -2   -1    0    0    0  501 -0.00000000000E+00  0.00000000000E+00  0.96246497859E+03  0.96246497859E+03  0.00000000000E+00 0.  1.
          2   -1    0    0  501    0  0.00000000000E+00 -0.00000000000E+00 -0.18248394500E+04  0.18248394500E+04  0.00000000000E+00 0. -1.
         23    2    1    2    0    0 -0.10361250840E+03  0.12943129043E+04 -0.70267233105E+03  0.14790665986E+04  0.88927792569E+02 0.  0.
         13    1    3    3    0    0 -0.53053835074E+02  0.84009333453E+03 -0.40946810650E+03  0.93607459659E+03  0.00000000000E+00 0.  1.
        -13    1    3    3    0    0 -0.50558673326E+02  0.45421956975E+03 -0.29320422455E+03  0.54299200205E+03  0.00000000000E+00 0. -1.
         22    1    1    2    0    0  0.10361250840E+03 -0.12943129043E+04 -0.15970214036E+03  0.13082378300E+04  0.00000000000E+00 0.  1.
<mgrwt>
<rscale>  0 0.26505426E+04</rscale>
<asrwt>0</asrwt>
<pdfrwt beam="1">  1        2 0.28074453E+00 0.26505426E+04</pdfrwt>
<pdfrwt beam="2">  1       -2 0.14807154E+00 0.26505426E+04</pdfrwt>
<totfact> 0.22834174E+00</totfact>
</mgrwt>
</event>
<event>
 6    1  0.1762360E-005  0.2408735E+04  0.7818608E-02  0.8436240E-01
          1   -1    0    0  501    0  0.00000000000E+00  0.00000000000E+00  0.22964237835E+04  0.22964237835E+04  0.00000000000E+00 0. -1.
         -1   -1    0    0    0  501 -0.00000000000E+00 -0.00000000000E+00 -0.63163485037E+03  0.63163485037E+03  0.00000000000E+00 0.  1.
         23    2    1    2    0    0  0.62739034223E+03 -0.83078194156E+03  0.10146488719E+03  0.10498149466E+04  0.89437257010E+02 0.  0.
         13    1    3    3    0    0  0.80687610888E+02 -0.13786365978E+03 -0.10687363831E+02  0.16009715483E+03  0.00000000000E+00 0. -1.
        -13    1    3    3    0    0  0.54670273134E+03 -0.69291828177E+03  0.11215225102E+03  0.88971779182E+03  0.00000000000E+00 0.  1.
         22    1    1    2    0    0 -0.62739034223E+03  0.83078194156E+03  0.15633240459E+04  0.18782436872E+04  0.00000000000E+00 0. -1.
<mgrwt>
<rscale>  0 0.24087352E+04</rscale>
<asrwt>0</asrwt>
<pdfrwt beam="1">  1        1 0.35329596E+00 0.24087352E+04</pdfrwt>
<pdfrwt beam="2">  1       -1 0.97174593E-01 0.24087352E+04</pdfrwt>
<totfact> 0.17047487E+00</totfact>
</mgrwt>
</event>
<event>
 6    1  0.1762360E-005  0.9069779E+03  0.7818608E-02  0.9416901E-01
          2   -1    0    0  501    0  0.00000000000E+00  0.00000000000E+00  0.88372369330E+03  0.88372369330E+03  0.00000000000E+00 0. -1.
         -2   -1    0    0    0  501 -0.00000000000E+00 -0.00000000000E+00 -0.23271098391E+03  0.23271098391E+03  0.00000000000E+00 0.  1.
         23    2    1    2    0    0  0.23585646068E+03 -0.35795539875E+03  0.15930689355E+03  0.46410428021E+03  0.79080712180E+02 0.  0.
         13    1    3    3    0    0  0.12309855369E+03 -0.23791232111E+03  0.12621107023E+03  0.29611612707E+03  0.00000000000E+00 0. -1.
        -13    1    3    3    0    0  0.11275790698E+03 -0.12004307763E+03  0.33095823318E+02  0.16798815314E+03  0.00000000000E+00 0.  1.
         22    1    1    2    0    0 -0.23585646068E+03  0.35795539875E+03  0.49170581584E+03  0.65233039701E+03  0.00000000000E+00 0. -1.
<mgrwt>
<rscale>  0 0.90697786E+03</rscale>
<asrwt>0</asrwt>
<pdfrwt beam="1">  1        2 0.13595749E+00 0.90697786E+03</pdfrwt>
<pdfrwt beam="2">  1       -2 0.35801690E-01 0.90697786E+03</pdfrwt>
<totfact> 0.22094953E+02</totfact>
</mgrwt>
</event>
<event>
 6    1  0.1762360E-005  0.2219622E+04  0.7818608E-02  0.8510305E-01
          2   -1    0    0  501    0  0.00000000000E+00  0.00000000000E+00  0.33071802994E+04  0.33071802994E+04  0.00000000000E+00 0. -1.
         -2   -1    0    0    0  501 -0.00000000000E+00 -0.00000000000E+00 -0.37242630985E+03  0.37242630985E+03  0.00000000000E+00 0.  1.
         23    2    1    2    0    0 -0.92968889010E+03 -0.35387774930E+03  0.22785139390E+04  0.24878843690E+04  0.91607694291E+02 0.  0.
         13    1    3    3    0    0 -0.34562115796E+03 -0.13428494891E+03  0.74155668548E+03  0.82909152095E+03  0.00000000000E+00 0. -1.
        -13    1    3    3    0    0 -0.58406773214E+03 -0.21959280040E+03  0.15369572535E+04  0.16587928481E+04  0.00000000000E+00 0.  1.
         22    1    1    2    0    0  0.92968889010E+03  0.35387774930E+03  0.65624005054E+03  0.11917222402E+04  0.00000000000E+00 0.  1.
<mgrwt>
<rscale>  0 0.22196224E+04</rscale>
<asrwt>0</asrwt>
<pdfrwt beam="1">  1        2 0.50879695E+00 0.22196224E+04</pdfrwt>
<pdfrwt beam="2">  1       -2 0.57296358E-01 0.22196224E+04</pdfrwt>
<totfact> 0.28760581E+00</totfact>
</mgrwt>
</event>
<event>
 6    1  0.1762360E-005  0.1075496E+04  0.7818608E-02  0.9229410E-01
          2   -1    0    0  501    0  0.00000000000E+00  0.00000000000E+00  0.11054508940E+04  0.11054508940E+04  0.00000000000E+00 0. -1.
         -2   -1    0    0    0  501 -0.00000000000E+00 -0.00000000000E+00 -0.26158796205E+03  0.26158796205E+03  0.00000000000E+00 0.  1.
         23    2    1    2    0    0 -0.39342098665E+02  0.21270275730E+03  0.10454884378E+04  0.10713310470E+04  0.88959963629E+02 0.  0.
         11    1    3    3    0    0  0.18334863744E+02  0.13931910690E+03  0.61953597809E+03  0.63527223214E+03  0.00000000000E+00 0. -1.
        -11    1    3    3    0    0 -0.57676962409E+02  0.73383650403E+02  0.42595245966E+03  0.43605881488E+03  0.00000000000E+00 0.  1.
         22    1    1    2    0    0  0.39342098665E+02 -0.21270275730E+03 -0.20162550584E+03  0.29570780899E+03  0.00000000000E+00 0.  1.
<mgrwt>
<rscale>  0 0.10754955E+04</rscale>
<asrwt>0</asrwt>
<pdfrwt beam="1">  1        2 0.17006937E+00 0.10754955E+04</pdfrwt>
<pdfrwt beam="2">  1       -2 0.40244303E-01 0.10754955E+04</pdfrwt>
<totfact> 0.12551279E+02</totfact>
</mgrwt>
</event>
<event>
 6    1  0.1762360E-005  0.2528515E+04  0.7818608E-02  0.8392897E-01
          1   -1    0    0  501    0  0.00000000000E+00  0.00000000000E+00  0.13369608805E+04  0.13369608805E+04  0.00000000000E+00 0. -1.
         -1   -1    0    0    0  501 -0.00000000000E+00 -0.00000000000E+00 -0.11955078764E+04  0.11955078764E+04  0.00000000000E+00 0.  1.
         23    2    1    2    0    0 -0.30870931891E+03 -0.74059143944E+03  0.10472719674E+04  0.13223922643E+04  0.90363727247E+02 0.  0.
         11    1    3    3    0    0 -0.94747341225E+02 -0.13856412783E+03  0.23995251710E+03  0.29283832852E+03  0.00000000000E+00 0. -1.
        -11    1    3    3    0    0 -0.21396197768E+03 -0.60202731161E+03  0.80731945027E+03  0.10295539357E+04  0.00000000000E+00 0.  1.
         22    1    1    2    0    0  0.30870931891E+03  0.74059143944E+03 -0.90581896331E+03  0.12100764926E+04  0.00000000000E+00 0.  1.
<mgrwt>
<rscale>  0 0.25285152E+04</rscale>
<asrwt>0</asrwt>
<pdfrwt beam="1">  1        1 0.20568629E+00 0.25285152E+04</pdfrwt>
<pdfrwt beam="2">  1       -1 0.18392429E+00 0.25285152E+04</pdfrwt>
<totfact> 0.14718166E+00</totfact>
</mgrwt>
</event>
<event>
 6    1  0.1762360E-005  0.2520314E+04  0.7818608E-02  0.8395784E-01
         -1   -1    0    0    0  501 -0.00000000000E+00  0.00000000000E+00  0.64919441920E+03  0.64919441920E+03  0.00000000000E+00 0.  1.
          1   -1    0    0  501    0  0.00000000000E+00 -0.00000000000E+00 -0.24461026095E+04  0.24461026095E+04  0.00000000000E+00 0. -1.
         23    2    1    2    0    0 -0.67081085438E+03 -0.10027704295E+04 -0.13395536448E+04  0.18050610360E+04  0.91135283030E+02 0.  0.
         11    1    3    3    0    0 -0.41199031249E+03 -0.55255554048E+03 -0.72165156447E+03  0.99791513837E+03  0.00000000000E+00 0. -1.
        -11    1    3    3    0    0 -0.25882054189E+03 -0.45021488900E+03 -0.61790208033E+03  0.80714589763E+03  0.00000000000E+00 0.  1.
         22    1    1    2    0    0  0.67081085438E+03  0.10027704295E+04 -0.45735454551E+03  0.12902359927E+04  0.00000000000E+00 0.  1.
<mgrwt>
<rscale>  0 0.25203144E+04</rscale>
<asrwt>0</asrwt>
<pdfrwt beam="1">  1        1 0.37632348E+00 0.25203144E+04</pdfrwt>
<pdfrwt beam="2">  1       -1 0.99876063E-01 0.25203144E+04</pdfrwt>
<totfact> 0.12511028E+00</totfact>
</mgrwt>
</event>
<event>
 6    1  0.1762360E-005  0.1981104E+04  0.7818608E-02  0.8615507E-01
          1   -1    0    0  501    0  0.00000000000E+00  0.00000000000E+00  0.99296345457E+03  0.99296345457E+03  0.00000000000E+00 0. -1.
         -1   -1    0    0    0  501 -0.00000000000E+00 -0.00000000000E+00 -0.98814607301E+03  0.98814607301E+03  0.00000000000E+00 0.  1.
         23    2    1    2    0    0  0.78101700516E+03  0.48111627750E+03  0.37164972935E+03  0.99316904040E+03  0.82466882135E+02 0.  0.
         11    1    3    3    0    0  0.29277062205E+03  0.16120292378E+03  0.17467455438E+03  0.37711035483E+03  0.00000000000E+00 0.  1.
        -11    1    3    3    0    0  0.48824638310E+03  0.31991335372E+03  0.19697517497E+03  0.61605868556E+03  0.00000000000E+00 0. -1.
         22    1    1    2    0    0 -0.78101700516E+03 -0.48111627750E+03 -0.36683234779E+03  0.98794048718E+03  0.00000000000E+00 0. -1.
<mgrwt>
<rscale>  0 0.19811037E+04</rscale>
<asrwt>0</asrwt>
<pdfrwt beam="1">  1        1 0.15276361E+00 0.19811037E+04</pdfrwt>
<pdfrwt beam="2">  1       -1 0.15202247E+00 0.19811037E+04</pdfrwt>
<totfact> 0.47913259E+00</totfact>
</mgrwt>
</event>
<event>
 6    1  0.1762360E-005  0.3126181E+04  0.7818608E-02  0.8208589E-01
         -2   -1    0    0    0  501 -0.00000000000E+00  0.00000000000E+00  0.86626183733E+03  0.86626183733E+03  0.00000000000E+00 0. -1.
          2   -1    0    0  501    0  0.00000000000E+00 -0.00000000000E+00 -0.28204540775E+04  0.28204540775E+04  0.00000000000E+00 0.  1.
         23    2    1    2    0    0 -0.39883933525E+03  0.21126501177E+03 -0.27413288675E+04  0.27793627363E+04  0.79167794386E+02 0.  0.
         13    1    3    3    0    0 -0.22696600594E+03  0.15001263909E+03 -0.14635452600E+04  0.14886175089E+04  0.00000000000E+00 0.  1.
        -13    1    3    3    0    0 -0.17187332931E+03  0.61252372680E+02 -0.12777836075E+04  0.12907452274E+04  0.00000000000E+00 0. -1.
         22    1    1    2    0    0  0.39883933525E+03 -0.21126501177E+03  0.78713662732E+03  0.90735317854E+03  0.00000000000E+00 0. -1.
<mgrwt>
<rscale>  0 0.31261809E+04</rscale>
<asrwt>0</asrwt>
<pdfrwt beam="1">  1        2 0.43391601E+00 0.31261809E+04</pdfrwt>
<pdfrwt beam="2">  1       -2 0.13327105E+00 0.31261809E+04</pdfrwt>
<totfact> 0.77585564E-01</totfact>
</mgrwt>
</event>
<event>
 6    1  0.1762360E-005  0.2712420E+04  0.7818608E-02  0.8330986E-01
         -2   -1    0    0    0  501 -0.00000000000E+00  0.00000000000E+00  0.17855861273E+04  0.17855861273E+04  0.00000000000E+00 0. -1.
          2   -1    0    0  501    0  0.00000000000E+00 -0.00000000000E+00 -0.10300847147E+04  0.10300847147E+04  0.00000000000E+00 0.  1.
         23    2    1    2    0    0  0.78142082924E+03  0.26179264178E+02 -0.77046531403E+03  0.11010635060E+04  0.86140454041E+02 0.  0.
         11    1    3    3    0    0  0.63732136491E+03 -0.76958256657E+01 -0.60077599881E+03  0.87588215454E+03  0.00000000000E+00 0. -1.
        -11    1    3    3    0    0  0.14409946433E+03  0.33875089843E+02 -0.16968931522E+03  0.22518135143E+03  0.00000000000E+00 0.  1.
         22    1    1    2    0    0 -0.78142082924E+03 -0.26179264178E+02  0.15259667266E+04  0.17146073360E+04  0.00000000000E+00 0. -1.
<mgrwt>
<rscale>  0 0.27124196E+04</rscale>
<asrwt>0</asrwt>
<pdfrwt beam="1">  1        2 0.15847457E+00 0.27124196E+04</pdfrwt>
<pdfrwt beam="2">  1       -2 0.27470556E+00 0.27124196E+04</pdfrwt>
<totfact> 0.95801877E-01</totfact>
</mgrwt>
</event>
<event>
 6    1  0.1762360E-005  0.4474567E+03  0.7818608E-02  0.1028483E+00
          1   -1    0    0  501    0  0.00000000000E+00  0.00000000000E+00  0.13989477426E+03  0.13989477426E+03  0.00000000000E+00 0. -1.
         -1   -1    0    0    0  501 -0.00000000000E+00 -0.00000000000E+00 -0.35780011336E+03  0.35780011336E+03  0.00000000000E+00 0.  1.
         23    2    1    2    0    0 -0.10899805993E+03 -0.17416458125E+03 -0.44989109903E+02  0.22915457268E+03  0.90961089141E+02 0.  0.
         13    1    3    3    0    0 -0.81639054703E+02 -0.70291203091E+02 -0.55571214124E+02  0.12121859727E+03  0.00000000000E+00 0. -1.
        -13    1    3    3    0    0 -0.27359005231E+02 -0.10387337816E+03  0.10582104221E+02  0.10793597541E+03  0.00000000000E+00 0.  1.
         22    1    1    2    0    0  0.10899805993E+03  0.17416458125E+03 -0.17291622919E+03  0.26854031494E+03  0.00000000000E+00 0.  1.
<mgrwt>
<rscale>  0 0.44745666E+03</rscale>
<asrwt>0</asrwt>
<pdfrwt beam="1">  1        1 0.21522273E-01 0.44745666E+03</pdfrwt>
<pdfrwt beam="2">  1       -1 0.55046170E-01 0.44745666E+03</pdfrwt>
<totfact> 0.79838884E+02</totfact>
</mgrwt>
</event>
<event>
 6    1  0.1762360E-005  0.1878275E+04  0.7818608E-02  0.8665746E-01
         -2   -1    0    0    0  501 -0.00000000000E+00  0.00000000000E+00  0.31156245499E+03  0.31156245499E+03  0.00000000000E+00 0.  1.
          2   -1    0    0  501    0  0.00000000000E+00 -0.00000000000E+00 -0.28308274555E+04  0.28308274555E+04  0.00000000000E+00 0. -1.
         23    2    1    2    0    0  0.37102495510E+03  0.63725817979E+03 -0.29550846949E+03  0.79956029348E+03  0.90630581804E+02 0.  0.
         11    1    3    3    0    0  0.36946673274E+03  0.59426402343E+03 -0.27431475397E+03  0.75160094491E+03  0.00000000000E+00 0. -1.
        -11    1    3    3    0    0  0.15582223627E+01  0.42994156364E+02 -0.21193715519E+02  0.47959348577E+02  0.00000000000E+00 0.  1.
         22    1    1    2    0    0 -0.37102495510E+03 -0.63725817979E+03 -0.22237565310E+04  0.23428296170E+04  0.00000000000E+00 0.  1.
<mgrwt>
<rscale>  0 0.18782753E+04</rscale>
<asrwt>0</asrwt>
<pdfrwt beam="1">  1        2 0.43551191E+00 0.18782753E+04</pdfrwt>
<pdfrwt beam="2">  1       -2 0.47932686E-01 0.18782753E+04</pdfrwt>
<totfact> 0.85886073E+00</totfact>
</mgrwt>
</event>
<event>
 6    1  0.1762360E-005  0.9026762E+03  0.7818608E-02  0.9422242E-01
          1   -1    0    0  501    0  0.00000000000E+00  0.00000000000E+00  0.99496393262E+03  0.99496393262E+03  0.00000000000E+00 0. -1.
         -1   -1    0    0    0  501 -0.00000000000E+00 -0.00000000000E+00 -0.20473714660E+03  0.20473714660E+03  0.00000000000E+00 0.  1.
         23    2    1    2    0    0 -0.21196148987E+03  0.37519267955E+03  0.24249477882E+03  0.50277384364E+03  0.90997802855E+02 0.  0.
         11    1    3    3    0    0 -0.17631072738E+03  0.23704623298E+03  0.18730277181E+03  0.34979810961E+03  0.00000000000E+00 0.  1.
        -11    1    3    3    0    0 -0.35650762487E+02  0.13814644657E+03  0.55192007008E+02  0.15297573403E+03  0.00000000000E+00 0. -1.
         22    1    1    2    0    0  0.21196148987E+03 -0.37519267955E+03  0.54773200720E+03  0.69692723557E+03  0.00000000000E+00 0. -1.
<mgrwt>
<rscale>  0 0.90267619E+03</rscale>
<asrwt>0</asrwt>
<pdfrwt beam="1">  1        1 0.15307137E+00 0.90267619E+03</pdfrwt>
<pdfrwt beam="2">  1       -1 0.31498023E-01 0.90267619E+03</pdfrwt>
<totfact> 0.14384959E+02</totfact>
</mgrwt>
</event>
<event>
 6    1  0.1762360E-005  0.1357536E+04  0.7818608E-02  0.8985143E-01
         -2   -1    0    0    0  501 -0.00000000000E+00  0.00000000000E+00  0.52801549826E+03  0.52801549826E+03  0.00000000000E+00 0.  1.
          2   -1    0    0  501    0  0.00000000000E+00 -0.00000000000E+00 -0.87256094412E+03  0.87256094412E+03  0.00000000000E+00 0. -1.
         23    2    1    2    0    0  0.49745621267E+03 -0.15526677140E+02 -0.64461871872E+03  0.81941576725E+03  0.90582260180E+02 0.  0.
         11    1    3    3    0    0  0.32819884704E+03 -0.33805372292E+02 -0.36472693527E+03  0.49181604661E+03  0.00000000000E+00 0. -1.
        -11    1    3    3    0    0  0.16925736563E+03  0.18278695151E+02 -0.27989178345E+03  0.32759972064E+03  0.00000000000E+00 0.  1.
         22    1    1    2    0    0 -0.49745621267E+03  0.15526677140E+02  0.30007327286E+03  0.58116067513E+03  0.00000000000E+00 0.  1.
<mgrwt>
<rscale>  0 0.13575356E+04</rscale>
<asrwt>0</asrwt>
<pdfrwt beam="1">  1        2 0.13424014E+00 0.13575356E+04</pdfrwt>
<pdfrwt beam="2">  1       -2 0.81233155E-01 0.13575356E+04</pdfrwt>
<totfact> 0.39927592E+01</totfact>
</mgrwt>
</event>
<event>
 6    1  0.1762360E-005  0.5827635E+04  0.7818608E-02  0.7712148E-01
          2   -1    0    0  501    0  0.00000000000E+00  0.00000000000E+00  0.50841879533E+04  0.50841879533E+04  0.00000000000E+00 0. -1.
         -2   -1    0    0    0  501 -0.00000000000E+00 -0.00000000000E+00 -0.16699486178E+04  0.16699486178E+04  0.00000000000E+00 0.  1.
         23    2    1    2    0    0 -0.90769736060E+03  0.12072971596E+04 -0.11792966872E+04  0.19186372047E+04  0.94589199709E+02 0.  0.
         13    1    3    3    0    0 -0.76226533611E+03  0.95726742340E+03 -0.93460646041E+03  0.15397722554E+04  0.00000000000E+00 0. -1.
        -13    1    3    3    0    0 -0.14543202449E+03  0.25002973619E+03 -0.24469022683E+03  0.37886494934E+03  0.00000000000E+00 0.  1.
         22    1    1    2    0    0  0.90769736060E+03 -0.12072971596E+04  0.45935360227E+04  0.48354993664E+04  0.00000000000E+00 0. -1.
<mgrwt>
<rscale>  0 0.58276351E+04</rscale>
<asrwt>0</asrwt>
<pdfrwt beam="1">  1        2 0.78218276E+00 0.58276351E+04</pdfrwt>
<pdfrwt beam="2">  1       -2 0.25691517E+00 0.58276351E+04</pdfrwt>
<totfact> 0.10369660E-03</totfact>
</mgrwt>
</event>
<event>
 6    1  0.1762360E-005  0.3354720E+04  0.7818608E-02  0.8149110E-01
          2   -1    0    0  501    0  0.00000000000E+00  0.00000000000E+00  0.15187667652E+04  0.15187667652E+04  0.00000000000E+00 0. -1.
         -2   -1    0    0    0  501 -0.00000000000E+00 -0.00000000000E+00 -0.18525139048E+04  0.18525139048E+04  0.00000000000E+00 0.  1.
         23    2    1    2    0    0  0.14131435437E+04 -0.55333588474E+03  0.54799706244E+03  0.16161088510E+04  0.91387971398E+02 0.  0.
         11    1    3    3    0    0  0.38006551863E+03 -0.16688960543E+03  0.11076521001E+03  0.42961712094E+03  0.00000000000E+00 0. -1.
        -11    1    3    3    0    0  0.10330780251E+04 -0.38644627931E+03  0.43723185243E+03  0.11864917300E+04  0.00000000000E+00 0.  1.
         22    1    1    2    0    0 -0.14131435437E+04  0.55333588474E+03 -0.88174420203E+03  0.17551718190E+04  0.00000000000E+00 0.  1.
<mgrwt>
<rscale>  0 0.33547200E+04</rscale>
<asrwt>0</asrwt>
<pdfrwt beam="1">  1        2 0.23365643E+00 0.33547200E+04</pdfrwt>
<pdfrwt beam="2">  1       -2 0.28500214E+00 0.33547200E+04</pdfrwt>
<totfact> 0.40431745E-01</totfact>
</mgrwt>
</event>
<event>
 6    1  0.1762360E-005  0.3314112E+04  0.7818608E-02  0.8159314E-01
          1   -1    0    0  501    0  0.00000000000E+00  0.00000000000E+00  0.24588654949E+04  0.24588654949E+04  0.00000000000E+00 0. -1.
         -1   -1    0    0    0  501 -0.00000000000E+00 -0.00000000000E+00 -0.11167079519E+04  0.11167079519E+04  0.00000000000E+00 0.  1.
         23    2    1    2    0    0  0.12632881548E+04  0.10703236753E+04  0.65786669257E+03  0.17839976878E+04  0.91484605239E+02 0.  0.
         13    1    3    3    0    0  0.57461605785E+03  0.54637545848E+03  0.30915292991E+03  0.85104952243E+03  0.00000000000E+00 0. -1.
        -13    1    3    3    0    0  0.68867209697E+03  0.52394821682E+03  0.34871376266E+03  0.93294816540E+03  0.00000000000E+00 0.  1.
         22    1    1    2    0    0 -0.12632881548E+04 -0.10703236753E+04  0.68429085051E+03  0.17915757590E+04  0.00000000000E+00 0. -1.
<mgrwt>
<rscale>  0 0.33141120E+04</rscale>
<asrwt>0</asrwt>
<pdfrwt beam="1">  1        1 0.37828700E+00 0.33141120E+04</pdfrwt>
<pdfrwt beam="2">  1       -1 0.17180122E+00 0.33141120E+04</pdfrwt>
<totfact> 0.28606547E-01</totfact>
</mgrwt>
</event>
<event>
 6    1  0.1762360E-005  0.1206417E+04  0.7818608E-02  0.9107258E-01
          2   -1    0    0  501    0  0.00000000000E+00  0.00000000000E+00  0.36790350231E+04  0.36790350231E+04  0.00000000000E+00 0. -1.
         -2   -1    0    0    0  501 -0.00000000000E+00 -0.00000000000E+00 -0.98901150355E+02  0.98901150355E+02  0.00000000000E+00 0.  1.
         23    2    1    2    0    0 -0.33017949448E+02  0.37661763450E+03  0.32583196250E+04  0.32814531046E+04  0.91414831041E+02 0.  0.
         11    1    3    3    0    0  0.17485299447E+02  0.19078226753E+03  0.13680900647E+04  0.13814391171E+04  0.00000000000E+00 0. -1.
        -11    1    3    3    0    0 -0.50503248895E+02  0.18583536697E+03  0.18902295603E+04  0.19000139875E+04  0.00000000000E+00 0.  1.
         22    1    1    2    0    0  0.33017949448E+02 -0.37661763450E+03  0.32181424770E+03  0.49648306883E+03  0.00000000000E+00 0.  1.
<mgrwt>
<rscale>  0 0.12064175E+04</rscale>
<asrwt>0</asrwt>
<pdfrwt beam="1">  1        2 0.56600528E+00 0.12064175E+04</pdfrwt>
<pdfrwt beam="2">  1       -2 0.15215564E-01 0.12064175E+04</pdfrwt>
<totfact> 0.21073726E+01</totfact>
</mgrwt>
</event>
<event>
 6    1  0.1762360E-005  0.8683717E+03  0.7818608E-02  0.9466006E-01
         -1   -1    0    0    0  501 -0.00000000000E+00  0.00000000000E+00  0.12482603764E+03  0.12482603764E+03  0.00000000000E+00 0.  1.
          1   -1    0    0  501    0  0.00000000000E+00 -0.00000000000E+00 -0.15102404805E+04  0.15102404805E+04  0.00000000000E+00 0. -1.
         23    2    1    2    0    0 -0.14559313016E+03 -0.16260801033E+03 -0.13965491633E+04  0.14165197117E+04  0.92411057353E+02 0.  0.
         11    1    3    3    0    0  0.11785221133E+02 -0.26286253463E+02 -0.16764633498E+03  0.17010335738E+03  0.00000000000E+00 0.  1.
        -11    1    3    3    0    0 -0.15737835130E+03 -0.13632175687E+03 -0.12289028284E+04  0.12464163544E+04  0.00000000000E+00 0. -1.
         22    1    1    2    0    0  0.14559313016E+03  0.16260801033E+03  0.11134720524E+02  0.21854680637E+03  0.00000000000E+00 0.  1.
<mgrwt>
<rscale>  0 0.86837166E+03</rscale>
<asrwt>0</asrwt>
<pdfrwt beam="1">  1        1 0.23234469E+00 0.86837166E+03</pdfrwt>
<pdfrwt beam="2">  1       -1 0.19204006E-01 0.86837166E+03</pdfrwt>
<totfact> 0.14241413E+02</totfact>
</mgrwt>
</event>
<event>
 6    1  0.1762360E-005  0.6083518E+04  0.7818608E-02  0.7680132E-01
          1   -1    0    0  501    0  0.00000000000E+00  0.00000000000E+00  0.28803182282E+04  0.28803182282E+04  0.00000000000E+00 0. -1.
         -1   -1    0    0    0  501 -0.00000000000E+00 -0.00000000000E+00 -0.32122488704E+04  0.32122488704E+04  0.00000000000E+00 0.  1.
         23    2    1    2    0    0  0.24129363786E+04  0.18437538301E+04 -0.32921363718E+03  0.30558422945E+04  0.90001981808E+02 0.  0.
         13    1    3    3    0    0  0.16598199712E+04  0.13200302019E+04 -0.22568998327E+03  0.21327020512E+04  0.00000000000E+00 0. -1.
        -13    1    3    3    0    0  0.75311640749E+03  0.52372362821E+03 -0.10352365392E+03  0.92314024335E+03  0.00000000000E+00 0.  1.
         22    1    1    2    0    0 -0.24129363786E+04 -0.18437538301E+04 -0.27170049438E+01  0.30367248041E+04  0.00000000000E+00 0. -1.
<mgrwt>
<rscale>  0 0.60835184E+04</rscale>
<asrwt>0</asrwt>
<pdfrwt beam="1">  1        1 0.44312588E+00 0.60835184E+04</pdfrwt>
<pdfrwt beam="2">  1       -1 0.49419213E+00 0.60835184E+04</pdfrwt>
<totfact> 0.79527361E-04</totfact>
</mgrwt>
</event>
<event>
 6    1  0.1762360E-005  0.4000436E+04  0.7818608E-02  0.8004459E-01
         -1   -1    0    0    0  501 -0.00000000000E+00  0.00000000000E+00  0.18563556172E+04  0.18563556172E+04  0.00000000000E+00 0.  1.
          1   -1    0    0  501    0  0.00000000000E+00 -0.00000000000E+00 -0.21552288202E+04  0.21552288202E+04  0.00000000000E+00 0. -1.
         23    2    1    2    0    0  0.53859036435E+03 -0.69280340607E+03 -0.19508041211E+04  0.21410412279E+04  0.91458629161E+02 0.  0.
         13    1    3    3    0    0  0.16072465018E+03 -0.20867747338E+03 -0.48794986422E+03  0.55450317498E+03  0.00000000000E+00 0.  1.
        -13    1    3    3    0    0  0.37786571417E+03 -0.48412593269E+03 -0.14628542569E+04  0.15865380530E+04  0.00000000000E+00 0. -1.
         22    1    1    2    0    0 -0.53859036435E+03  0.69280340607E+03  0.16519309182E+04  0.18705432095E+04  0.00000000000E+00 0.  1.
<mgrwt>
<rscale>  0 0.40004355E+04</rscale>
<asrwt>0</asrwt>
<pdfrwt beam="1">  1        1 0.33157366E+00 0.40004355E+04</pdfrwt>
<pdfrwt beam="2">  1       -1 0.28559317E+00 0.40004355E+04</pdfrwt>
<totfact> 0.74897226E-02</totfact>
</mgrwt>
</event>
<event>
 6    1  0.1831459E-005  0.3049619E+04  0.7818608E-02  0.8229702E-01
          1   -1    0    0  501    0  0.00000000000E+00  0.00000000000E+00  0.30810507933E+04  0.30810507933E+04  0.00000000000E+00 0. -1.
         -1   -1    0    0    0  501 -0.00000000000E+00 -0.00000000000E+00 -0.75462698240E+03  0.75462698240E+03  0.00000000000E+00 0.  1.
         23    2    1    2    0    0 -0.12663632855E+04 -0.73607053109E+03  0.63911839784E+03  0.16012929936E+04  0.10095111317E+03 0.  0.
         11    1    3    3    0    0 -0.61193324509E+03 -0.30713330792E+03  0.26793872336E+03  0.73524439798E+03  0.00000000000E+00 0. -1.
        -11    1    3    3    0    0 -0.65443004042E+03 -0.42893722317E+03  0.37117967448E+03  0.86604859561E+03  0.00000000000E+00 0.  1.
         22    1    1    2    0    0  0.12663632855E+04  0.73607053109E+03  0.16873054131E+04  0.22343847821E+04  0.00000000000E+00 0. -1.
<mgrwt>
<rscale>  0 0.30496190E+04</rscale>
<asrwt>0</asrwt>
<pdfrwt beam="1">  1        1 0.47400781E+00 0.30496190E+04</pdfrwt>
<pdfrwt beam="2">  1       -1 0.11609646E+00 0.30496190E+04</pdfrwt>
<totfact> 0.29609059E-01</totfact>
</mgrwt>
</event>
<event>
 6    1  0.1762360E-005  0.2119226E+04  0.7818608E-02  0.8552821E-01
         -1   -1    0    0    0  501 -0.00000000000E+00  0.00000000000E+00  0.59931341210E+03  0.59931341210E+03  0.00000000000E+00 0.  1.
          1   -1    0    0  501    0  0.00000000000E+00 -0.00000000000E+00 -0.18734429684E+04  0.18734429684E+04  0.00000000000E+00 0. -1.
         23    2    1    2    0    0 -0.13330743612E+03  0.75648062735E+03 -0.14865744088E+04  0.16757829635E+04  0.91166088410E+02 0.  0.
         13    1    3    3    0    0 -0.94447587838E+02  0.36460714679E+03 -0.80167934983E+03  0.88574742352E+03  0.00000000000E+00 0.  1.
        -13    1    3    3    0    0 -0.38859848282E+02  0.39187348056E+03 -0.68489505901E+03  0.79003553998E+03  0.00000000000E+00 0. -1.
         22    1    1    2    0    0  0.13330743612E+03 -0.75648062735E+03  0.21244485251E+03  0.79697341702E+03  0.00000000000E+00 0.  1.
<mgrwt>
<rscale>  0 0.21192258E+04</rscale>
<asrwt>0</asrwt>
<pdfrwt beam="1">  1        1 0.28822200E+00 0.21192258E+04</pdfrwt>
<pdfrwt beam="2">  1       -1 0.92202063E-01 0.21192258E+04</pdfrwt>
<totfact> 0.38170244E+00</totfact>
</mgrwt>
</event>
<event>
 6    1  0.1762360E-005  0.2879096E+04  0.7818608E-02  0.8279124E-01
         -2   -1    0    0    0  501 -0.00000000000E+00  0.00000000000E+00  0.16210158572E+04  0.16210158572E+04  0.00000000000E+00 0. -1.
          2   -1    0    0  501    0  0.00000000000E+00 -0.00000000000E+00 -0.12783952882E+04  0.12783952882E+04  0.00000000000E+00 0.  1.
         23    2    1    2    0    0 -0.13317643175E+04 -0.54242731243E+03  0.19193815960E+03  0.14535450468E+04  0.90162960122E+02 0.  0.
         13    1    3    3    0    0 -0.89008085631E+03 -0.34462228610E+03  0.16685173128E+03  0.96894166546E+03  0.00000000000E+00 0. -1.
        -13    1    3    3    0    0 -0.44168346117E+03 -0.19780502633E+03  0.25086428326E+02  0.48460338133E+03  0.00000000000E+00 0.  1.
         22    1    1    2    0    0  0.13317643175E+04  0.54242731243E+03  0.15068240939E+03  0.14458660986E+04  0.00000000000E+00 0.  1.
<mgrwt>
<rscale>  0 0.28790964E+04</rscale>
<asrwt>0</asrwt>
<pdfrwt beam="1">  1        2 0.19667620E+00 0.28790964E+04</pdfrwt>
<pdfrwt beam="2">  1       -2 0.24938706E+00 0.28790964E+04</pdfrwt>
<totfact> 0.95382254E-01</totfact>
</mgrwt>
</event>
<event>
 6    1  0.1762360E-005  0.3703865E+04  0.7818608E-02  0.8067106E-01
          1   -1    0    0  501    0  0.00000000000E+00  0.00000000000E+00  0.35840195727E+04  0.35840195727E+04  0.00000000000E+00 0. -1.
         -1   -1    0    0    0  501 -0.00000000000E+00 -0.00000000000E+00 -0.95692950066E+03  0.95692950066E+03  0.00000000000E+00 0.  1.
         23    2    1    2    0    0 -0.87866496100E+03  0.16260593717E+04  0.14325773852E+04  0.23402715066E+04  0.92041108218E+02 0.  0.
         13    1    3    3    0    0 -0.54771648528E+03  0.10068730306E+04  0.94433432780E+03  0.14851107604E+04  0.00000000000E+00 0. -1.
        -13    1    3    3    0    0 -0.33094847571E+03  0.61918634111E+03  0.48824305744E+03  0.85516074614E+03  0.00000000000E+00 0.  1.
         22    1    1    2    0    0  0.87866496100E+03 -0.16260593717E+04  0.11945126868E+04  0.22006775668E+04  0.00000000000E+00 0. -1.
<mgrwt>
<rscale>  0 0.37038650E+04</rscale>
<asrwt>0</asrwt>
<pdfrwt beam="1">  1        1 0.55138762E+00 0.37038650E+04</pdfrwt>
<pdfrwt beam="2">  1       -1 0.14721993E+00 0.37038650E+04</pdfrwt>
<totfact> 0.62938795E-02</totfact>
</mgrwt>
</event>
<event>
 6    1  0.1762360E-005  0.4168848E+04  0.7818608E-02  0.7971324E-01
         -2   -1    0    0    0  501 -0.00000000000E+00  0.00000000000E+00  0.14618601698E+04  0.14618601698E+04  0.00000000000E+00 0.  1.
          2   -1    0    0  501    0  0.00000000000E+00 -0.00000000000E+00 -0.29721202246E+04  0.29721202246E+04  0.00000000000E+00 0. -1.
         23    2    1    2    0    0  0.11087375688E+04 -0.97583516147E+03 -0.23184934935E+04  0.27502955812E+04  0.84619416328E+02 0.  0.
         11    1    3    3    0    0  0.92139935033E+03 -0.78277662687E+03 -0.19413664295E+04  0.22870547925E+04  0.00000000000E+00 0. -1.
        -11    1    3    3    0    0  0.18733821850E+03 -0.19305853460E+03 -0.37712706395E+03  0.46324078863E+03  0.00000000000E+00 0.  1.
         22    1    1    2    0    0 -0.11087375688E+04  0.97583516147E+03  0.80823343866E+03  0.16836848132E+04  0.00000000000E+00 0.  1.
<mgrwt>
<rscale>  0 0.41688484E+04</rscale>
<asrwt>0</asrwt>
<pdfrwt beam="1">  1        2 0.45724926E+00 0.41688484E+04</pdfrwt>
<pdfrwt beam="2">  1       -2 0.22490157E+00 0.41688484E+04</pdfrwt>
<totfact> 0.12975053E-01</totfact>
</mgrwt>
</event>
<event>
 6    1  0.1762360E-005  0.1885569E+04  0.7818608E-02  0.8662073E-01
         -1   -1    0    0    0  501 -0.00000000000E+00  0.00000000000E+00  0.55601795134E+03  0.55601795134E+03  0.00000000000E+00 0.  1.
          1   -1    0    0  501    0  0.00000000000E+00 -0.00000000000E+00 -0.15985862348E+04  0.15985862348E+04  0.00000000000E+00 0. -1.
         23    2    1    2    0    0  0.48859144948E+03  0.80343739669E+03 -0.49881431717E+03  0.10683714161E+04  0.91479532242E+02 0.  0.
         11    1    3    3    0    0  0.22602266627E+03  0.34736187238E+03 -0.26934593084E+03  0.49426080819E+03  0.00000000000E+00 0. -1.
        -11    1    3    3    0    0  0.26256878320E+03  0.45607552431E+03 -0.22946838633E+03  0.57411060791E+03  0.00000000000E+00 0.  1.
         22    1    1    2    0    0 -0.48859144948E+03 -0.80343739669E+03 -0.54375396633E+03  0.10862327701E+04  0.00000000000E+00 0. -1.
<mgrwt>
<rscale>  0 0.18855690E+04</rscale>
<asrwt>0</asrwt>
<pdfrwt beam="1">  1        1 0.24593635E+00 0.18855690E+04</pdfrwt>
<pdfrwt beam="2">  1       -1 0.85541223E-01 0.18855690E+04</pdfrwt>
<totfact> 0.70738007E+00</totfact>
</mgrwt>
</event>
<event>
 6    1  0.1762360E-005  0.2478171E+04  0.7818608E-02  0.8410804E-01
          2   -1    0    0  501    0  0.00000000000E+00  0.00000000000E+00  0.23597089611E+04  0.23597089611E+04  0.00000000000E+00 0.  1.
         -2   -1    0    0    0  501 -0.00000000000E+00 -0.00000000000E+00 -0.65064527474E+03  0.65064527474E+03  0.00000000000E+00 0. -1.
         23    2    1    2    0    0  0.65431441065E+03  0.87093054223E+03  0.14262006543E+03  0.11023728484E+04  0.90763739286E+02 0.  0.
         13    1    3    3    0    0  0.53489138942E+03  0.75730104399E+03  0.13879309359E+03  0.93748450256E+03  0.00000000000E+00 0. -1.
        -13    1    3    3    0    0  0.11942302122E+03  0.11362949825E+03  0.38269718400E+01  0.16488834581E+03  0.00000000000E+00 0.  1.
         22    1    1    2    0    0 -0.65431441065E+03 -0.87093054223E+03  0.15664436209E+04  0.19079813874E+04  0.00000000000E+00 0.  1.
<mgrwt>
<rscale>  0 0.24781715E+04</rscale>
<asrwt>0</asrwt>
<pdfrwt beam="1">  1        2 0.36303215E+00 0.24781715E+04</pdfrwt>
<pdfrwt beam="2">  1       -2 0.10009927E+00 0.24781715E+04</pdfrwt>
<totfact> 0.30862264E+00</totfact>
</mgrwt>
</event>
<event>
 6    1  0.1762360E-005  0.1666150E+04  0.7818608E-02  0.8780909E-01
          1   -1    0    0  501    0  0.00000000000E+00  0.00000000000E+00  0.28731470955E+04  0.28731470955E+04  0.00000000000E+00 0. -1.
         -1   -1    0    0    0  501 -0.00000000000E+00 -0.00000000000E+00 -0.24155197947E+03  0.24155197947E+03  0.00000000000E+00 0.  1.
         23    2    1    2    0    0  0.23908978699E+03  0.37223144427E+03  0.26339010141E+04  0.26722903369E+04  0.89335983815E+02 0.  0.
         13    1    3    3    0    0  0.81587284273E+02  0.16015485458E+03  0.83750219684E+03  0.85657223403E+03  0.00000000000E+00 0. -1.
        -13    1    3    3    0    0  0.15750250271E+03  0.21207658969E+03  0.17963988173E+04  0.18157181028E+04  0.00000000000E+00 0.  1.
         22    1    1    2    0    0 -0.23908978699E+03 -0.37223144427E+03 -0.23058981291E+01  0.44240873806E+03  0.00000000000E+00 0.  1.
<mgrwt>
<rscale>  0 0.16661505E+04</rscale>
<asrwt>0</asrwt>
<pdfrwt beam="1">  1        1 0.44202261E+00 0.16661505E+04</pdfrwt>
<pdfrwt beam="2">  1       -1 0.37161845E-01 0.16661505E+04</pdfrwt>
<totfact> 0.49269583E+00</totfact>
</mgrwt>
</event>
<event>
 6    1  0.1762360E-005  0.2016321E+04  0.7818608E-02  0.8599028E-01
          1   -1    0    0  501    0  0.00000000000E+00  0.00000000000E+00  0.19717947603E+04  0.19717947603E+04  0.00000000000E+00 0. -1.
         -1   -1    0    0    0  501 -0.00000000000E+00 -0.00000000000E+00 -0.51546323956E+03  0.51546323956E+03  0.00000000000E+00 0.  1.
         23    2    1    2    0    0 -0.57944655196E+03  0.31468143049E+03  0.16671315941E+04  0.17950012699E+04  0.88989312418E+02 0.  0.
         13    1    3    3    0    0 -0.43833497637E+03  0.27348714234E+03  0.12421519364E+04  0.13453156513E+04  0.00000000000E+00 0.  1.
        -13    1    3    3    0    0 -0.14111157559E+03  0.41194288144E+02  0.42497965763E+03  0.44968561856E+03  0.00000000000E+00 0. -1.
         22    1    1    2    0    0  0.57944655196E+03 -0.31468143049E+03 -0.21080007332E+03  0.69225672996E+03  0.00000000000E+00 0.  1.
<mgrwt>
<rscale>  0 0.20163211E+04</rscale>
<asrwt>0</asrwt>
<pdfrwt beam="1">  1        1 0.30335304E+00 0.20163211E+04</pdfrwt>
<pdfrwt beam="2">  1       -1 0.79302038E-01 0.20163211E+04</pdfrwt>
<totfact> 0.45845866E+00</totfact>
</mgrwt>
</event>
<event>
 6    1  0.1762360E-005  0.2927088E+04  0.7818608E-02  0.8264863E-01
          2   -1    0    0  501    0  0.00000000000E+00  0.00000000000E+00  0.15738302555E+04  0.15738302555E+04  0.00000000000E+00 0. -1.
         -2   -1    0    0    0  501 -0.00000000000E+00 -0.00000000000E+00 -0.13609859810E+04  0.13609859810E+04  0.00000000000E+00 0.  1.
         23    2    1    2    0    0 -0.10453599103E+04 -0.68685825338E+03 -0.65277291543E+03  0.14136835263E+04  0.88527008071E+02 0.  0.
         11    1    3    3    0    0 -0.23003442658E+03 -0.14452701119E+03 -0.18339139622E+03  0.32777476806E+03  0.00000000000E+00 0. -1.
        -11    1    3    3    0    0 -0.81532548376E+03 -0.54233124220E+03 -0.46938151922E+03  0.10859087583E+04  0.00000000000E+00 0.  1.
         22    1    1    2    0    0  0.10453599103E+04  0.68685825338E+03  0.86561718992E+03  0.15211327101E+04  0.00000000000E+00 0. -1.
<mgrwt>
<rscale>  0 0.29270879E+04</rscale>
<asrwt>0</asrwt>
<pdfrwt beam="1">  1        2 0.24212773E+00 0.29270879E+04</pdfrwt>
<pdfrwt beam="2">  1       -2 0.20938246E+00 0.29270879E+04</pdfrwt>
<totfact> 0.11480407E+00</totfact>
</mgrwt>
</event>
<event>
 6    1  0.1762360E-005  0.1395789E+04  0.7818608E-02  0.8956872E-01
         -2   -1    0    0    0  501 -0.00000000000E+00  0.00000000000E+00  0.14743075891E+03  0.14743075891E+03  0.00000000000E+00 0.  1.
          2   -1    0    0  501    0  0.00000000000E+00 -0.00000000000E+00 -0.33036318383E+04  0.33036318383E+04  0.00000000000E+00 0. -1.
         23    2    1    2    0    0 -0.13751649979E+03 -0.46822597575E+03 -0.28080972607E+04  0.28516273458E+04  0.90674922214E+02 0.  0.
         13    1    3    3    0    0 -0.74407877175E+01 -0.17549492229E+03 -0.94226411342E+03  0.95849647496E+03  0.00000000000E+00 0. -1.
        -13    1    3    3    0    0 -0.13007571207E+03 -0.29273105346E+03 -0.18658331473E+04  0.18931308708E+04  0.00000000000E+00 0.  1.
         22    1    1    2    0    0  0.13751649979E+03  0.46822597575E+03 -0.34810381870E+03  0.59943525144E+03  0.00000000000E+00 0.  1.
<mgrwt>
<rscale>  0 0.13957893E+04</rscale>
<asrwt>0</asrwt>
<pdfrwt beam="1">  1        2 0.50825106E+00 0.13957893E+04</pdfrwt>
<pdfrwt beam="2">  1       -2 0.22681655E-01 0.13957893E+04</pdfrwt>
<totfact> 0.18695370E+01</totfact>
</mgrwt>
</event>
<event>
 6    1  0.1762360E-005  0.1609343E+04  0.7818608E-02  0.8814829E-01
         -2   -1    0    0    0  501 -0.00000000000E+00  0.00000000000E+00  0.25365693484E+03  0.25365693484E+03  0.00000000000E+00 0. -1.
          2   -1    0    0  501    0  0.00000000000E+00 -0.00000000000E+00 -0.25526442038E+04  0.25526442038E+04  0.00000000000E+00 0.  1.
         23    2    1    2    0    0  0.13811138649E+03  0.36677023316E+03  0.66794304315E+02  0.40827744996E+03  0.92918448324E+02 0.  0.
         13    1    3    3    0    0  0.23641224853E+02  0.15578449636E+03 -0.52658249466E+01  0.15765609957E+03  0.00000000000E+00 0. -1.
        -13    1    3    3    0    0  0.11447016164E+03  0.21098573680E+03  0.72060129262E+02  0.25062135039E+03  0.00000000000E+00 0.  1.
         22    1    1    2    0    0 -0.13811138649E+03 -0.36677023316E+03 -0.23657815733E+04  0.23980236887E+04  0.00000000000E+00 0.  1.
<mgrwt>
<rscale>  0 0.16093426E+04</rscale>
<asrwt>0</asrwt>
<pdfrwt beam="1">  1        2 0.39271450E+00 0.16093426E+04</pdfrwt>
<pdfrwt beam="2">  1       -2 0.39024143E-01 0.16093426E+04</pdfrwt>
<totfact> 0.19341247E+01</totfact>
</mgrwt>
</event>
<event>
 6    1  0.1762360E-005  0.1776805E+04  0.7818608E-02  0.8718732E-01
          2   -1    0    0  501    0  0.00000000000E+00  0.00000000000E+00  0.11057411166E+04  0.11057411166E+04  0.00000000000E+00 0. -1.
         -2   -1    0    0    0  501 -0.00000000000E+00 -0.00000000000E+00 -0.71378287148E+03  0.71378287148E+03  0.00000000000E+00 0.  1.
         23    2    1    2    0    0  0.47708995660E+03 -0.68820520815E+03 -0.10018693476E+03  0.84821141569E+03  0.90465178891E+02 0.  0.
         11    1    3    3    0    0  0.24597304383E+03 -0.40297519414E+03 -0.20550895777E+02  0.47256119678E+03  0.00000000000E+00 0. -1.
        -11    1    3    3    0    0  0.23111691278E+03 -0.28523001400E+03 -0.79636038986E+02  0.37565021891E+03  0.00000000000E+00 0.  1.
         22    1    1    2    0    0 -0.47708995660E+03  0.68820520815E+03  0.49214517989E+03  0.97131257240E+03  0.00000000000E+00 0. -1.
<mgrwt>
<rscale>  0 0.17768051E+04</rscale>
<asrwt>0</asrwt>
<pdfrwt beam="1">  1        2 0.17011402E+00 0.17768051E+04</pdfrwt>
<pdfrwt beam="2">  1       -2 0.10981275E+00 0.17768051E+04</pdfrwt>
<totfact> 0.13485949E+01</totfact>
</mgrwt>
</event>
<event>
 6    1  0.1762360E-005  0.1855295E+04  0.7818608E-02  0.8677435E-01
         -2   -1    0    0    0  501 -0.00000000000E+00  0.00000000000E+00  0.51777190361E+03  0.51777190361E+03  0.00000000000E+00 0. -1.
          2   -1    0    0  501    0  0.00000000000E+00 -0.00000000000E+00 -0.16619866585E+04  0.16619866585E+04  0.00000000000E+00 0.  1.
         23    2    1    2    0    0 -0.52327066100E+03 -0.11065753731E+02  0.32323165827E+03  0.62176831470E+03  0.90457153880E+02 0.  0.
         13    1    3    3    0    0 -0.14562069922E+03 -0.15914110590E+02  0.13741356310E+03  0.20085102510E+03  0.00000000000E+00 0.  1.
        -13    1    3    3    0    0 -0.37764996178E+03  0.48483568595E+01  0.18581809517E+03  0.42091728960E+03  0.00000000000E+00 0. -1.
         22    1    1    2    0    0  0.52327066100E+03  0.11065753731E+02 -0.14674464131E+04  0.15579902474E+04  0.00000000000E+00 0.  1.
<mgrwt>
<rscale>  0 0.18552951E+04</rscale>
<asrwt>0</asrwt>
<pdfrwt beam="1">  1        2 0.25569026E+00 0.18552951E+04</pdfrwt>
<pdfrwt beam="2">  1       -2 0.79657215E-01 0.18552951E+04</pdfrwt>
<totfact> 0.13507347E+01</totfact>
</mgrwt>
</event>
<event>
 6    1  0.1762360E-005  0.1749817E+04  0.7818608E-02  0.8733451E-01
          4   -1    0    0  501    0  0.00000000000E+00  0.00000000000E+00  0.29179948925E+04  0.29179948925E+04  0.00000000000E+00 0.  1.
         -4   -1    0    0    0  501 -0.00000000000E+00 -0.00000000000E+00 -0.26232573755E+03  0.26232573755E+03  0.00000000000E+00 0. -1.
         23    2    1    2    0    0  0.30756318003E+03  0.42147008893E+03  0.59661017649E+02  0.53239872892E+03  0.87503279660E+02 0.  0.
         13    1    3    3    0    0  0.24838965660E+03  0.29132321423E+03  0.69481842527E+02  0.38909428562E+03  0.00000000000E+00 0.  1.
        -13    1    3    3    0    0  0.59173523430E+02  0.13014687470E+03 -0.98208248785E+01  0.14330444330E+03  0.00000000000E+00 0. -1.
         22    1    1    2    0    0 -0.30756318003E+03 -0.42147008893E+03  0.25960081373E+04  0.26479219012E+04  0.00000000000E+00 0.  1.
<mgrwt>
<rscale>  0 0.17498173E+04</rscale>
<asrwt>0</asrwt>
<pdfrwt beam="1">  1        4 0.44892227E+00 0.17498173E+04</pdfrwt>
<pdfrwt beam="2">  1       -4 0.40357808E-01 0.17498173E+04</pdfrwt>
<totfact> 0.34706715E-02</totfact>
</mgrwt>
</event>
<event>
 6    1  0.1762360E-005  0.2799000E+04  0.7818608E-02  0.8303579E-01
          2   -1    0    0  501    0  0.00000000000E+00  0.00000000000E+00  0.15785321050E+04  0.15785321050E+04  0.00000000000E+00 0. -1.
         -2   -1    0    0    0  501 -0.00000000000E+00 -0.00000000000E+00 -0.12407733434E+04  0.12407733434E+04  0.00000000000E+00 0.  1.
         23    2    1    2    0    0  0.64519503933E+03 -0.17669842122E+03  0.14055308322E+04  0.15592910970E+04  0.91503191441E+02 0.  0.
         11    1    3    3    0    0  0.53894372885E+03 -0.15191478857E+03  0.10897062556E+04  0.12251523046E+04  0.00000000000E+00 0. -1.
        -11    1    3    3    0    0  0.10625131047E+03 -0.24783632656E+02  0.31582457661E+03  0.33413879245E+03  0.00000000000E+00 0.  1.
         22    1    1    2    0    0 -0.64519503933E+03  0.17669842122E+03 -0.10677720706E+04  0.12600143514E+04  0.00000000000E+00 0.  1.
<mgrwt>
<rscale>  0 0.27990002E+04</rscale>
<asrwt>0</asrwt>
<pdfrwt beam="1">  1        2 0.24285109E+00 0.27990002E+04</pdfrwt>
<pdfrwt beam="2">  1       -2 0.19088821E+00 0.27990002E+04</pdfrwt>
<totfact> 0.15256189E+00</totfact>
</mgrwt>
</event>
<event>
 6    1  0.1762360E-005  0.2568886E+04  0.7818608E-02  0.8378847E-01
          2   -1    0    0  501    0  0.00000000000E+00  0.00000000000E+00  0.12403871699E+04  0.12403871699E+04  0.00000000000E+00 0.  1.
         -2   -1    0    0    0  501 -0.00000000000E+00 -0.00000000000E+00 -0.13300633370E+04  0.13300633370E+04  0.00000000000E+00 0. -1.
         23    2    1    2    0    0 -0.29889756317E+03 -0.99676905765E+03  0.70576404210E+03  0.12606362323E+04  0.90622952187E+02 0.  0.
         11    1    3    3    0    0 -0.22963500354E+03 -0.61527585019E+03  0.43548484701E+03  0.78799978341E+03  0.00000000000E+00 0.  1.
        -11    1    3    3    0    0 -0.69262559633E+02 -0.38149320747E+03  0.27027919509E+03  0.47263644888E+03  0.00000000000E+00 0. -1.
         22    1    1    2    0    0  0.29889756317E+03  0.99676905765E+03 -0.79544020925E+03  0.13098142746E+04  0.00000000000E+00 0. -1.
<mgrwt>
<rscale>  0 0.25688857E+04</rscale>
<asrwt>0</asrwt>
<pdfrwt beam="1">  1        2 0.19082880E+00 0.25688857E+04</pdfrwt>
<pdfrwt beam="2">  1       -2 0.20462513E+00 0.25688857E+04</pdfrwt>
<totfact> 0.19715580E+00</totfact>
</mgrwt>
</event>
<event>
 6    1  0.1762360E-005  0.2948320E+04  0.7818608E-02  0.8258644E-01
          2   -1    0    0  501    0  0.00000000000E+00  0.00000000000E+00  0.39678072530E+04  0.39678072530E+04  0.00000000000E+00 0. -1.
         -2   -1    0    0    0  501 -0.00000000000E+00 -0.00000000000E+00 -0.54769474936E+03  0.54769474936E+03  0.00000000000E+00 0.  1.
         23    2    1    2    0    0 -0.16181776090E+03 -0.12989783883E+04  0.67807284327E+03  0.14770301265E+04  0.91133818698E+02 0.  0.
         13    1    3    3    0    0 -0.33375677888E+02 -0.10174439986E+03  0.39958083782E+02  0.11429132616E+03  0.00000000000E+00 0.  1.
        -13    1    3    3    0    0 -0.12844208301E+03 -0.11972339885E+04  0.63811475949E+03  0.13627388004E+04  0.00000000000E+00 0. -1.
         22    1    1    2    0    0  0.16181776090E+03  0.12989783883E+04  0.27420396604E+04  0.30384718758E+04  0.00000000000E+00 0.  1.
<mgrwt>
<rscale>  0 0.29483197E+04</rscale>
<asrwt>0</asrwt>
<pdfrwt beam="1">  1        2 0.61043187E+00 0.29483197E+04</pdfrwt>
<pdfrwt beam="2">  1       -2 0.84260733E-01 0.29483197E+04</pdfrwt>
<totfact> 0.38363025E-01</totfact>
</mgrwt>
</event>
<event>
 6    1  0.1762360E-005  0.1847002E+04  0.7818608E-02  0.8681696E-01
         -2   -1    0    0    0  501 -0.00000000000E+00  0.00000000000E+00  0.56891866657E+03  0.56891866657E+03  0.00000000000E+00 0.  1.
          2   -1    0    0  501    0  0.00000000000E+00 -0.00000000000E+00 -0.14990792435E+04  0.14990792435E+04  0.00000000000E+00 0. -1.
         23    2    1    2    0    0  0.28064548734E+03 -0.86810578903E+03 -0.60723081573E+03  0.11001894677E+04  0.96530050492E+02 0.  0.
         13    1    3    3    0    0  0.12029287908E+02 -0.90821437261E+02 -0.91411332868E+02  0.12941896697E+03  0.00000000000E+00 0. -1.
        -13    1    3    3    0    0  0.26861619943E+03 -0.77728435177E+03 -0.51581948286E+03  0.97077050069E+03  0.00000000000E+00 0.  1.
         22    1    1    2    0    0 -0.28064548734E+03  0.86810578903E+03 -0.32292976117E+03  0.96780844239E+03  0.00000000000E+00 0.  1.
<mgrwt>
<rscale>  0 0.18470021E+04</rscale>
<asrwt>0</asrwt>
<pdfrwt beam="1">  1        2 0.23062757E+00 0.18470021E+04</pdfrwt>
<pdfrwt beam="2">  1       -2 0.87525950E-01 0.18470021E+04</pdfrwt>
<totfact> 0.13469986E+01</totfact>
</mgrwt>
</event>
<event>
 6    1  0.1762360E-005  0.1940650E+04  0.7818608E-02  0.8634883E-01
          2   -1    0    0  501    0  0.00000000000E+00  0.00000000000E+00  0.29354827932E+04  0.29354827932E+04  0.00000000000E+00 0. -1.
         -2   -1    0    0    0  501 -0.00000000000E+00 -0.00000000000E+00 -0.32074129079E+03  0.32074129079E+03  0.00000000000E+00 0.  1.
         23    2    1    2    0    0  0.43111578874E+03 -0.18169253774E+01  0.27647743189E+04  0.27997441058E+04  0.93412520835E+02 0.  0.
         11    1    3    3    0    0  0.38465174547E+03 -0.31732870186E+01  0.26082736727E+04  0.26364860300E+04  0.00000000000E+00 0.  1.
        -11    1    3    3    0    0  0.46464043271E+02  0.13563616412E+01  0.15650064620E+03  0.16325807575E+03  0.00000000000E+00 0. -1.
         22    1    1    2    0    0 -0.43111578874E+03  0.18169253774E+01 -0.15003281643E+03  0.45647997823E+03  0.00000000000E+00 0.  1.
<mgrwt>
<rscale>  0 0.19406499E+04</rscale>
<asrwt>0</asrwt>
<pdfrwt beam="1">  1        2 0.45161272E+00 0.19406499E+04</pdfrwt>
<pdfrwt beam="2">  1       -2 0.49344816E-01 0.19406499E+04</pdfrwt>
<totfact> 0.69489509E+00</totfact>
</mgrwt>
</event>
<event>
 6    1  0.1762360E-005  0.1626842E+04  0.7818608E-02  0.8804226E-01
         -1   -1    0    0    0  501 -0.00000000000E+00  0.00000000000E+00  0.45470084983E+03  0.45470084983E+03  0.00000000000E+00 0.  1.
          1   -1    0    0  501    0  0.00000000000E+00 -0.00000000000E+00 -0.14551406050E+04  0.14551406050E+04  0.00000000000E+00 0. -1.
         23    2    1    2    0    0  0.58275861495E+03  0.25296650831E+03  0.89760191754E+02  0.64804290439E+03  0.91121107843E+02 0.  0.
         13    1    3    3    0    0  0.30530191715E+03  0.17559235865E+03  0.71800489033E+02  0.35944018593E+03  0.00000000000E+00 0. -1.
        -13    1    3    3    0    0  0.27745669779E+03  0.77374149654E+02  0.17959702722E+02  0.28860271847E+03  0.00000000000E+00 0.  1.
         22    1    1    2    0    0 -0.58275861495E+03 -0.25296650831E+03 -0.10901999469E+04  0.12617985504E+04  0.00000000000E+00 0. -1.
<mgrwt>
<rscale>  0 0.16268419E+04</rscale>
<asrwt>0</asrwt>
<pdfrwt beam="1">  1        1 0.22386778E+00 0.16268419E+04</pdfrwt>
<pdfrwt beam="2">  1       -1 0.69953978E-01 0.16268419E+04</pdfrwt>
<totfact> 0.13903459E+01</totfact>
</mgrwt>
</event>
<event>
 6    1  0.1762360E-005  0.3239762E+04  0.7818608E-02  0.8178394E-01
          1   -1    0    0  501    0  0.00000000000E+00  0.00000000000E+00  0.27431248611E+04  0.27431248611E+04  0.00000000000E+00 0. -1.
         -1   -1    0    0    0  501 -0.00000000000E+00 -0.00000000000E+00 -0.95657865668E+03  0.95657865668E+03  0.00000000000E+00 0.  1.
         23    2    1    2    0    0  0.84390393407E+03 -0.58091983675E+02 -0.68252002920E+03  0.10897539791E+04  0.78623254761E+02 0.  0.
         11    1    3    3    0    0  0.66862575743E+03 -0.14104517698E+02 -0.54255960952E+03  0.86117958104E+03  0.00000000000E+00 0.  1.
        -11    1    3    3    0    0  0.17527817664E+03 -0.43987465977E+02 -0.13996041968E+03  0.22857439806E+03  0.00000000000E+00 0. -1.
         22    1    1    2    0    0 -0.84390393407E+03  0.58091983675E+02  0.24690662336E+04  0.26099495387E+04  0.00000000000E+00 0. -1.
<mgrwt>
<rscale>  0 0.32397621E+04</rscale>
<asrwt>0</asrwt>
<pdfrwt beam="1">  1        1 0.42201921E+00 0.32397621E+04</pdfrwt>
<pdfrwt beam="2">  1       -1 0.14716595E+00 0.32397621E+04</pdfrwt>
<totfact> 0.27997168E-01</totfact>
</mgrwt>
</event>
<event>
 6    1  0.1762360E-005  0.2952362E+04  0.7818608E-02  0.8257466E-01
          2   -1    0    0  501    0  0.00000000000E+00  0.00000000000E+00  0.37985463971E+04  0.37985463971E+04  0.00000000000E+00 0. -1.
         -2   -1    0    0    0  501 -0.00000000000E+00 -0.00000000000E+00 -0.57366968025E+03  0.57366968025E+03  0.00000000000E+00 0.  1.
         23    2    1    2    0    0 -0.11020260124E+04  0.21768084336E+03  0.30290962045E+04  0.32319633463E+04  0.91197446302E+02 0.  0.
         11    1    3    3    0    0 -0.63628467771E+03  0.13737049503E+03  0.18783231022E+04  0.19879201494E+04  0.00000000000E+00 0. -1.
        -11    1    3    3    0    0 -0.46574133473E+03  0.80310348331E+02  0.11507731023E+04  0.12440431969E+04  0.00000000000E+00 0.  1.
         22    1    1    2    0    0  0.11020260124E+04 -0.21768084336E+03  0.19578051238E+03  0.11402527311E+04  0.00000000000E+00 0.  1.
<mgrwt>
<rscale>  0 0.29523624E+04</rscale>
<asrwt>0</asrwt>
<pdfrwt beam="1">  1        2 0.58439174E+00 0.29523624E+04</pdfrwt>
<pdfrwt beam="2">  1       -2 0.88256876E-01 0.29523624E+04</pdfrwt>
<totfact> 0.46755013E-01</totfact>
</mgrwt>
</event>
<event>
 6    1  0.1762360E-005  0.1266840E+04  0.7818608E-02  0.9056282E-01
          2   -1    0    0  501    0  0.00000000000E+00  0.00000000000E+00  0.35318093685E+04  0.35318093685E+04  0.00000000000E+00 0. -1.
         -2   -1    0    0    0  501 -0.00000000000E+00 -0.00000000000E+00 -0.11360216818E+03  0.11360216818E+03  0.00000000000E+00 0.  1.
         23    2    1    2    0    0  0.19279673456E+03 -0.33782758178E+03  0.31444691991E+04  0.31697745436E+04  0.92119798342E+02 0.  0.
         11    1    3    3    0    0  0.83123983998E+02 -0.12963476919E+03  0.16127397507E+04  0.16200753914E+04  0.00000000000E+00 0.  1.
        -11    1    3    3    0    0  0.10967275056E+03 -0.20819281260E+03  0.15317294484E+04  0.15496991522E+04  0.00000000000E+00 0. -1.
         22    1    1    2    0    0 -0.19279673456E+03  0.33782758178E+03  0.27373800119E+03  0.47563699306E+03  0.00000000000E+00 0.  1.
<mgrwt>
<rscale>  0 0.12668405E+04</rscale>
<asrwt>0</asrwt>
<pdfrwt beam="1">  1        2 0.54335520E+00 0.12668405E+04</pdfrwt>
<pdfrwt beam="2">  1       -2 0.17477259E-01 0.12668405E+04</pdfrwt>
<totfact> 0.20987176E+01</totfact>
</mgrwt>
</event>
<event>
 6    1  0.1762360E-005  0.1519085E+04  0.7818608E-02  0.8871860E-01
          2   -1    0    0  501    0  0.00000000000E+00  0.00000000000E+00  0.98507830507E+03  0.98507830507E+03  0.00000000000E+00 0. -1.
         -2   -1    0    0    0  501 -0.00000000000E+00 -0.00000000000E+00 -0.58564367698E+03  0.58564367698E+03  0.00000000000E+00 0.  1.
         23    2    1    2    0    0 -0.18847634316E+03 -0.70481513974E+02 -0.55385242594E+03  0.59642881102E+03  0.92107769223E+02 0.  0.
         11    1    3    3    0    0 -0.33440196397E+02 -0.56474791924E+02 -0.16550072160E+03  0.17803970823E+03  0.00000000000E+00 0. -1.
        -11    1    3    3    0    0 -0.15503614676E+03 -0.14006722050E+02 -0.38835170434E+03  0.41838910278E+03  0.00000000000E+00 0.  1.
         22    1    1    2    0    0  0.18847634316E+03  0.70481513974E+02  0.95328705403E+03  0.97429317104E+03  0.00000000000E+00 0. -1.
<mgrwt>
<rscale>  0 0.15190851E+04</rscale>
<asrwt>0</asrwt>
<pdfrwt beam="1">  1        2 0.15155051E+00 0.15190851E+04</pdfrwt>
<pdfrwt beam="2">  1       -2 0.90099028E-01 0.15190851E+04</pdfrwt>
<totfact> 0.26198753E+01</totfact>
</mgrwt>
</event>
<event>
 6    1  0.1762360E-005  0.2917657E+04  0.7818608E-02  0.8267643E-01
          1   -1    0    0  501    0  0.00000000000E+00  0.00000000000E+00  0.34988529407E+04  0.34988529407E+04  0.00000000000E+00 0. -1.
         -1   -1    0    0    0  501 -0.00000000000E+00 -0.00000000000E+00 -0.60825109102E+03  0.60825109102E+03  0.00000000000E+00 0.  1.
         23    2    1    2    0    0  0.50925429614E+03  0.45939580563E+03  0.32569557105E+04  0.33295440046E+04  0.87854051123E+02 0.  0.
         13    1    3    3    0    0  0.21468435276E+03  0.24240326902E+03  0.16488681297E+04  0.16803615162E+04  0.00000000000E+00 0.  1.
        -13    1    3    3    0    0  0.29456994338E+03  0.21699253660E+03  0.16080875808E+04  0.16491824884E+04  0.00000000000E+00 0. -1.
         22    1    1    2    0    0 -0.50925429614E+03 -0.45939580563E+03 -0.36635386083E+03  0.77756002708E+03  0.00000000000E+00 0.  1.
<mgrwt>
<rscale>  0 0.29176574E+04</rscale>
<asrwt>0</asrwt>
<pdfrwt beam="1">  1        1 0.53828506E+00 0.29176574E+04</pdfrwt>
<pdfrwt beam="2">  1       -1 0.93577093E-01 0.29176574E+04</pdfrwt>
<totfact> 0.23756809E-01</totfact>
</mgrwt>
</event>
<event>
 6    1  0.1762360E-005  0.2471144E+04  0.7818608E-02  0.8413338E-01
         -4   -1    0    0    0  501 -0.00000000000E+00  0.00000000000E+00  0.11722025341E+04  0.11722025341E+04  0.00000000000E+00 0.  1.
          4   -1    0    0  501    0  0.00000000000E+00 -0.00000000000E+00 -0.13023674455E+04  0.13023674455E+04  0.00000000000E+00 0. -1.
         23    2    1    2    0    0  0.73039013510E+03 -0.51660042418E+03 -0.91615331235E+03  0.12837200671E+04  0.90854670220E+02 0.  0.
         11    1    3    3    0    0  0.23419901616E+03 -0.17470366749E+03 -0.24079985447E+03  0.37862266245E+03  0.00000000000E+00 0.  1.
        -11    1    3    3    0    0  0.49619111894E+03 -0.34189675669E+03 -0.67535345788E+03  0.90509740460E+03  0.00000000000E+00 0. -1.
         22    1    1    2    0    0 -0.73039013510E+03  0.51660042418E+03  0.78598840092E+03  0.11908499125E+04  0.00000000000E+00 0.  1.
<mgrwt>
<rscale>  0 0.24711442E+04</rscale>
<asrwt>0</asrwt>
<pdfrwt beam="1">  1        4 0.20036422E+00 0.24711442E+04</pdfrwt>
<pdfrwt beam="2">  1       -4 0.18033885E+00 0.24711442E+04</pdfrwt>
<totfact> 0.41722973E-02</totfact>
</mgrwt>
</event>
<event>
 6    1  0.1762360E-005  0.6155819E+04  0.7818608E-02  0.7671377E-01
          2   -1    0    0  501    0  0.00000000000E+00  0.00000000000E+00  0.35907475891E+04  0.35907475891E+04  0.00000000000E+00 0. -1.
         -2   -1    0    0    0  501 -0.00000000000E+00 -0.00000000000E+00 -0.26383164036E+04  0.26383164036E+04  0.00000000000E+00 0.  1.
         23    2    1    2    0    0 -0.30636991162E+04  0.17407475939E+03  0.24380875006E+03  0.30796672168E+04  0.91395641037E+02 0.  0.
         11    1    3    3    0    0 -0.13525163543E+04  0.50920305478E+02  0.70140354278E+02  0.13552907567E+04  0.00000000000E+00 0.  1.
        -11    1    3    3    0    0 -0.17111827619E+04  0.12315445391E+03  0.17366839578E+03  0.17243764600E+04  0.00000000000E+00 0. -1.
         22    1    1    2    0    0  0.30636991162E+04 -0.17407475939E+03  0.70862243549E+03  0.31493967759E+04  0.00000000000E+00 0.  1.
<mgrwt>
<rscale>  0 0.61558194E+04</rscale>
<asrwt>0</asrwt>
<pdfrwt beam="1">  1        2 0.55242271E+00 0.61558194E+04</pdfrwt>
<pdfrwt beam="2">  1       -2 0.40589483E+00 0.61558194E+04</pdfrwt>
<totfact> 0.31630504E-03</totfact>
</mgrwt>
</event>
<event>
 6    1  0.1762360E-005  0.2463791E+04  0.7818608E-02  0.8416000E-01
          2   -1    0    0  501    0  0.00000000000E+00  0.00000000000E+00  0.30807733684E+04  0.30807733684E+04  0.00000000000E+00 0. -1.
         -2   -1    0    0    0  501 -0.00000000000E+00 -0.00000000000E+00 -0.49259285899E+03  0.49259285899E+03  0.00000000000E+00 0.  1.
         23    2    1    2    0    0  0.13915270537E+03 -0.82214397685E+03 -0.15581330838E+02  0.83934722328E+03  0.94745919532E+02 0.  0.
         13    1    3    3    0    0  0.98963586320E+02 -0.62975452470E+03  0.27743607550E+02  0.63808640525E+03  0.00000000000E+00 0. -1.
        -13    1    3    3    0    0  0.40189119047E+02 -0.19238945215E+03 -0.43324938388E+02  0.20126081803E+03  0.00000000000E+00 0.  1.
         22    1    1    2    0    0 -0.13915270537E+03  0.82214397685E+03  0.26037618403E+04  0.27340190041E+04  0.00000000000E+00 0. -1.
<mgrwt>
<rscale>  0 0.24637914E+04</rscale>
<asrwt>0</asrwt>
<pdfrwt beam="1">  1        2 0.47396512E+00 0.24637914E+04</pdfrwt>
<pdfrwt beam="2">  1       -2 0.75783519E-01 0.24637914E+04</pdfrwt>
<totfact> 0.21615715E+00</totfact>
</mgrwt>
</event>
<event>
 6    1  0.1762360E-005  0.1334932E+04  0.7818608E-02  0.9002313E-01
          2   -1    0    0  501    0  0.00000000000E+00  0.00000000000E+00  0.22096339916E+04  0.22096339916E+04  0.00000000000E+00 0. -1.
         -2   -1    0    0    0  501 -0.00000000000E+00 -0.00000000000E+00 -0.20162216699E+03  0.20162216699E+03  0.00000000000E+00 0.  1.
         23    2    1    2    0    0 -0.52731134641E+03 -0.38797034039E+03  0.80495841395E+03  0.10416154210E+04  0.91795403429E+02 0.  0.
         13    1    3    3    0    0 -0.41792002738E+03 -0.32740566824E+03  0.59655773224E+03  0.79858171077E+03  0.00000000000E+00 0.  1.
        -13    1    3    3    0    0 -0.10939131902E+03 -0.60564672151E+02  0.20840068171E+03  0.24303371027E+03  0.00000000000E+00 0. -1.
         22    1    1    2    0    0  0.52731134641E+03  0.38797034039E+03  0.12030534107E+04  0.13696407376E+04  0.00000000000E+00 0.  1.
<mgrwt>
<rscale>  0 0.13349325E+04</rscale>
<asrwt>0</asrwt>
<pdfrwt beam="1">  1        2 0.33994367E+00 0.13349325E+04</pdfrwt>
<pdfrwt beam="2">  1       -2 0.31018797E-01 0.13349325E+04</pdfrwt>
<totfact> 0.48127744E+01</totfact>
</mgrwt>
</event>
<event>
 6    1  0.1762360E-005  0.1085473E+04  0.7818608E-02  0.9219467E-01
          1   -1    0    0  501    0  0.00000000000E+00  0.00000000000E+00  0.16059822809E+04  0.16059822809E+04  0.00000000000E+00 0. -1.
         -1   -1    0    0    0  501 -0.00000000000E+00 -0.00000000000E+00 -0.18341613439E+03  0.18341613439E+03  0.00000000000E+00 0.  1.
         23    2    1    2    0    0 -0.33623537327E+03  0.38731750931E+02  0.14076207075E+04  0.14506097778E+04  0.91204695435E+02 0.  0.
         11    1    3    3    0    0 -0.24387502175E+03  0.68698482560E+02  0.10049598899E+04  0.10364067194E+04  0.00000000000E+00 0. -1.
        -11    1    3    3    0    0 -0.92360351518E+02 -0.29966731629E+02  0.40266081762E+03  0.41420305840E+03  0.00000000000E+00 0.  1.
         22    1    1    2    0    0  0.33623537327E+03 -0.38731750931E+02  0.14945439020E+02  0.33878863752E+03  0.00000000000E+00 0.  1.
<mgrwt>
<rscale>  0 0.10854733E+04</rscale>
<asrwt>0</asrwt>
<pdfrwt beam="1">  1        1 0.24707419E+00 0.10854733E+04</pdfrwt>
<pdfrwt beam="2">  1       -1 0.28217868E-01 0.10854733E+04</pdfrwt>
<totfact> 0.62638523E+01</totfact>
</mgrwt>
</event>
<event>
 6    1  0.1762360E-005  0.2374600E+04  0.7818608E-02  0.8449074E-01
          1   -1    0    0  501    0  0.00000000000E+00  0.00000000000E+00  0.95070516464E+03  0.95070516464E+03  0.00000000000E+00 0. -1.
         -1   -1    0    0    0  501 -0.00000000000E+00 -0.00000000000E+00 -0.14827749220E+04  0.14827749220E+04  0.00000000000E+00 0.  1.
         23    2    1    2    0    0 -0.73971888641E+02  0.24167947721E+03 -0.14534065532E+04  0.14781046100E+04  0.92313701134E+02 0.  0.
         11    1    3    3    0    0  0.21293745510E+02  0.28473636193E+02 -0.19320907846E+03  0.19645335211E+03  0.00000000000E+00 0. -1.
        -11    1    3    3    0    0 -0.95265634151E+02  0.21320584102E+03 -0.12601974747E+04  0.12816512579E+04  0.00000000000E+00 0.  1.
         22    1    1    2    0    0  0.73971888641E+02 -0.24167947721E+03  0.92133679580E+03  0.95537547661E+03  0.00000000000E+00 0. -1.
<mgrwt>
<rscale>  0 0.23746004E+04</rscale>
<asrwt>0</asrwt>
<pdfrwt beam="1">  1        1 0.14626233E+00 0.23746004E+04</pdfrwt>
<pdfrwt beam="2">  1       -1 0.22811922E+00 0.23746004E+04</pdfrwt>
<totfact> 0.14441226E+00</totfact>
</mgrwt>
</event>
<event>
 6    1  0.1762360E-005  0.2221484E+04  0.7818608E-02  0.8509539E-01
         -1   -1    0    0    0  501 -0.00000000000E+00  0.00000000000E+00  0.22237515057E+04  0.22237515057E+04  0.00000000000E+00 0.  1.
          1   -1    0    0  501    0  0.00000000000E+00 -0.00000000000E+00 -0.55480450572E+03  0.55480450572E+03  0.00000000000E+00 0. -1.
         23    2    1    2    0    0  0.53246654563E+03  0.57558339828E+03 -0.14485506783E+03  0.80252594794E+03  0.90818697690E+02 0.  0.
         13    1    3    3    0    0  0.16964928922E+03  0.19044992975E+03 -0.44257741976E+01  0.25509144351E+03  0.00000000000E+00 0.  1.
        -13    1    3    3    0    0  0.36281725641E+03  0.38513346853E+03 -0.14042929363E+03  0.54743450443E+03  0.00000000000E+00 0. -1.
         22    1    1    2    0    0 -0.53246654563E+03 -0.57558339828E+03  0.18138020679E+04  0.19760300635E+04  0.00000000000E+00 0.  1.
<mgrwt>
<rscale>  0 0.22214836E+04</rscale>
<asrwt>0</asrwt>
<pdfrwt beam="1">  1        1 0.85354540E-01 0.22214836E+04</pdfrwt>
<pdfrwt beam="2">  1       -1 0.34211561E+00 0.22214836E+04</pdfrwt>
<totfact> 0.61141140E-01</totfact>
</mgrwt>
</event>
<event>
 6    1  0.1762360E-005  0.2906732E+04  0.7818608E-02  0.8270877E-01
          2   -1    0    0  501    0  0.00000000000E+00  0.00000000000E+00  0.14952449444E+04  0.14952449444E+04  0.00000000000E+00 0. -1.
         -2   -1    0    0    0  501 -0.00000000000E+00 -0.00000000000E+00 -0.14126600290E+04  0.14126600290E+04  0.00000000000E+00 0.  1.
         23    2    1    2    0    0 -0.44495038540E+03  0.11318348151E+04 -0.75221812544E+03  0.14328026004E+04  0.89779113185E+02 0.  0.
         13    1    3    3    0    0 -0.27962350945E+03  0.68970631747E+03 -0.51041063734E+03  0.90244286805E+03  0.00000000000E+00 0.  1.
        -13    1    3    3    0    0 -0.16532687595E+03  0.44212849765E+03 -0.24180748810E+03  0.53035973230E+03  0.00000000000E+00 0. -1.
         22    1    1    2    0    0  0.44495038540E+03 -0.11318348151E+04  0.83480304084E+03  0.14751023731E+04  0.00000000000E+00 0.  1.
<mgrwt>
<rscale>  0 0.29067320E+04</rscale>
<asrwt>0</asrwt>
<pdfrwt beam="1">  1        2 0.23003768E+00 0.29067320E+04</pdfrwt>
<pdfrwt beam="2">  1       -2 0.21733231E+00 0.29067320E+04</pdfrwt>
<totfact> 0.11323410E+00</totfact>
</mgrwt>
</event>
<event>
 6    1  0.1762360E-005  0.1102704E+04  0.7818608E-02  0.9202560E-01
          2   -1    0    0  501    0  0.00000000000E+00  0.00000000000E+00  0.12348131759E+04  0.12348131759E+04  0.00000000000E+00 0. -1.
         -2   -1    0    0    0  501 -0.00000000000E+00 -0.00000000000E+00 -0.24618216162E+03  0.24618216162E+03  0.00000000000E+00 0.  1.
         23    2    1    2    0    0  0.35568703356E+03  0.36970979576E+03  0.75422187007E+03  0.91695079512E+03  0.93538935525E+02 0.  0.
         11    1    3    3    0    0  0.30968144881E+03  0.35874878785E+03  0.69394792795E+03  0.84033744367E+03  0.00000000000E+00 0. -1.
        -11    1    3    3    0    0  0.46005584745E+02  0.10961007905E+02  0.60273942117E+02  0.76613351450E+02  0.00000000000E+00 0.  1.
         22    1    1    2    0    0 -0.35568703356E+03 -0.36970979576E+03  0.23440914419E+03  0.56404454239E+03  0.00000000000E+00 0.  1.
<mgrwt>
<rscale>  0 0.11027039E+04</rscale>
<asrwt>0</asrwt>
<pdfrwt beam="1">  1        2 0.18997125E+00 0.11027039E+04</pdfrwt>
<pdfrwt beam="2">  1       -2 0.37874180E-01 0.11027039E+04</pdfrwt>
<totfact> 0.11783334E+02</totfact>
</mgrwt>
</event>
<event>
 6    1  0.1762360E-005  0.1314554E+04  0.7818608E-02  0.9018102E-01
         -1   -1    0    0    0  501 -0.00000000000E+00  0.00000000000E+00  0.12803690138E+04  0.12803690138E+04  0.00000000000E+00 0.  1.
          1   -1    0    0  501    0  0.00000000000E+00 -0.00000000000E+00 -0.33741307670E+03  0.33741307670E+03  0.00000000000E+00 0. -1.
         23    2    1    2    0    0  0.29135669376E+03 -0.10037154014E+03  0.11838668569E+04  0.12266283607E+04  0.90073477248E+02 0.  0.
         11    1    3    3    0    0  0.72020631701E+02 -0.33576667225E+02  0.47507572684E+03  0.48167552377E+03  0.00000000000E+00 0.  1.
        -11    1    3    3    0    0  0.21933606206E+03 -0.66794872917E+02  0.70879113004E+03  0.74495283689E+03  0.00000000000E+00 0. -1.
         22    1    1    2    0    0 -0.29135669376E+03  0.10037154014E+03 -0.24091091980E+03  0.39115372982E+03  0.00000000000E+00 0.  1.
<mgrwt>
<rscale>  0 0.13145543E+04</rscale>
<asrwt>0</asrwt>
<pdfrwt beam="1">  1        1 0.51909705E-01 0.13145543E+04</pdfrwt>
<pdfrwt beam="2">  1       -1 0.19697985E+00 0.13145543E+04</pdfrwt>
<totfact> 0.11649490E+01</totfact>
</mgrwt>
</event>
<event>
 6    1  0.1762360E-005  0.3250798E+04  0.7818608E-02  0.8175529E-01
          2   -1    0    0  501    0  0.00000000000E+00  0.00000000000E+00  0.19651703551E+04  0.19651703551E+04  0.00000000000E+00 0.  1.
         -2   -1    0    0    0  501 -0.00000000000E+00 -0.00000000000E+00 -0.13443733586E+04  0.13443733586E+04  0.00000000000E+00 0. -1.
         23    2    1    2    0    0  0.97759068131E+03  0.11127295011E+04  0.98878311440E+03  0.17833509782E+04  0.93798621708E+02 0.  0.
         13    1    3    3    0    0  0.62171169805E+03  0.73092463609E+03  0.69050283985E+03  0.11821888305E+04  0.00000000000E+00 0.  1.
        -13    1    3    3    0    0  0.35587898325E+03  0.38180486499E+03  0.29828027455E+03  0.60116214771E+03  0.00000000000E+00 0. -1.
         22    1    1    2    0    0 -0.97759068131E+03 -0.11127295011E+04 -0.36798611795E+03  0.15261927355E+04  0.00000000000E+00 0. -1.
<mgrwt>
<rscale>  0 0.32507985E+04</rscale>
<asrwt>0</asrwt>
<pdfrwt beam="1">  1        2 0.30233390E+00 0.32507985E+04</pdfrwt>
<pdfrwt beam="2">  1       -2 0.20682667E+00 0.32507985E+04</pdfrwt>
<totfact> 0.70327078E-01</totfact>
</mgrwt>
</event>
<event>
 6    1  0.1762360E-005  0.5401068E+04  0.7818608E-02  0.7769451E-01
          2   -1    0    0  501    0  0.00000000000E+00  0.00000000000E+00  0.24983998496E+04  0.24983998496E+04  0.00000000000E+00 0. -1.
         -2   -1    0    0    0  501 -0.00000000000E+00 -0.00000000000E+00 -0.29190219513E+04  0.29190219513E+04  0.00000000000E+00 0.  1.
         23    2    1    2    0    0 -0.24430349541E+04 -0.68576942258E+03 -0.11350090472E+04  0.27813170617E+04  0.93699374856E+02 0.  0.
         13    1    3    3    0    0 -0.52614610043E+03 -0.18486049825E+03 -0.26574639057E+03  0.61775744991E+03  0.00000000000E+00 0. -1.
        -13    1    3    3    0    0 -0.19168888536E+04 -0.50090892434E+03 -0.86926265668E+03  0.21635596118E+04  0.00000000000E+00 0.  1.
         22    1    1    2    0    0  0.24430349541E+04  0.68576942258E+03  0.71438694562E+03  0.26361047391E+04  0.00000000000E+00 0. -1.
<mgrwt>
<rscale>  0 0.54010680E+04</rscale>
<asrwt>0</asrwt>
<pdfrwt beam="1">  1        2 0.38436921E+00 0.54010680E+04</pdfrwt>
<pdfrwt beam="2">  1       -2 0.44908030E+00 0.54010680E+04</pdfrwt>
<totfact> 0.86921116E-03</totfact>
</mgrwt>
</event>
<event>
 6    1  0.1762360E-005  0.1084024E+04  0.7818608E-02  0.9220904E-01
         -2   -1    0    0    0  501 -0.00000000000E+00  0.00000000000E+00  0.41531840489E+03  0.41531840489E+03  0.00000000000E+00 0.  1.
          2   -1    0    0  501    0  0.00000000000E+00 -0.00000000000E+00 -0.70735428157E+03  0.70735428157E+03  0.00000000000E+00 0. -1.
         23    2    1    2    0    0  0.12707136278E+03  0.19199897326E+03  0.35683012431E+03  0.43416863839E+03  0.90354479530E+02 0.  0.
         11    1    3    3    0    0 -0.38781390748E+00  0.53427637981E+02  0.44749685988E+02  0.69693595802E+02  0.00000000000E+00 0.  1.
        -11    1    3    3    0    0  0.12745917669E+03  0.13857133528E+03  0.31208043832E+03  0.36447504259E+03  0.00000000000E+00 0. -1.
         22    1    1    2    0    0 -0.12707136278E+03 -0.19199897326E+03 -0.64886600099E+03  0.68850404808E+03  0.00000000000E+00 0. -1.
<mgrwt>
<rscale>  0 0.10840244E+04</rscale>
<asrwt>0</asrwt>
<pdfrwt beam="1">  1        2 0.10882374E+00 0.10840244E+04</pdfrwt>
<pdfrwt beam="2">  1       -2 0.63895139E-01 0.10840244E+04</pdfrwt>
<totfact> 0.91061971E+01</totfact>
</mgrwt>
</event>
<event>
 6    1  0.1762360E-005  0.3409289E+04  0.7818608E-02  0.8135630E-01
         -1   -1    0    0    0  501 -0.00000000000E+00  0.00000000000E+00  0.16292721770E+04  0.16292721770E+04  0.00000000000E+00 0.  1.
          1   -1    0    0  501    0  0.00000000000E+00 -0.00000000000E+00 -0.17835032069E+04  0.17835032069E+04  0.00000000000E+00 0. -1.
         23    2    1    2    0    0  0.39818813603E+03  0.14187514796E+04 -0.93267259408E+03  0.17462278085E+04  0.89575883334E+02 0.  0.
         13    1    3    3    0    0  0.35629040555E+03  0.11415952616E+04 -0.74828743156E+03  0.14107149516E+04  0.00000000000E+00 0. -1.
        -13    1    3    3    0    0  0.41897730478E+02  0.27715621796E+03 -0.18438516251E+03  0.33551285688E+03  0.00000000000E+00 0.  1.
         22    1    1    2    0    0 -0.39818813603E+03 -0.14187514796E+04  0.77844156410E+03  0.16665475754E+04  0.00000000000E+00 0.  1.
<mgrwt>
<rscale>  0 0.34092886E+04</rscale>
<asrwt>0</asrwt>
<pdfrwt beam="1">  1        1 0.27438511E+00 0.34092886E+04</pdfrwt>
<pdfrwt beam="2">  1       -1 0.25065726E+00 0.34092886E+04</pdfrwt>
<totfact> 0.23725823E-01</totfact>
</mgrwt>
</event>
<event>
 6    1  0.1762360E-005  0.4161166E+04  0.7818608E-02  0.7972801E-01
         -2   -1    0    0    0  501 -0.00000000000E+00  0.00000000000E+00  0.25750614481E+04  0.25750614481E+04  0.00000000000E+00 0.  1.
          2   -1    0    0  501    0  0.00000000000E+00 -0.00000000000E+00 -0.16810574828E+04  0.16810574828E+04  0.00000000000E+00 0. -1.
         23    2    1    2    0    0 -0.19761548530E+03 -0.94195769274E+03 -0.14385617753E+04  0.17327879757E+04  0.82207130733E+02 0.  0.
         13    1    3    3    0    0 -0.16148091929E+03 -0.69717455530E+03 -0.11255473021E+04  0.13337860312E+04  0.00000000000E+00 0. -1.
        -13    1    3    3    0    0 -0.36134566013E+02 -0.24478313743E+03 -0.31301447325E+03  0.39900194447E+03  0.00000000000E+00 0.  1.
         22    1    1    2    0    0  0.19761548530E+03  0.94195769274E+03  0.23325657406E+04  0.25233309551E+04  0.00000000000E+00 0.  1.
<mgrwt>
<rscale>  0 0.41611663E+04</rscale>
<asrwt>0</asrwt>
<pdfrwt beam="1">  1        2 0.25862423E+00 0.41611663E+04</pdfrwt>
<pdfrwt beam="2">  1       -2 0.39616330E+00 0.41611663E+04</pdfrwt>
<totfact> 0.61508781E-02</totfact>
</mgrwt>
</event>
<event>
 6    1  0.1762360E-005  0.1504137E+04  0.7818608E-02  0.8881707E-01
          2   -1    0    0  501    0  0.00000000000E+00  0.00000000000E+00  0.17383947531E+04  0.17383947531E+04  0.00000000000E+00 0. -1.
         -2   -1    0    0    0  501 -0.00000000000E+00 -0.00000000000E+00 -0.32536163419E+03  0.32536163419E+03  0.00000000000E+00 0.  1.
         23    2    1    2    0    0 -0.71917588077E+03 -0.94715133753E+02  0.96778998948E+03  0.12126239955E+04  0.87490494694E+02 0.  0.
         13    1    3    3    0    0 -0.10965694838E+03 -0.36882868022E+02  0.19439393813E+03  0.22621670023E+03  0.00000000000E+00 0.  1.
        -13    1    3    3    0    0 -0.60951893239E+03 -0.57832265731E+02  0.77339605135E+03  0.98640729526E+03  0.00000000000E+00 0. -1.
         22    1    1    2    0    0  0.71917588077E+03  0.94715133753E+02  0.44524312939E+03  0.85113239176E+03  0.00000000000E+00 0.  1.
<mgrwt>
<rscale>  0 0.15041369E+04</rscale>
<asrwt>0</asrwt>
<pdfrwt beam="1">  1        2 0.26744534E+00 0.15041369E+04</pdfrwt>
<pdfrwt beam="2">  1       -2 0.50055637E-01 0.15041369E+04</pdfrwt>
<totfact> 0.34045036E+01</totfact>
</mgrwt>
</event>
<event>
 6    1  0.1762360E-005  0.2609733E+04  0.7818608E-02  0.8364903E-01
          1   -1    0    0  501    0  0.00000000000E+00  0.00000000000E+00  0.49544616522E+03  0.49544616522E+03  0.00000000000E+00 0. -1.
         -1   -1    0    0    0  501 -0.00000000000E+00 -0.00000000000E+00 -0.34366531217E+04  0.34366531217E+04  0.00000000000E+00 0.  1.
         23    2    1    2    0    0  0.83794873430E+03  0.91587157730E+03 -0.87320641302E+03  0.15201280858E+04  0.85563601914E+02 0.  0.
         11    1    3    3    0    0  0.25290822440E+03  0.22267863261E+03 -0.22277993056E+03  0.40395450344E+03  0.00000000000E+00 0.  1.
        -11    1    3    3    0    0  0.58504050990E+03  0.69319294469E+03 -0.65042648246E+03  0.11161735823E+04  0.00000000000E+00 0. -1.
         22    1    1    2    0    0 -0.83794873430E+03 -0.91587157730E+03 -0.20680005434E+04  0.24119712011E+04  0.00000000000E+00 0.  1.
<mgrwt>
<rscale>  0 0.26097330E+04</rscale>
<asrwt>0</asrwt>
<pdfrwt beam="1">  1        1 0.76222489E-01 0.26097330E+04</pdfrwt>
<pdfrwt beam="2">  1       -1 0.52871585E+00 0.26097330E+04</pdfrwt>
<totfact> 0.38796775E-02</totfact>
</mgrwt>
</event>
<event>
 6    1  0.1762360E-005  0.2199429E+04  0.7818608E-02  0.8518666E-01
          2   -1    0    0  501    0  0.00000000000E+00  0.00000000000E+00  0.27544150521E+04  0.27544150521E+04  0.00000000000E+00 0. -1.
         -2   -1    0    0    0  501 -0.00000000000E+00 -0.00000000000E+00 -0.43906687898E+03  0.43906687898E+03  0.00000000000E+00 0.  1.
         23    2    1    2    0    0  0.10236075869E+04 -0.35927133104E+03  0.14030976848E+04  0.17760725567E+04  0.94351641514E+02 0.  0.
         11    1    3    3    0    0  0.53385406520E+03 -0.21514423846E+03  0.67953236610E+03  0.89053435804E+03  0.00000000000E+00 0. -1.
        -11    1    3    3    0    0  0.48975352166E+03 -0.14412709258E+03  0.72356531872E+03  0.88553819864E+03  0.00000000000E+00 0.  1.
         22    1    1    2    0    0 -0.10236075869E+04  0.35927133104E+03  0.91225048827E+03  0.14174093744E+04  0.00000000000E+00 0.  1.
<mgrwt>
<rscale>  0 0.21994294E+04</rscale>
<asrwt>0</asrwt>
<pdfrwt beam="1">  1        2 0.42375615E+00 0.21994294E+04</pdfrwt>
<pdfrwt beam="2">  1       -2 0.67548752E-01 0.21994294E+04</pdfrwt>
<totfact> 0.45266608E+00</totfact>
</mgrwt>
</event>
<event>
 6    1  0.1762360E-005  0.1505860E+04  0.7818608E-02  0.8880566E-01
          2   -1    0    0  501    0  0.00000000000E+00  0.00000000000E+00  0.14201561523E+04  0.14201561523E+04  0.00000000000E+00 0. -1.
         -2   -1    0    0    0  501 -0.00000000000E+00 -0.00000000000E+00 -0.39918375095E+03  0.39918375095E+03  0.00000000000E+00 0.  1.
         23    2    1    2    0    0 -0.62087495674E+03  0.38760672615E+03  0.31345614024E+03  0.80134975310E+03  0.90454346904E+02 0.  0.
         13    1    3    3    0    0 -0.20059856100E+02  0.87958818301E+01 -0.57606330252E+01  0.22648405171E+02  0.00000000000E+00 0. -1.
        -13    1    3    3    0    0 -0.60081510064E+03  0.37881084432E+03  0.31921677326E+03  0.77870134793E+03  0.00000000000E+00 0.  1.
         22    1    1    2    0    0  0.62087495674E+03 -0.38760672615E+03  0.70751626116E+03  0.10179901502E+04  0.00000000000E+00 0. -1.
<mgrwt>
<rscale>  0 0.15058596E+04</rscale>
<asrwt>0</asrwt>
<pdfrwt beam="1">  1        2 0.21848556E+00 0.15058596E+04</pdfrwt>
<pdfrwt beam="2">  1       -2 0.61412886E-01 0.15058596E+04</pdfrwt>
<totfact> 0.33544621E+01</totfact>
</mgrwt>
</event>
<event>
 6    1  0.1762360E-005  0.2003257E+04  0.7818608E-02  0.8605100E-01
         -2   -1    0    0    0  501 -0.00000000000E+00  0.00000000000E+00  0.55025629567E+03  0.55025629567E+03  0.00000000000E+00 0.  1.
          2   -1    0    0  501    0  0.00000000000E+00 -0.00000000000E+00 -0.18232580651E+04  0.18232580651E+04  0.00000000000E+00 0. -1.
         23    2    1    2    0    0  0.60188198904E+03 -0.38210961001E+02 -0.15823020437E+04  0.16957321937E+04  0.90032822269E+02 0.  0.
         11    1    3    3    0    0  0.39342294377E+03  0.10474083372E+02 -0.10911343597E+04  0.11599420287E+04  0.00000000000E+00 0.  1.
        -11    1    3    3    0    0  0.20845904527E+03 -0.48685044372E+02 -0.49116768399E+03  0.53579016499E+03  0.00000000000E+00 0. -1.
         22    1    1    2    0    0 -0.60188198904E+03  0.38210961001E+02  0.30930027429E+03  0.67778216703E+03  0.00000000000E+00 0.  1.
<mgrwt>
<rscale>  0 0.20032566E+04</rscale>
<asrwt>0</asrwt>
<pdfrwt beam="1">  1        2 0.28050124E+00 0.20032566E+04</pdfrwt>
<pdfrwt beam="2">  1       -2 0.84654815E-01 0.20032566E+04</pdfrwt>
<totfact> 0.94606703E+00</totfact>
</mgrwt>
</event>
<event>
 6    1  0.1762360E-005  0.8103860E+03  0.7818608E-02  0.9545104E-01
          1   -1    0    0  501    0  0.00000000000E+00  0.00000000000E+00  0.28651869930E+04  0.28651869930E+04  0.00000000000E+00 0. -1.
         -1   -1    0    0    0  501 -0.00000000000E+00 -0.00000000000E+00 -0.57302140397E+02  0.57302140397E+02  0.00000000000E+00 0.  1.
         23    2    1    2    0    0 -0.29552791986E+03  0.21295585518E+03  0.20203796673E+04  0.20548190552E+04  0.87523722689E+02 0.  0.
         13    1    3    3    0    0 -0.13896574460E+03  0.58607924115E+02  0.67959994319E+03  0.69613393088E+03  0.00000000000E+00 0.  1.
        -13    1    3    3    0    0 -0.15656217526E+03  0.15434793106E+03  0.13407797241E+04  0.13586851244E+04  0.00000000000E+00 0. -1.
         22    1    1    2    0    0  0.29552791986E+03 -0.21295585518E+03  0.78750518532E+03  0.86767007818E+03  0.00000000000E+00 0. -1.
<mgrwt>
<rscale>  0 0.81038595E+03</rscale>
<asrwt>0</asrwt>
<pdfrwt beam="1">  1        1 0.44079789E+00 0.81038595E+03</pdfrwt>
<pdfrwt beam="2">  1       -1 0.88157161E-02 0.81038595E+03</pdfrwt>
<totfact> 0.60274069E+01</totfact>
</mgrwt>
</event>
<event>
 6    1  0.1762360E-005  0.3738352E+04  0.7818608E-02  0.8059515E-01
         -2   -1    0    0    0  501 -0.00000000000E+00  0.00000000000E+00  0.20332648298E+04  0.20332648298E+04  0.00000000000E+00 0.  1.
          2   -1    0    0  501    0  0.00000000000E+00 -0.00000000000E+00 -0.17183295445E+04  0.17183295445E+04  0.00000000000E+00 0. -1.
         23    2    1    2    0    0  0.15897497497E+03  0.67992207435E+03  0.18963231707E+04  0.20229085399E+04  0.92467956989E+02 0.  0.
         13    1    3    3    0    0  0.11800947939E+03  0.31991388026E+03  0.86457556904E+03  0.92938799357E+03  0.00000000000E+00 0.  1.
        -13    1    3    3    0    0  0.40965495575E+02  0.36000819409E+03  0.10317476017E+04  0.10935205463E+04  0.00000000000E+00 0. -1.
         22    1    1    2    0    0 -0.15897497497E+03 -0.67992207435E+03 -0.15813878854E+04  0.17286858344E+04  0.00000000000E+00 0. -1.
<mgrwt>
<rscale>  0 0.37383521E+04</rscale>
<asrwt>0</asrwt>
<pdfrwt beam="1">  1        2 0.26435839E+00 0.37383521E+04</pdfrwt>
<pdfrwt beam="2">  1       -2 0.31280997E+00 0.37383521E+04</pdfrwt>
<totfact> 0.20468771E-01</totfact>
</mgrwt>
</event>
<event>
 6    1  0.1838066E-005  0.4261648E+04  0.7818608E-02  0.7953748E-01
          1   -1    0    0  501    0  0.00000000000E+00  0.00000000000E+00  0.17722788484E+04  0.17722788484E+04  0.00000000000E+00 0. -1.
         -1   -1    0    0    0  501 -0.00000000000E+00 -0.00000000000E+00 -0.25619054891E+04  0.25619054891E+04  0.00000000000E+00 0.  1.
         23    2    1    2    0    0 -0.62926572235E+03 -0.54489548325E+03  0.15987565301E+04  0.18049036874E+04  0.93639955210E+02 0.  0.
         11    1    3    3    0    0 -0.41409706443E+03 -0.32833772244E+03  0.92755794285E+03  0.10675419318E+04  0.00000000000E+00 0. -1.
        -11    1    3    3    0    0 -0.21516865792E+03 -0.21655776081E+03  0.67119858722E+03  0.73736175559E+03  0.00000000000E+00 0.  1.
         22    1    1    2    0    0  0.62926572235E+03  0.54489548325E+03 -0.23883831708E+04  0.25292806502E+04  0.00000000000E+00 0.  1.
<mgrwt>
<rscale>  0 0.42616480E+04</rscale>
<asrwt>0</asrwt>
<pdfrwt beam="1">  1        1 0.27265828E+00 0.42616480E+04</pdfrwt>
<pdfrwt beam="2">  1       -1 0.39413931E+00 0.42616480E+04</pdfrwt>
<totfact> 0.25559309E-02</totfact>
</mgrwt>
</event>
<event>
 6    1  0.1762360E-005  0.2625120E+04  0.7818608E-02  0.8359718E-01
         -1   -1    0    0    0  501 -0.00000000000E+00  0.00000000000E+00  0.14613227906E+04  0.14613227906E+04  0.00000000000E+00 0.  1.
          1   -1    0    0  501    0  0.00000000000E+00 -0.00000000000E+00 -0.11789409733E+04  0.11789409733E+04  0.00000000000E+00 0. -1.
         23    2    1    2    0    0 -0.82009359959E+03 -0.59510234299E+03 -0.69546861969E+03  0.12321118588E+04  0.87879012609E+02 0.  0.
         11    1    3    3    0    0 -0.28521506717E+03 -0.22209897002E+03 -0.19991332737E+03  0.41308706768E+03  0.00000000000E+00 0. -1.
        -11    1    3    3    0    0 -0.53487853241E+03 -0.37300337296E+03 -0.49555529233E+03  0.81902479110E+03  0.00000000000E+00 0.  1.
         22    1    1    2    0    0  0.82009359959E+03  0.59510234299E+03  0.97785043697E+03  0.14081519051E+04  0.00000000000E+00 0.  1.
<mgrwt>
<rscale>  0 0.26251197E+04</rscale>
<asrwt>0</asrwt>
<pdfrwt beam="1">  1        1 0.18137553E+00 0.26251197E+04</pdfrwt>
<pdfrwt beam="2">  1       -1 0.22481889E+00 0.26251197E+04</pdfrwt>
<totfact> 0.99436380E-01</totfact>
</mgrwt>
</event>
<event>
 6    1  0.3123690E-005  0.4352865E+04  0.7818608E-02  0.7936915E-01
          2   -1    0    0  501    0  0.00000000000E+00  0.00000000000E+00  0.25945318229E+04  0.25945318229E+04  0.00000000000E+00 0. -1.
         -2   -1    0    0    0  501 -0.00000000000E+00 -0.00000000000E+00 -0.18257084676E+04  0.18257084676E+04  0.00000000000E+00 0.  1.
         23    2    1    2    0    0 -0.17052039856E+04  0.10208339445E+04 -0.51391822375E+03  0.20548125208E+04  0.91213924539E+02 0.  0.
         13    1    3    3    0    0 -0.99957487257E+03  0.57109564079E+03 -0.33726213235E+03  0.11996023936E+04  0.00000000000E+00 0. -1.
        -13    1    3    3    0    0 -0.70562911306E+03  0.44973830374E+03 -0.17665609141E+03  0.85521012721E+03  0.00000000000E+00 0.  1.
         22    1    1    2    0    0  0.17052039856E+04 -0.10208339445E+04  0.12827415791E+04  0.23654277697E+04  0.00000000000E+00 0. -1.
<mgrwt>
<rscale>  0 0.43528651E+04</rscale>
<asrwt>0</asrwt>
<pdfrwt beam="1">  1        2 0.39915874E+00 0.43528651E+04</pdfrwt>
<pdfrwt beam="2">  1       -2 0.28087823E+00 0.43528651E+04</pdfrwt>
<totfact> 0.97778259E-02</totfact>
</mgrwt>
</event>
<event>
 6    1  0.1762360E-005  0.2255335E+04  0.7818608E-02  0.8495743E-01
         -2   -1    0    0    0  501 -0.00000000000E+00  0.00000000000E+00  0.10133495922E+04  0.10133495922E+04  0.00000000000E+00 0.  1.
          2   -1    0    0  501    0  0.00000000000E+00 -0.00000000000E+00 -0.12548816064E+04  0.12548816064E+04  0.00000000000E+00 0. -1.
         23    2    1    2    0    0  0.60184704190E+02 -0.29059670252E+03 -0.12131692050E+04  0.12522846091E+04  0.91479944628E+02 0.  0.
         13    1    3    3    0    0 -0.20400575871E+02 -0.64625365860E+02 -0.34405639503E+03  0.35066711333E+03  0.00000000000E+00 0. -1.
        -13    1    3    3    0    0  0.80585280061E+02 -0.22597133666E+03 -0.86911280994E+03  0.90161749581E+03  0.00000000000E+00 0.  1.
         22    1    1    2    0    0 -0.60184704190E+02  0.29059670252E+03  0.97163719077E+03  0.10159465895E+04  0.00000000000E+00 0.  1.
<mgrwt>
<rscale>  0 0.22553348E+04</rscale>
<asrwt>0</asrwt>
<pdfrwt beam="1">  1        2 0.19305871E+00 0.22553348E+04</pdfrwt>
<pdfrwt beam="2">  1       -2 0.15589994E+00 0.22553348E+04</pdfrwt>
<totfact> 0.43215290E+00</totfact>
</mgrwt>
</event>
<event>
 6    1  0.1762360E-005  0.3550447E+04  0.7818608E-02  0.8101938E-01
         -2   -1    0    0    0  501 -0.00000000000E+00  0.00000000000E+00  0.80707985611E+03  0.80707985611E+03  0.00000000000E+00 0.  1.
          2   -1    0    0  501    0  0.00000000000E+00 -0.00000000000E+00 -0.39047161064E+04  0.39047161064E+04  0.00000000000E+00 0. -1.
         23    2    1    2    0    0 -0.79484807523E+03 -0.14347526158E+04 -0.65281793246E+03  0.17677451582E+04  0.91941067539E+02 0.  0.
         13    1    3    3    0    0 -0.36126255155E+03 -0.67285341416E+03 -0.25585471821E+03  0.80542161936E+03  0.00000000000E+00 0.  1.
        -13    1    3    3    0    0 -0.43358552368E+03 -0.76189920169E+03 -0.39696321425E+03  0.96232353881E+03  0.00000000000E+00 0. -1.
         22    1    1    2    0    0  0.79484807523E+03  0.14347526158E+04 -0.24448183178E+04  0.29440508043E+04  0.00000000000E+00 0. -1.
<mgrwt>
<rscale>  0 0.35504466E+04</rscale>
<asrwt>0</asrwt>
<pdfrwt beam="1">  1        2 0.60072558E+00 0.35504466E+04</pdfrwt>
<pdfrwt beam="2">  1       -2 0.12416613E+00 0.35504466E+04</pdfrwt>
<totfact> 0.16221900E-01</totfact>
</mgrwt>
</event>
<event>
 6    1  0.1762360E-005  0.2171976E+04  0.7818608E-02  0.8530184E-01
         -2   -1    0    0    0  501 -0.00000000000E+00  0.00000000000E+00  0.37771930514E+03  0.37771930514E+03  0.00000000000E+00 0.  1.
          2   -1    0    0  501    0  0.00000000000E+00 -0.00000000000E+00 -0.31223450239E+04  0.31223450239E+04  0.00000000000E+00 0. -1.
         23    2    1    2    0    0  0.94773938525E+03  0.50417042274E+02 -0.22189599455E+04  0.24151328447E+04  0.91277585540E+02 0.  0.
         13    1    3    3    0    0  0.76347296617E+03  0.54031180483E+02 -0.16978676034E+04  0.18624083164E+04  0.00000000000E+00 0. -1.
        -13    1    3    3    0    0  0.18426641907E+03 -0.36141382097E+01 -0.52109234210E+03  0.55272452830E+03  0.00000000000E+00 0.  1.
         22    1    1    2    0    0 -0.94773938525E+03 -0.50417042274E+02 -0.52566577334E+03  0.10849314844E+04  0.00000000000E+00 0.  1.
<mgrwt>
<rscale>  0 0.21719761E+04</rscale>
<asrwt>0</asrwt>
<pdfrwt beam="1">  1        2 0.48036077E+00 0.21719761E+04</pdfrwt>
<pdfrwt beam="2">  1       -2 0.58110663E-01 0.21719761E+04</pdfrwt>
<totfact> 0.37029797E+00</totfact>
</mgrwt>
</event>
<event>
 6    1  0.1762360E-005  0.3258252E+04  0.7818608E-02  0.8173600E-01
          2   -1    0    0  501    0  0.00000000000E+00  0.00000000000E+00  0.30441912949E+04  0.30441912949E+04  0.00000000000E+00 0. -1.
         -2   -1    0    0    0  501 -0.00000000000E+00 -0.00000000000E+00 -0.87184100956E+03  0.87184100956E+03  0.00000000000E+00 0.  1.
         23    2    1    2    0    0 -0.27441023739E+03  0.16045457371E+04  0.10835996352E+04  0.19576538990E+04  0.91392658775E+02 0.  0.
         13    1    3    3    0    0 -0.23019541188E+03  0.13280585333E+04  0.85480516135E+03  0.15960643031E+04  0.00000000000E+00 0.  1.
        -13    1    3    3    0    0 -0.44214825513E+02  0.27648720375E+03  0.22879447383E+03  0.36158959593E+03  0.00000000000E+00 0. -1.
         22    1    1    2    0    0  0.27441023739E+03 -0.16045457371E+04  0.10887506502E+04  0.19583784055E+04  0.00000000000E+00 0.  1.
<mgrwt>
<rscale>  0 0.32582516E+04</rscale>
<asrwt>0</asrwt>
<pdfrwt beam="1">  1        2 0.46833712E+00 0.32582516E+04</pdfrwt>
<pdfrwt beam="2">  1       -2 0.13412939E+00 0.32582516E+04</pdfrwt>
<totfact> 0.54849041E-01</totfact>
</mgrwt>
</event>
<event>
 6    1  0.1762360E-005  0.4982176E+03  0.7818608E-02  0.1014245E+00
         -1   -1    0    0    0  501 -0.00000000000E+00  0.00000000000E+00  0.40339235887E+03  0.40339235887E+03  0.00000000000E+00 0.  1.
          1   -1    0    0  501    0  0.00000000000E+00 -0.00000000000E+00 -0.15383334431E+03  0.15383334431E+03  0.00000000000E+00 0. -1.
         23    2    1    2    0    0 -0.29016607657E+02 -0.99738109436E+02  0.37189175350E+03  0.39674220556E+03  0.91166042772E+02 0.  0.
         13    1    3    3    0    0 -0.43322531326E+02 -0.26833616631E+02  0.74852448247E+02  0.90552601898E+02  0.00000000000E+00 0.  1.
        -13    1    3    3    0    0  0.14305923668E+02 -0.72904492805E+02  0.29703930525E+03  0.30618960366E+03  0.00000000000E+00 0. -1.
         22    1    1    2    0    0  0.29016607657E+02  0.99738109436E+02 -0.12233273893E+03  0.16048349762E+03  0.00000000000E+00 0. -1.
<mgrwt>
<rscale>  0 0.49821761E+03</rscale>
<asrwt>0</asrwt>
<pdfrwt beam="1">  1        1 0.23666669E-01 0.49821761E+03</pdfrwt>
<pdfrwt beam="2">  1       -1 0.62060362E-01 0.49821761E+03</pdfrwt>
<totfact> 0.55869218E+02</totfact>
</mgrwt>
</event>
<event>
 6    1  0.1762360E-005  0.6652945E+03  0.7818608E-02  0.9778496E-01
          1   -1    0    0  501    0  0.00000000000E+00  0.00000000000E+00  0.61813713321E+03  0.61813713321E+03  0.00000000000E+00 0. -1.
         -1   -1    0    0    0  501 -0.00000000000E+00 -0.00000000000E+00 -0.17901239276E+03  0.17901239276E+03  0.00000000000E+00 0.  1.
         23    2    1    2    0    0  0.23891373894E+03  0.14569294793E+03  0.23227011291E+02  0.29587402203E+03  0.93250914902E+02 0.  0.
         13    1    3    3    0    0  0.14496401326E+02  0.18313184510E+02 -0.24056762703E+02  0.33529780943E+02  0.00000000000E+00 0.  1.
        -13    1    3    3    0    0  0.22441733761E+03  0.12737976342E+03  0.47283773994E+02  0.26234424109E+03  0.00000000000E+00 0. -1.
         22    1    1    2    0    0 -0.23891373894E+03 -0.14569294793E+03  0.41589772916E+03  0.50127550394E+03  0.00000000000E+00 0. -1.
<mgrwt>
<rscale>  0 0.66529454E+03</rscale>
<asrwt>0</asrwt>
<pdfrwt beam="1">  1        1 0.95098020E-01 0.66529454E+03</pdfrwt>
<pdfrwt beam="2">  1       -1 0.27540368E-01 0.66529454E+03</pdfrwt>
<totfact> 0.39296013E+02</totfact>
</mgrwt>
</event>
<event>
 6    1  0.1762360E-005  0.3048026E+04  0.7818608E-02  0.8230148E-01
         -1   -1    0    0    0  501 -0.00000000000E+00  0.00000000000E+00  0.12000492061E+04  0.12000492061E+04  0.00000000000E+00 0.  1.
          1   -1    0    0  501    0  0.00000000000E+00 -0.00000000000E+00 -0.19354336017E+04  0.19354336017E+04  0.00000000000E+00 0. -1.
         23    2    1    2    0    0  0.14261849708E+04 -0.50309238632E+03 -0.18617194085E+03  0.15265266740E+04  0.92293957360E+02 0.  0.
         11    1    3    3    0    0  0.11249650708E+04 -0.43423102442E+03 -0.15997925661E+03  0.12164277026E+04  0.00000000000E+00 0. -1.
        -11    1    3    3    0    0  0.30121990005E+03 -0.68861361901E+02 -0.26192684242E+02  0.31009897139E+03  0.00000000000E+00 0.  1.
         22    1    1    2    0    0 -0.14261849708E+04  0.50309238632E+03 -0.54921245472E+03  0.16089561338E+04  0.00000000000E+00 0. -1.
<mgrwt>
<rscale>  0 0.30480260E+04</rscale>
<asrwt>0</asrwt>
<pdfrwt beam="1">  1        1 0.29775901E+00 0.30480260E+04</pdfrwt>
<pdfrwt beam="2">  1       -1 0.18462296E+00 0.30480260E+04</pdfrwt>
<totfact> 0.53884825E-01</totfact>
</mgrwt>
</event>
<event>
 6    1  0.1762360E-005  0.2177002E+04  0.7818608E-02  0.8528062E-01
         -1   -1    0    0    0  501 -0.00000000000E+00  0.00000000000E+00  0.56539337991E+03  0.56539337991E+03  0.00000000000E+00 0.  1.
          1   -1    0    0  501    0  0.00000000000E+00 -0.00000000000E+00 -0.20955924994E+04  0.20955924994E+04  0.00000000000E+00 0. -1.
         23    2    1    2    0    0  0.21819562888E+03 -0.95836018469E+03 -0.20142842427E+03  0.10082018231E+04  0.99166173094E+02 0.  0.
         11    1    3    3    0    0  0.68307999476E+02 -0.20134014590E+03 -0.87303020776E+01  0.21279110723E+03  0.00000000000E+00 0.  1.
        -11    1    3    3    0    0  0.14988762940E+03 -0.75702003880E+03 -0.19269812219E+03  0.79541071585E+03  0.00000000000E+00 0. -1.
         22    1    1    2    0    0 -0.21819562888E+03  0.95836018469E+03 -0.13287706952E+04  0.16527840562E+04  0.00000000000E+00 0.  1.
<mgrwt>
<rscale>  0 0.21770017E+04</rscale>
<asrwt>0</asrwt>
<pdfrwt beam="1">  1        1 0.32239885E+00 0.21770017E+04</pdfrwt>
<pdfrwt beam="2">  1       -1 0.86983596E-01 0.21770017E+04</pdfrwt>
<totfact> 0.30516556E+00</totfact>
</mgrwt>
</event>
<event>
 6    1  0.1762360E-005  0.3075243E+03  0.7818608E-02  0.1081539E+00
         -1   -1    0    0    0  501 -0.00000000000E+00  0.00000000000E+00  0.35495974189E+02  0.35495974189E+02  0.00000000000E+00 0.  1.
          1   -1    0    0  501    0  0.00000000000E+00 -0.00000000000E+00 -0.66607004018E+03  0.66607004018E+03  0.00000000000E+00 0. -1.
         23    2    1    2    0    0 -0.54957865890E+02  0.94705179807E+02 -0.54040371349E+03  0.55972056828E+03  0.96236702453E+02 0.  0.
         11    1    3    3    0    0 -0.27290964164E+02 -0.11250299170E+02 -0.19917535785E+03  0.20135091043E+03  0.00000000000E+00 0. -1.
        -11    1    3    3    0    0 -0.27666901726E+02  0.10595547898E+03 -0.34122835564E+03  0.35836965786E+03  0.00000000000E+00 0.  1.
         22    1    1    2    0    0  0.54957865890E+02 -0.94705179807E+02 -0.90170352503E+02  0.14184544609E+03  0.00000000000E+00 0.  1.
<mgrwt>
<rscale>  0 0.30752434E+03</rscale>
<asrwt>0</asrwt>
<pdfrwt beam="1">  1        1 0.10247231E+00 0.30752434E+03</pdfrwt>
<pdfrwt beam="2">  1       -1 0.54609191E-02 0.30752434E+03</pdfrwt>
<totfact> 0.46730071E+03</totfact>
</mgrwt>
</event>
<event>
 6    1  0.1762360E-005  0.3264731E+04  0.7818608E-02  0.8171928E-01
         -1   -1    0    0    0  501 -0.00000000000E+00  0.00000000000E+00  0.16587794249E+04  0.16587794249E+04  0.00000000000E+00 0.  1.
          1   -1    0    0  501    0  0.00000000000E+00 -0.00000000000E+00 -0.16063723653E+04  0.16063723653E+04  0.00000000000E+00 0. -1.
         23    2    1    2    0    0  0.10646100699E+04 -0.12221124535E+04  0.20848651582E+03  0.16368661130E+04  0.94395946119E+02 0.  0.
         13    1    3    3    0    0  0.62125841676E+03 -0.70710087025E+03  0.16780879473E+03  0.95609280549E+03  0.00000000000E+00 0. -1.
        -13    1    3    3    0    0  0.44335165313E+03 -0.51501158324E+03  0.40677721090E+02  0.68077330750E+03  0.00000000000E+00 0.  1.
         22    1    1    2    0    0 -0.10646100699E+04  0.12221124535E+04 -0.15607945630E+03  0.16282856772E+04  0.00000000000E+00 0. -1.
<mgrwt>
<rscale>  0 0.32647312E+04</rscale>
<asrwt>0</asrwt>
<pdfrwt beam="1">  1        1 0.24713421E+00 0.32647312E+04</pdfrwt>
<pdfrwt beam="2">  1       -1 0.25519684E+00 0.32647312E+04</pdfrwt>
<totfact> 0.29638762E-01</totfact>
</mgrwt>
</event>
<event>
 6    1  0.1762360E-005  0.8665270E+03  0.7818608E-02  0.9468420E-01
         -2   -1    0    0    0  501 -0.00000000000E+00  0.00000000000E+00  0.32823307710E+03  0.32823307710E+03  0.00000000000E+00 0.  1.
          2   -1    0    0  501    0  0.00000000000E+00 -0.00000000000E+00 -0.57190227745E+03  0.57190227745E+03  0.00000000000E+00 0. -1.
         23    2    1    2    0    0  0.12690542591E+03 -0.56195893605E+02  0.29835244635E+03  0.34062625626E+03  0.88028964733E+02 0.  0.
         11    1    3    3    0    0  0.52372737465E+02  0.11653442309E+02  0.16477019164E+03  0.17328566703E+03  0.00000000000E+00 0.  1.
        -11    1    3    3    0    0  0.74532688442E+02 -0.67849335914E+02  0.13358225471E+03  0.16734058923E+03  0.00000000000E+00 0. -1.
         22    1    1    2    0    0 -0.12690542591E+03  0.56195893605E+02 -0.54202164669E+03  0.55950909829E+03  0.00000000000E+00 0. -1.
<mgrwt>
<rscale>  0 0.86652696E+03</rscale>
<asrwt>0</asrwt>
<pdfrwt beam="1">  1        2 0.87984965E-01 0.86652696E+03</pdfrwt>
<pdfrwt beam="2">  1       -2 0.50497397E-01 0.86652696E+03</pdfrwt>
<totfact> 0.19579555E+02</totfact>
</mgrwt>
</event>
<event>
 6    1  0.1762360E-005  0.1354741E+04  0.7818608E-02  0.8987247E-01
         -2   -1    0    0    0  501 -0.00000000000E+00  0.00000000000E+00  0.23007657073E+03  0.23007657073E+03  0.00000000000E+00 0.  1.
          2   -1    0    0  501    0  0.00000000000E+00 -0.00000000000E+00 -0.19942517632E+04  0.19942517632E+04  0.00000000000E+00 0. -1.
         23    2    1    2    0    0 -0.51041433364E+03 -0.41370514044E+03 -0.63655183918E+03  0.91925777565E+03  0.90343117706E+02 0.  0.
         11    1    3    3    0    0 -0.25531201825E+03 -0.15017702358E+03 -0.29622693077E+03  0.41891259182E+03  0.00000000000E+00 0.  1.
        -11    1    3    3    0    0 -0.25510231538E+03 -0.26352811687E+03 -0.34032490841E+03  0.50034518383E+03  0.00000000000E+00 0. -1.
         22    1    1    2    0    0  0.51041433364E+03  0.41370514044E+03 -0.11276233533E+04  0.13050705583E+04  0.00000000000E+00 0.  1.
<mgrwt>
<rscale>  0 0.13547407E+04</rscale>
<asrwt>0</asrwt>
<pdfrwt beam="1">  1        2 0.30680796E+00 0.13547407E+04</pdfrwt>
<pdfrwt beam="2">  1       -2 0.35396396E-01 0.13547407E+04</pdfrwt>
<totfact> 0.49306817E+01</totfact>
</mgrwt>
</event>
<event>
 6    1  0.1762360E-005  0.2667315E+04  0.7818608E-02  0.8345689E-01
          2   -1    0    0  501    0  0.00000000000E+00  0.00000000000E+00  0.18480957604E+04  0.18480957604E+04  0.00000000000E+00 0. -1.
         -2   -1    0    0    0  501 -0.00000000000E+00 -0.00000000000E+00 -0.96241920112E+03  0.96241920112E+03  0.00000000000E+00 0.  1.
         23    2    1    2    0    0  0.31713884176E+02 -0.84934083850E+03 -0.63743119189E+03  0.10663123208E+04  0.91202031920E+02 0.  0.
         13    1    3    3    0    0  0.42872324141E+02 -0.73701033920E+03 -0.58453917923E+03  0.94165191463E+03  0.00000000000E+00 0.  1.
        -13    1    3    3    0    0 -0.11158439965E+02 -0.11233049930E+03 -0.52892012661E+02  0.12466040613E+03  0.00000000000E+00 0. -1.
         22    1    1    2    0    0 -0.31713884176E+02  0.84934083850E+03  0.15231077512E+04  0.17442026408E+04  0.00000000000E+00 0. -1.
<mgrwt>
<rscale>  0 0.26673154E+04</rscale>
<asrwt>0</asrwt>
<pdfrwt beam="1">  1        2 0.28432242E+00 0.26673154E+04</pdfrwt>
<pdfrwt beam="2">  1       -2 0.14806449E+00 0.26673154E+04</pdfrwt>
<totfact> 0.22137364E+00</totfact>
</mgrwt>
</event>
<event>
 6    1  0.1762360E-005  0.3770886E+04  0.7818608E-02  0.8052432E-01
          2   -1    0    0  501    0  0.00000000000E+00  0.00000000000E+00  0.25768150184E+04  0.25768150184E+04  0.00000000000E+00 0. -1.
         -2   -1    0    0    0  501 -0.00000000000E+00 -0.00000000000E+00 -0.13795695380E+04  0.13795695380E+04  0.00000000000E+00 0.  1.
         23    2    1    2    0    0 -0.18801914719E+04  0.91344768331E+02  0.50920987270E+03  0.19521747782E+04  0.90707399149E+02 0.  0.
         11    1    3    3    0    0 -0.79660049675E+03  0.21782267192E+02  0.17261287084E+03  0.81537845309E+03  0.00000000000E+00 0. -1.
        -11    1    3    3    0    0 -0.10835909752E+04  0.69562501139E+02  0.33659700187E+03  0.11367963251E+04  0.00000000000E+00 0.  1.
         22    1    1    2    0    0  0.18801914719E+04 -0.91344768331E+02  0.68803560770E+03  0.20042097782E+04  0.00000000000E+00 0.  1.
<mgrwt>
<rscale>  0 0.37708861E+04</rscale>
<asrwt>0</asrwt>
<pdfrwt beam="1">  1        2 0.39643308E+00 0.37708861E+04</pdfrwt>
<pdfrwt beam="2">  1       -2 0.21224147E+00 0.37708861E+04</pdfrwt>
<totfact> 0.27952549E-01</totfact>
</mgrwt>
</event>
<event>
 6    1  0.1762360E-005  0.1819486E+04  0.7818608E-02  0.8696005E-01
          2   -1    0    0  501    0  0.00000000000E+00  0.00000000000E+00  0.14875603315E+04  0.14875603315E+04  0.00000000000E+00 0. -1.
         -2   -1    0    0    0  501 -0.00000000000E+00 -0.00000000000E+00 -0.55636861051E+03  0.55636861051E+03  0.00000000000E+00 0.  1.
         23    2    1    2    0    0  0.62116218116E+03 -0.45691404226E+03  0.10041852742E+04  0.12693703863E+04  0.91105518580E+02 0.  0.
         13    1    3    3    0    0  0.26608024074E+03 -0.23499234216E+03  0.51425957257E+03  0.62488639237E+03  0.00000000000E+00 0. -1.
        -13    1    3    3    0    0  0.35508194041E+03 -0.22192170010E+03  0.48992570160E+03  0.64448399396E+03  0.00000000000E+00 0.  1.
         22    1    1    2    0    0 -0.62116218116E+03  0.45691404226E+03 -0.72993553206E+02  0.77455855565E+03  0.00000000000E+00 0.  1.
<mgrwt>
<rscale>  0 0.18194855E+04</rscale>
<asrwt>0</asrwt>
<pdfrwt beam="1">  1        2 0.22885543E+00 0.18194855E+04</pdfrwt>
<pdfrwt beam="2">  1       -2 0.85595171E-01 0.18194855E+04</pdfrwt>
<totfact> 0.14421485E+01</totfact>
</mgrwt>
</event>
<event>
 6    1  0.1762360E-005  0.3651303E+04  0.7818608E-02  0.8078840E-01
         -2   -1    0    0    0  501 -0.00000000000E+00  0.00000000000E+00  0.15572668605E+04  0.15572668605E+04  0.00000000000E+00 0.  1.
          2   -1    0    0  501    0  0.00000000000E+00 -0.00000000000E+00 -0.21402907568E+04  0.21402907568E+04  0.00000000000E+00 0. -1.
         23    2    1    2    0    0  0.17626708280E+04 -0.47099476154E+03 -0.29438951715E+03  0.18503558638E+04  0.91143411669E+02 0.  0.
         13    1    3    3    0    0  0.80067646247E+03 -0.19613290125E+03 -0.17552689502E+03  0.84282892889E+03  0.00000000000E+00 0.  1.
        -13    1    3    3    0    0  0.96199436554E+03 -0.27486186029E+03 -0.11886262212E+03  0.10075269349E+04  0.00000000000E+00 0. -1.
         22    1    1    2    0    0 -0.17626708280E+04  0.47099476154E+03 -0.28863437922E+03  0.18472017535E+04  0.00000000000E+00 0.  1.
<mgrwt>
<rscale>  0 0.36513033E+04</rscale>
<asrwt>0</asrwt>
<pdfrwt beam="1">  1        2 0.32927550E+00 0.36513033E+04</pdfrwt>
<pdfrwt beam="2">  1       -2 0.23957952E+00 0.36513033E+04</pdfrwt>
<totfact> 0.33742316E-01</totfact>
</mgrwt>
</event>
<event>
 6    1  0.1762360E-005  0.1720173E+04  0.7818608E-02  0.8749942E-01
         -2   -1    0    0    0  501 -0.00000000000E+00  0.00000000000E+00  0.91523528388E+03  0.91523528388E+03  0.00000000000E+00 0.  1.
          2   -1    0    0  501    0  0.00000000000E+00 -0.00000000000E+00 -0.80826122561E+03  0.80826122561E+03  0.00000000000E+00 0. -1.
         23    2    1    2    0    0 -0.68538312675E+03 -0.22216668925E+03  0.51960037341E+03  0.89321430192E+03  0.93483543332E+02 0.  0.
         13    1    3    3    0    0 -0.51336127388E+03 -0.17253587171E+03  0.33910827468E+03  0.63898579523E+03  0.00000000000E+00 0. -1.
        -13    1    3    3    0    0 -0.17202185287E+03 -0.49630817534E+02  0.18049209873E+03  0.25422850669E+03  0.00000000000E+00 0.  1.
         22    1    1    2    0    0  0.68538312675E+03  0.22216668925E+03 -0.41262631515E+03  0.83028220756E+03  0.00000000000E+00 0. -1.
<mgrwt>
<rscale>  0 0.17201735E+04</rscale>
<asrwt>0</asrwt>
<pdfrwt beam="1">  1        2 0.12434788E+00 0.17201735E+04</pdfrwt>
<pdfrwt beam="2">  1       -2 0.14080543E+00 0.17201735E+04</pdfrwt>
<totfact> 0.11418229E+01</totfact>
</mgrwt>
</event>
<event>
 6    1  0.1762360E-005  0.1808343E+04  0.7818608E-02  0.8701875E-01
          2   -1    0    0  501    0  0.00000000000E+00  0.00000000000E+00  0.15037673794E+04  0.15037673794E+04  0.00000000000E+00 0.  1.
         -2   -1    0    0    0  501 -0.00000000000E+00 -0.00000000000E+00 -0.54365197473E+03  0.54365197473E+03  0.00000000000E+00 0. -1.
         23    2    1    2    0    0 -0.18289462624E+03  0.20217706356E+03  0.14545826096E+04  0.14827744869E+04  0.92106467843E+02 0.  0.
         11    1    3    3    0    0 -0.12152336971E+03  0.10254433831E+03  0.62170761653E+03  0.64171927754E+03  0.00000000000E+00 0. -1.
        -11    1    3    3    0    0 -0.61371256531E+02  0.99632725249E+02  0.83287499312E+03  0.84105520938E+03  0.00000000000E+00 0.  1.
         22    1    1    2    0    0  0.18289462624E+03 -0.20217706356E+03 -0.49446720494E+03  0.56464486724E+03  0.00000000000E+00 0. -1.
<mgrwt>
<rscale>  0 0.18083430E+04</rscale>
<asrwt>0</asrwt>
<pdfrwt beam="1">  1        2 0.23134883E+00 0.18083430E+04</pdfrwt>
<pdfrwt beam="2">  1       -2 0.83638766E-01 0.18083430E+04</pdfrwt>
<totfact> 0.14896685E+01</totfact>
</mgrwt>
</event>
<event>
 6    1  0.1762360E-005  0.5348102E+04  0.7818608E-02  0.7776943E-01
          2   -1    0    0  501    0  0.00000000000E+00  0.00000000000E+00  0.30257169511E+04  0.30257169511E+04  0.00000000000E+00 0. -1.
         -2   -1    0    0    0  501 -0.00000000000E+00 -0.00000000000E+00 -0.23632575563E+04  0.23632575563E+04  0.00000000000E+00 0.  1.
         23    2    1    2    0    0 -0.20812428062E+04  0.10096723227E+03  0.20188588907E+04  0.29026950394E+04  0.89895888188E+02 0.  0.
         13    1    3    3    0    0 -0.16873673247E+04  0.48900675364E+02  0.16163915434E+04  0.23371609671E+04  0.00000000000E+00 0. -1.
        -13    1    3    3    0    0 -0.39387548152E+03  0.52066556906E+02  0.40246734729E+03  0.56553407229E+03  0.00000000000E+00 0.  1.
         22    1    1    2    0    0  0.20812428062E+04 -0.10096723227E+03 -0.13563994959E+04  0.24862794680E+04  0.00000000000E+00 0. -1.
<mgrwt>
<rscale>  0 0.53481019E+04</rscale>
<asrwt>0</asrwt>
<pdfrwt beam="1">  1        2 0.46549492E+00 0.53481019E+04</pdfrwt>
<pdfrwt beam="2">  1       -2 0.36357809E+00 0.53481019E+04</pdfrwt>
<totfact> 0.15156146E-02</totfact>
</mgrwt>
</event>
<event>
 6    1  0.1762360E-005  0.1621669E+04  0.7818608E-02  0.8807345E-01
          1   -1    0    0  501    0  0.00000000000E+00  0.00000000000E+00  0.18796544691E+04  0.18796544691E+04  0.00000000000E+00 0. -1.
         -1   -1    0    0    0  501 -0.00000000000E+00 -0.00000000000E+00 -0.34977320039E+03  0.34977320039E+03  0.00000000000E+00 0.  1.
         23    2    1    2    0    0 -0.46384941798E+03  0.39812237476E+03  0.40547809937E+02  0.61952957977E+03  0.92277123233E+02 0.  0.
         11    1    3    3    0    0 -0.33260670576E+03  0.24716270549E+03 -0.48226152246E+01  0.41441510749E+03  0.00000000000E+00 0. -1.
        -11    1    3    3    0    0 -0.13124271222E+03  0.15095966928E+03  0.45370425161E+02  0.20511447228E+03  0.00000000000E+00 0.  1.
         22    1    1    2    0    0  0.46384941798E+03 -0.39812237476E+03  0.14893334588E+04  0.16098980897E+04  0.00000000000E+00 0. -1.
<mgrwt>
<rscale>  0 0.16216692E+04</rscale>
<asrwt>0</asrwt>
<pdfrwt beam="1">  1        1 0.28917760E+00 0.16216692E+04</pdfrwt>
<pdfrwt beam="2">  1       -1 0.53811263E-01 0.16216692E+04</pdfrwt>
<totfact> 0.12010545E+01</totfact>
</mgrwt>
</event>
<event>
 6    1  0.1762360E-005  0.1412431E+04  0.7818608E-02  0.8944869E-01
          1   -1    0    0  501    0  0.00000000000E+00  0.00000000000E+00  0.11548403715E+04  0.11548403715E+04  0.00000000000E+00 0. -1.
         -1   -1    0    0    0  501 -0.00000000000E+00 -0.00000000000E+00 -0.43186932156E+03  0.43186932156E+03  0.00000000000E+00 0.  1.
         23    2    1    2    0    0  0.24296228829E+03  0.98779302976E+01 -0.37851025788E+03  0.45870733557E+03  0.89521826071E+02 0.  0.
         13    1    3    3    0    0  0.12342545232E+03  0.26251484602E+02 -0.26285602801E+03  0.29157550340E+03  0.00000000000E+00 0. -1.
        -13    1    3    3    0    0  0.11953683598E+03 -0.16373554304E+02 -0.11565422987E+03  0.16713183216E+03  0.00000000000E+00 0.  1.
         22    1    1    2    0    0 -0.24296228829E+03 -0.98779302976E+01  0.11014813078E+04  0.11280023575E+04  0.00000000000E+00 0. -1.
<mgrwt>
<rscale>  0 0.14124307E+04</rscale>
<asrwt>0</asrwt>
<pdfrwt beam="1">  1        1 0.17766775E+00 0.14124307E+04</pdfrwt>
<pdfrwt beam="2">  1       -1 0.66441434E-01 0.14124307E+04</pdfrwt>
<totfact> 0.25796852E+01</totfact>
</mgrwt>
</event>
<event>
 6    1  0.1762360E-005  0.2200131E+04  0.7818608E-02  0.8518373E-01
         -2   -1    0    0    0  501 -0.00000000000E+00  0.00000000000E+00  0.12625306178E+04  0.12625306178E+04  0.00000000000E+00 0.  1.
          2   -1    0    0  501    0  0.00000000000E+00 -0.00000000000E+00 -0.95850708470E+03  0.95850708470E+03  0.00000000000E+00 0. -1.
         23    2    1    2    0    0  0.15812924988E+03 -0.73521202456E+03  0.96020495646E+03  0.12229817717E+04  0.90273333900E+02 0.  0.
         11    1    3    3    0    0  0.85127697672E+02 -0.21857104009E+03  0.26800551368E+03  0.35615583645E+03  0.00000000000E+00 0.  1.
        -11    1    3    3    0    0  0.73001552208E+02 -0.51664098448E+03  0.69219944278E+03  0.86682593527E+03  0.00000000000E+00 0. -1.
         22    1    1    2    0    0 -0.15812924988E+03  0.73521202456E+03 -0.65618142332E+03  0.99805593082E+03  0.00000000000E+00 0. -1.
<mgrwt>
<rscale>  0 0.22001314E+04</rscale>
<asrwt>0</asrwt>
<pdfrwt beam="1">  1        2 0.14746263E+00 0.22001314E+04</pdfrwt>
<pdfrwt beam="2">  1       -2 0.19423548E+00 0.22001314E+04</pdfrwt>
<totfact> 0.35563722E+00</totfact>
</mgrwt>
</event>
<event>
 6    1  0.1762360E-005  0.2412682E+04  0.7818608E-02  0.8434771E-01
         -2   -1    0    0    0  501 -0.00000000000E+00  0.00000000000E+00  0.68025917769E+03  0.68025917769E+03  0.00000000000E+00 0. -1.
          2   -1    0    0  501    0  0.00000000000E+00 -0.00000000000E+00 -0.21392713384E+04  0.21392713384E+04  0.00000000000E+00 0.  1.
         23    2    1    2    0    0 -0.71727592323E+03  0.97010986042E+02 -0.18557504831E+04  0.19941232360E+04  0.93924136846E+02 0.  0.
         13    1    3    3    0    0 -0.46624147096E+03  0.71653046152E+02 -0.10844270059E+04  0.11825807370E+04  0.00000000000E+00 0. -1.
        -13    1    3    3    0    0 -0.25103445227E+03  0.25357939890E+02 -0.77132347717E+03  0.81154249905E+03  0.00000000000E+00 0.  1.
         22    1    1    2    0    0  0.71727592323E+03 -0.97010986042E+02  0.39673832242E+03  0.82540728004E+03  0.00000000000E+00 0. -1.
<mgrwt>
<rscale>  0 0.24126823E+04</rscale>
<asrwt>0</asrwt>
<pdfrwt beam="1">  1        2 0.32911866E+00 0.24126823E+04</pdfrwt>
<pdfrwt beam="2">  1       -2 0.10465526E+00 0.24126823E+04</pdfrwt>
<totfact> 0.37172922E+00</totfact>
</mgrwt>
</event>
<event>
 6    1  0.1762360E-005  0.1502464E+04  0.7818608E-02  0.8882816E-01
          1   -1    0    0  501    0  0.00000000000E+00  0.00000000000E+00  0.83864929472E+03  0.83864929472E+03  0.00000000000E+00 0.  1.
         -1   -1    0    0    0  501 -0.00000000000E+00 -0.00000000000E+00 -0.67292668150E+03  0.67292668150E+03  0.00000000000E+00 0. -1.
         23    2    1    2    0    0  0.16296920294E+03 -0.27564231731E+03 -0.59735977140E+03  0.68402998116E+03  0.92307477702E+02 0.  0.
         13    1    3    3    0    0  0.21347253639E+02 -0.12290867261E+03 -0.23578279934E+03  0.26675039926E+03  0.00000000000E+00 0.  1.
        -13    1    3    3    0    0  0.14162194930E+03 -0.15273364470E+03 -0.36157697207E+03  0.41727958191E+03  0.00000000000E+00 0. -1.
         22    1    1    2    0    0 -0.16296920294E+03  0.27564231731E+03  0.76308238462E+03  0.82754599505E+03  0.00000000000E+00 0.  1.
<mgrwt>
<rscale>  0 0.15024640E+04</rscale>
<asrwt>0</asrwt>
<pdfrwt beam="1">  1        1 0.12902297E+00 0.15024640E+04</pdfrwt>
<pdfrwt beam="2">  1       -1 0.10352718E+00 0.15024640E+04</pdfrwt>
<totfact> 0.17430154E+01</totfact>
</mgrwt>
</event>
<event>
 6    1  0.1762360E-005  0.1878520E+04  0.7818608E-02  0.8665623E-01
          2   -1    0    0  501    0  0.00000000000E+00  0.00000000000E+00  0.10750705202E+04  0.10750705202E+04  0.00000000000E+00 0. -1.
         -2   -1    0    0    0  501 -0.00000000000E+00 -0.00000000000E+00 -0.82060578124E+03  0.82060578124E+03  0.00000000000E+00 0.  1.
         23    2    1    2    0    0 -0.74480932658E+03  0.30109612945E+03  0.61423750478E+03  0.10154284640E+04  0.91692099801E+02 0.  0.
         13    1    3    3    0    0 -0.38522982786E+03  0.11248718430E+03  0.27740593487E+03  0.48786211126E+03  0.00000000000E+00 0. -1.
        -13    1    3    3    0    0 -0.35957949872E+03  0.18860894515E+03  0.33683156992E+03  0.52756635278E+03  0.00000000000E+00 0.  1.
         22    1    1    2    0    0  0.74480932658E+03 -0.30109612945E+03 -0.35977276586E+03  0.88024783737E+03  0.00000000000E+00 0.  1.
<mgrwt>
<rscale>  0 0.18785197E+04</rscale>
<asrwt>0</asrwt>
<pdfrwt beam="1">  1        2 0.16539546E+00 0.18785197E+04</pdfrwt>
<pdfrwt beam="2">  1       -2 0.12624704E+00 0.18785197E+04</pdfrwt>
<totfact> 0.99061742E+00</totfact>
</mgrwt>
</event>
<event>
 6    1  0.1762360E-005  0.2716684E+04  0.7818608E-02  0.8329612E-01
          2   -1    0    0  501    0  0.00000000000E+00  0.00000000000E+00  0.19853066389E+04  0.19853066389E+04  0.00000000000E+00 0. -1.
         -2   -1    0    0    0  501 -0.00000000000E+00 -0.00000000000E+00 -0.92937424130E+03  0.92937424130E+03  0.00000000000E+00 0.  1.
         23    2    1    2    0    0 -0.12294114546E+04 -0.34033260373E+03  0.10244187496E+04  0.16386432963E+04  0.91865511228E+02 0.  0.
         11    1    3    3    0    0 -0.11685075224E+04 -0.30300493628E+03  0.95792978743E+03  0.15410552550E+04  0.00000000000E+00 0.  1.
        -11    1    3    3    0    0 -0.60903932106E+02 -0.37327667453E+02  0.66488962136E+02  0.97588041221E+02  0.00000000000E+00 0. -1.
         22    1    1    2    0    0  0.12294114546E+04  0.34033260373E+03  0.31513648080E+02  0.12760375840E+04  0.00000000000E+00 0.  1.
<mgrwt>
<rscale>  0 0.27166839E+04</rscale>
<asrwt>0</asrwt>
<pdfrwt beam="1">  1        2 0.30543179E+00 0.27166839E+04</pdfrwt>
<pdfrwt beam="2">  1       -2 0.14298065E+00 0.27166839E+04</pdfrwt>
<totfact> 0.20278410E+00</totfact>
</mgrwt>
</event>
<event>
 6    1  0.1762360E-005  0.2500654E+04  0.7818608E-02  0.8402753E-01
         -2   -1    0    0    0  501 -0.00000000000E+00  0.00000000000E+00  0.66445762185E+03  0.66445762185E+03  0.00000000000E+00 0.  1.
          2   -1    0    0  501    0  0.00000000000E+00 -0.00000000000E+00 -0.23527721686E+04  0.23527721686E+04  0.00000000000E+00 0. -1.
         23    2    1    2    0    0 -0.10467476390E+04 -0.64309301030E+03 -0.11127450122E+04  0.16605686210E+04  0.10018704125E+03 0.  0.
         13    1    3    3    0    0 -0.97844912836E+03 -0.62072798502E+03 -0.10684283441E+04  0.15761361155E+04  0.00000000000E+00 0.  1.
        -13    1    3    3    0    0 -0.68298510627E+02 -0.22365025285E+02 -0.44316668125E+02  0.84432505492E+02  0.00000000000E+00 0. -1.
         22    1    1    2    0    0  0.10467476390E+04  0.64309301030E+03 -0.57556953454E+03  0.13566611695E+04  0.00000000000E+00 0.  1.
<mgrwt>
<rscale>  0 0.25006538E+04</rscale>
<asrwt>0</asrwt>
<pdfrwt beam="1">  1        2 0.36196495E+00 0.25006538E+04</pdfrwt>
<pdfrwt beam="2">  1       -2 0.10222425E+00 0.25006538E+04</pdfrwt>
<totfact> 0.29568834E+00</totfact>
</mgrwt>
</event>
<event>
 6    1  0.1762360E-005  0.1552350E+04  0.7818608E-02  0.8850368E-01
         -1   -1    0    0    0  501 -0.00000000000E+00  0.00000000000E+00  0.49948961225E+03  0.49948961225E+03  0.00000000000E+00 0. -1.
          1   -1    0    0  501    0  0.00000000000E+00 -0.00000000000E+00 -0.12061259356E+04  0.12061259356E+04  0.00000000000E+00 0.  1.
         23    2    1    2    0    0 -0.46201370581E+03 -0.57957312785E+03 -0.11065087036E+03  0.75453177917E+03  0.87823207609E+02 0.  0.
         13    1    3    3    0    0 -0.26542795741E+03 -0.38967093798E+03 -0.93509942081E+02  0.48066573599E+03  0.00000000000E+00 0.  1.
        -13    1    3    3    0    0 -0.19658574840E+03 -0.18990218986E+03 -0.17140928277E+02  0.27386604319E+03  0.00000000000E+00 0. -1.
         22    1    1    2    0    0  0.46201370581E+03  0.57957312785E+03 -0.59598545302E+03  0.95108376870E+03  0.00000000000E+00 0. -1.
<mgrwt>
<rscale>  0 0.15523497E+04</rscale>
<asrwt>0</asrwt>
<pdfrwt beam="1">  1        1 0.18555783E+00 0.15523497E+04</pdfrwt>
<pdfrwt beam="2">  1       -1 0.76844557E-01 0.15523497E+04</pdfrwt>
<totfact> 0.17308597E+01</totfact>
</mgrwt>
</event>
<event>
 6    1  0.1762360E-005  0.6466585E+03  0.7818608E-02  0.9813070E-01
          2   -1    0    0  501    0  0.00000000000E+00  0.00000000000E+00  0.14044539097E+04  0.14044539097E+04  0.00000000000E+00 0. -1.
         -2   -1    0    0    0  501 -0.00000000000E+00 -0.00000000000E+00 -0.74435897867E+02  0.74435897867E+02  0.00000000000E+00 0.  1.
         23    2    1    2    0    0 -0.43392218657E+02  0.30464927016E+03  0.51286200408E+03  0.60571284758E+03  0.95742133047E+02 0.  0.
         11    1    3    3    0    0  0.27823674211E+02  0.14101043848E+03  0.22205154171E+03  0.26450895596E+03  0.00000000000E+00 0. -1.
        -11    1    3    3    0    0 -0.71215892868E+02  0.16363883169E+03  0.29081046237E+03  0.34120389162E+03  0.00000000000E+00 0.  1.
         22    1    1    2    0    0  0.43392218657E+02 -0.30464927016E+03  0.81715600776E+03  0.87317696000E+03  0.00000000000E+00 0.  1.
<mgrwt>
<rscale>  0 0.64665845E+03</rscale>
<asrwt>0</asrwt>
<pdfrwt beam="1">  1        2 0.21606981E+00 0.64665845E+03</pdfrwt>
<pdfrwt beam="2">  1       -2 0.11451678E-01 0.64665845E+03</pdfrwt>
<totfact> 0.80279926E+02</totfact>
</mgrwt>
</event>
<event>
 6    1  0.1762360E-005  0.1059733E+04  0.7818608E-02  0.9245353E-01
          2   -1    0    0  501    0  0.00000000000E+00  0.00000000000E+00  0.89636546916E+03  0.89636546916E+03  0.00000000000E+00 0. -1.
         -2   -1    0    0    0  501 -0.00000000000E+00 -0.00000000000E+00 -0.31321850802E+03  0.31321850802E+03  0.00000000000E+00 0.  1.
         23    2    1    2    0    0 -0.24902955472E+03  0.38075788970E+03  0.59481106558E+03  0.75447042979E+03  0.91832107650E+02 0.  0.
         11    1    3    3    0    0 -0.87079713691E+02  0.11597374422E+03  0.12540577102E+03  0.19172739316E+03  0.00000000000E+00 0.  1.
        -11    1    3    3    0    0 -0.16194984103E+03  0.26478414548E+03  0.46940529456E+03  0.56274303662E+03  0.00000000000E+00 0. -1.
         22    1    1    2    0    0  0.24902955472E+03 -0.38075788970E+03 -0.11664104440E+02  0.45511354740E+03  0.00000000000E+00 0.  1.
<mgrwt>
<rscale>  0 0.10597325E+04</rscale>
<asrwt>0</asrwt>
<pdfrwt beam="1">  1        2 0.13790238E+00 0.10597325E+04</pdfrwt>
<pdfrwt beam="2">  1       -2 0.48187463E-01 0.10597325E+04</pdfrwt>
<totfact> 0.11969816E+02</totfact>
</mgrwt>
</event>
<event>
 6    1  0.1762360E-005  0.3598731E+04  0.7818608E-02  0.8090783E-01
          2   -1    0    0  501    0  0.00000000000E+00  0.00000000000E+00  0.31036171708E+04  0.31036171708E+04  0.00000000000E+00 0. -1.
         -2   -1    0    0    0  501 -0.00000000000E+00 -0.00000000000E+00 -0.10432070607E+04  0.10432070607E+04  0.00000000000E+00 0.  1.
         23    2    1    2    0    0  0.80767466349E+03  0.16997297278E+03  0.28717770688E+04  0.29894368654E+04  0.91651874169E+02 0.  0.
         13    1    3    3    0    0  0.44741175592E+03  0.10919981111E+03  0.17546549183E+04  0.18140881347E+04  0.00000000000E+00 0.  1.
        -13    1    3    3    0    0  0.36026290758E+03  0.60773161676E+02  0.11171221505E+04  0.11753487307E+04  0.00000000000E+00 0. -1.
         22    1    1    2    0    0 -0.80767466349E+03 -0.16997297278E+03 -0.81136695869E+03  0.11573873661E+04  0.00000000000E+00 0.  1.
<mgrwt>
<rscale>  0 0.35987305E+04</rscale>
<asrwt>0</asrwt>
<pdfrwt beam="1">  1        2 0.47747956E+00 0.35987305E+04</pdfrwt>
<pdfrwt beam="2">  1       -2 0.16049339E+00 0.35987305E+04</pdfrwt>
<totfact> 0.30450043E-01</totfact>
</mgrwt>
</event>
<event>
 6    1  0.1762360E-005  0.4350324E+04  0.7818608E-02  0.7937378E-01
          2   -1    0    0  501    0  0.00000000000E+00  0.00000000000E+00  0.37055636038E+04  0.37055636038E+04  0.00000000000E+00 0.  1.
         -2   -1    0    0    0  501 -0.00000000000E+00 -0.00000000000E+00 -0.12768176482E+04  0.12768176482E+04  0.00000000000E+00 0. -1.
         23    2    1    2    0    0  0.14390553794E+03 -0.17090407968E+04 -0.31550762707E+03  0.17462636745E+04  0.91446755669E+02 0.  0.
         11    1    3    3    0    0  0.15677428560E+03 -0.15445204305E+04 -0.28144409740E+03  0.15777618061E+04  0.00000000000E+00 0.  1.
        -11    1    3    3    0    0 -0.12868747656E+02 -0.16452036633E+03 -0.34063529671E+02  0.16850186841E+03  0.00000000000E+00 0. -1.
         22    1    1    2    0    0 -0.14390553794E+03  0.17090407968E+04  0.27442535827E+04  0.32361175774E+04  0.00000000000E+00 0.  1.
<mgrwt>
<rscale>  0 0.43503237E+04</rscale>
<asrwt>0</asrwt>
<pdfrwt beam="1">  1        2 0.57008670E+00 0.43503237E+04</pdfrwt>
<pdfrwt beam="2">  1       -2 0.19643349E+00 0.43503237E+04</pdfrwt>
<totfact> 0.62094729E-02</totfact>
</mgrwt>
</event>
<event>
 6    1  0.1762360E-005  0.2291089E+04  0.7818608E-02  0.8481443E-01
         -2   -1    0    0    0  501 -0.00000000000E+00  0.00000000000E+00  0.13738936355E+04  0.13738936355E+04  0.00000000000E+00 0.  1.
          2   -1    0    0  501    0  0.00000000000E+00 -0.00000000000E+00 -0.95514854530E+03  0.95514854530E+03  0.00000000000E+00 0. -1.
         23    2    1    2    0    0 -0.18283163097E+03  0.51440472172E+03 -0.81189998032E+03  0.98274098396E+03  0.92512920759E+02 0.  0.
         13    1    3    3    0    0 -0.10194760652E+03  0.24798413503E+03 -0.31972449539E+03  0.41726873673E+03  0.00000000000E+00 0. -1.
        -13    1    3    3    0    0 -0.80884024452E+02  0.26642058670E+03 -0.49217548493E+03  0.56547224724E+03  0.00000000000E+00 0.  1.
         22    1    1    2    0    0  0.18283163097E+03 -0.51440472172E+03  0.12306450705E+04  0.13463011968E+04  0.00000000000E+00 0.  1.
<mgrwt>
<rscale>  0 0.22910893E+04</rscale>
<asrwt>0</asrwt>
<pdfrwt beam="1">  1        2 0.14694593E+00 0.22910893E+04</pdfrwt>
<pdfrwt beam="2">  1       -2 0.21136825E+00 0.22910893E+04</pdfrwt>
<totfact> 0.27417671E+00</totfact>
</mgrwt>
</event>
<event>
 6    1  0.1762360E-005  0.2267013E+04  0.7818608E-02  0.8491042E-01
         -1   -1    0    0    0  501 -0.00000000000E+00  0.00000000000E+00  0.58870012914E+03  0.58870012914E+03  0.00000000000E+00 0.  1.
          1   -1    0    0  501    0  0.00000000000E+00 -0.00000000000E+00 -0.21824975781E+04  0.21824975781E+04  0.00000000000E+00 0. -1.
         23    2    1    2    0    0  0.81098765875E+03 -0.34934040900E+03 -0.16638931429E+04  0.18853912327E+04  0.80124935040E+02 0.  0.
         11    1    3    3    0    0  0.32972341627E+03 -0.13668099667E+03 -0.59083543253E+03  0.69027946110E+03  0.00000000000E+00 0.  1.
        -11    1    3    3    0    0  0.48126424248E+03 -0.21265941233E+03 -0.10730577104E+04  0.11951117716E+04  0.00000000000E+00 0. -1.
         22    1    1    2    0    0 -0.81098765875E+03  0.34934040900E+03  0.70095693975E+02  0.88580647453E+03  0.00000000000E+00 0.  1.
<mgrwt>
<rscale>  0 0.22670127E+04</rscale>
<asrwt>0</asrwt>
<pdfrwt beam="1">  1        1 0.33576886E+00 0.22670127E+04</pdfrwt>
<pdfrwt beam="2">  1       -1 0.90569251E-01 0.22670127E+04</pdfrwt>
<totfact> 0.24174246E+00</totfact>
</mgrwt>
</event>
<event>
 6    1  0.1762360E-005  0.1587031E+04  0.7818608E-02  0.8828555E-01
         -2   -1    0    0    0  501 -0.00000000000E+00  0.00000000000E+00  0.31171797503E+04  0.31171797503E+04  0.00000000000E+00 0.  1.
          2   -1    0    0  501    0  0.00000000000E+00 -0.00000000000E+00 -0.20199897053E+03  0.20199897053E+03  0.00000000000E+00 0. -1.
         23    2    1    2    0    0  0.39361644806E+03 -0.56724725614E+03  0.22692180209E+04  0.23736781954E+04  0.91073547495E+02 0.  0.
         11    1    3    3    0    0  0.11921364105E+03 -0.16124138815E+03  0.80655380253E+03  0.83110752243E+03  0.00000000000E+00 0.  1.
        -11    1    3    3    0    0  0.27440280702E+03 -0.40600586798E+03  0.14626642183E+04  0.15425706729E+04  0.00000000000E+00 0. -1.
         22    1    1    2    0    0 -0.39361644806E+03  0.56724725614E+03  0.64596275890E+03  0.94550052547E+03  0.00000000000E+00 0.  1.
<mgrwt>
<rscale>  0 0.15870313E+04</rscale>
<asrwt>0</asrwt>
<pdfrwt beam="1">  1        2 0.31076767E-01 0.15870313E+04</pdfrwt>
<pdfrwt beam="2">  1       -2 0.47956608E+00 0.15870313E+04</pdfrwt>
<totfact> 0.36653735E-01</totfact>
</mgrwt>
</event>
<event>
 6    1  0.1762360E-005  0.1404456E+04  0.7818608E-02  0.8950599E-01
          1   -1    0    0  501    0  0.00000000000E+00  0.00000000000E+00  0.19229739053E+04  0.19229739053E+04  0.00000000000E+00 0. -1.
         -1   -1    0    0    0  501 -0.00000000000E+00 -0.00000000000E+00 -0.25643837656E+03  0.25643837656E+03  0.00000000000E+00 0.  1.
         23    2    1    2    0    0  0.10721421355E+03  0.52591839068E+03  0.14172693351E+03  0.56289556579E+03  0.93165729014E+02 0.  0.
         13    1    3    3    0    0  0.95794917623E+02  0.38651365347E+03  0.14274666393E+03  0.42302018938E+03  0.00000000000E+00 0. -1.
        -13    1    3    3    0    0  0.11419295922E+02  0.13940473721E+03 -0.10197304146E+01  0.13987537641E+03  0.00000000000E+00 0.  1.
         22    1    1    2    0    0 -0.10721421355E+03 -0.52591839068E+03  0.15248085953E+04  0.16165167161E+04  0.00000000000E+00 0. -1.
<mgrwt>
<rscale>  0 0.14044562E+04</rscale>
<asrwt>0</asrwt>
<pdfrwt beam="1">  1        1 0.29584213E+00 0.14044562E+04</pdfrwt>
<pdfrwt beam="2">  1       -1 0.39452059E-01 0.14044562E+04</pdfrwt>
<totfact> 0.20479363E+01</totfact>
</mgrwt>
</event>
<event>
 6    1  0.1762360E-005  0.3546177E+04  0.7818608E-02  0.8102933E-01
          1   -1    0    0  501    0  0.00000000000E+00  0.00000000000E+00  0.25552178074E+04  0.25552178074E+04  0.00000000000E+00 0. -1.
         -1   -1    0    0    0  501 -0.00000000000E+00 -0.00000000000E+00 -0.12303620495E+04  0.12303620495E+04  0.00000000000E+00 0.  1.
         23    2    1    2    0    0  0.19976016439E+03  0.17363000916E+04  0.97439326035E+03  0.20030350205E+04  0.89804990321E+02 0.  0.
         11    1    3    3    0    0  0.92633461095E+02  0.10939638847E+04  0.64374959860E+03  0.12726945765E+04  0.00000000000E+00 0.  1.
        -11    1    3    3    0    0  0.10712670329E+03  0.64233620687E+03  0.33064366175E+03  0.73034044409E+03  0.00000000000E+00 0. -1.
         22    1    1    2    0    0 -0.19976016439E+03 -0.17363000916E+04  0.35046249756E+03  0.17825448364E+04  0.00000000000E+00 0.  1.
<mgrwt>
<rscale>  0 0.35461771E+04</rscale>
<asrwt>0</asrwt>
<pdfrwt beam="1">  1        1 0.39311043E+00 0.35461771E+04</pdfrwt>
<pdfrwt beam="2">  1       -1 0.18928647E+00 0.35461771E+04</pdfrwt>
<totfact> 0.18010757E-01</totfact>
</mgrwt>
</event>
<event>
 6    1  0.1762360E-005  0.1483185E+04  0.7818608E-02  0.8895713E-01
          2   -1    0    0  501    0  0.00000000000E+00  0.00000000000E+00  0.70420901950E+03  0.70420901950E+03  0.00000000000E+00 0. -1.
         -2   -1    0    0    0  501 -0.00000000000E+00 -0.00000000000E+00 -0.78096001548E+03  0.78096001548E+03  0.00000000000E+00 0.  1.
         23    2    1    2    0    0  0.29524640290E+03  0.65807266245E+03 -0.19865846927E+03  0.75366954795E+03  0.91227915711E+02 0.  0.
         13    1    3    3    0    0  0.26322078075E+03  0.50447064574E+03 -0.17260495804E+03  0.59461608065E+03  0.00000000000E+00 0. -1.
        -13    1    3    3    0    0  0.32025622147E+02  0.15360201671E+03 -0.26053511235E+02  0.15905346730E+03  0.00000000000E+00 0.  1.
         22    1    1    2    0    0 -0.29524640290E+03 -0.65807266245E+03  0.12190747329E+03  0.73149948704E+03  0.00000000000E+00 0. -1.
<mgrwt>
<rscale>  0 0.14831845E+04</rscale>
<asrwt>0</asrwt>
<pdfrwt beam="1">  1        2 0.10833985E+00 0.14831845E+04</pdfrwt>
<pdfrwt beam="2">  1       -2 0.12014769E+00 0.14831845E+04</pdfrwt>
<totfact> 0.20821417E+01</totfact>
</mgrwt>
</event>
<event>
 6    1  0.1762360E-005  0.1041663E+04  0.7818608E-02  0.9263994E-01
          1   -1    0    0  501    0  0.00000000000E+00  0.00000000000E+00  0.39679536545E+03  0.39679536545E+03  0.00000000000E+00 0. -1.
         -1   -1    0    0    0  501 -0.00000000000E+00 -0.00000000000E+00 -0.68364115200E+03  0.68364115200E+03  0.00000000000E+00 0.  1.
         23    2    1    2    0    0 -0.45193018682E+02 -0.25455112760E+03 -0.60897146159E+03  0.66739458734E+03  0.87923880033E+02 0.  0.
         13    1    3    3    0    0 -0.62961362578E+02 -0.11491037543E+03 -0.26144734858E+03  0.29244357343E+03  0.00000000000E+00 0. -1.
        -13    1    3    3    0    0  0.17768343896E+02 -0.13964075217E+03 -0.34752411301E+03  0.37495101391E+03  0.00000000000E+00 0.  1.
         22    1    1    2    0    0  0.45193018682E+02  0.25455112760E+03  0.32212567505E+03  0.41304193011E+03  0.00000000000E+00 0. -1.
<mgrwt>
<rscale>  0 0.10416634E+04</rscale>
<asrwt>0</asrwt>
<pdfrwt beam="1">  1        1 0.61045441E-01 0.10416634E+04</pdfrwt>
<pdfrwt beam="2">  1       -1 0.10517556E+00 0.10416634E+04</pdfrwt>
<totfact> 0.51464712E+01</totfact>
</mgrwt>
</event>
<event>
 6    1  0.1762360E-005  0.4596904E+03  0.7818608E-02  0.1024871E+00
         -2   -1    0    0    0  501 -0.00000000000E+00  0.00000000000E+00  0.82821204276E+02  0.82821204276E+02  0.00000000000E+00 0.  1.
          2   -1    0    0  501    0  0.00000000000E+00 -0.00000000000E+00 -0.63786580223E+03  0.63786580223E+03  0.00000000000E+00 0. -1.
         23    2    1    2    0    0  0.19935257884E+02 -0.20600147227E+03 -0.40639817191E+03  0.46587377871E+03  0.95104587014E+02 0.  0.
         11    1    3    3    0    0 -0.23708225067E+02 -0.10487886616E+03 -0.26958063773E+03  0.29023331432E+03  0.00000000000E+00 0. -1.
        -11    1    3    3    0    0  0.43643482951E+02 -0.10112260612E+03 -0.13681753419E+03  0.17564046439E+03  0.00000000000E+00 0.  1.
         22    1    1    2    0    0 -0.19935257884E+02  0.20600147227E+03 -0.14864642604E+03  0.25481322780E+03  0.00000000000E+00 0.  1.
<mgrwt>
<rscale>  0 0.45969039E+03</rscale>
<asrwt>0</asrwt>
<pdfrwt beam="1">  1        2 0.98133195E-01 0.45969039E+03</pdfrwt>
<pdfrwt beam="2">  1       -2 0.12741724E-01 0.45969039E+03</pdfrwt>
<totfact> 0.21143507E+03</totfact>
</mgrwt>
</event>
<event>
 6    1  0.1762360E-005  0.3775803E+04  0.7818608E-02  0.8051367E-01
          1   -1    0    0  501    0  0.00000000000E+00  0.00000000000E+00  0.33154728150E+04  0.33154728150E+04  0.00000000000E+00 0. -1.
         -1   -1    0    0    0  501 -0.00000000000E+00 -0.00000000000E+00 -0.10750118535E+04  0.10750118535E+04  0.00000000000E+00 0.  1.
         23    2    1    2    0    0  0.14412320633E+04  0.42740332618E+03  0.24473963537E+04  0.28730375624E+04  0.69082989673E+02 0.  0.
         11    1    3    3    0    0  0.86426368656E+03  0.24912240975E+03  0.15271124955E+04  0.17723109967E+04  0.00000000000E+00 0.  1.
        -11    1    3    3    0    0  0.57696837670E+03  0.17828091643E+03  0.92028385812E+03  0.11007265657E+04  0.00000000000E+00 0. -1.
         22    1    1    2    0    0 -0.14412320633E+04 -0.42740332618E+03 -0.20693539209E+03  0.15174471061E+04  0.00000000000E+00 0.  1.
<mgrwt>
<rscale>  0 0.37758033E+04</rscale>
<asrwt>0</asrwt>
<pdfrwt beam="1">  1        1 0.51007274E+00 0.37758033E+04</pdfrwt>
<pdfrwt beam="2">  1       -1 0.16538644E+00 0.37758033E+04</pdfrwt>
<totfact> 0.73675434E-02</totfact>
</mgrwt>
</event>
<event>
 6    1  0.1762360E-005  0.2717847E+04  0.7818608E-02  0.8329237E-01
          2   -1    0    0  501    0  0.00000000000E+00  0.00000000000E+00  0.16757235401E+04  0.16757235401E+04  0.00000000000E+00 0. -1.
         -2   -1    0    0    0  501 -0.00000000000E+00 -0.00000000000E+00 -0.11020154856E+04  0.11020154856E+04  0.00000000000E+00 0.  1.
         23    2    1    2    0    0  0.10164842986E+04 -0.89959784684E+03  0.28620724719E+03  0.13902328709E+04  0.91193374760E+02 0.  0.
         11    1    3    3    0    0  0.37431369211E+03 -0.31844904573E+03  0.60074797635E+02  0.49510556060E+03  0.00000000000E+00 0. -1.
        -11    1    3    3    0    0  0.64217060651E+03 -0.58114880111E+03  0.22613244955E+03  0.89512731029E+03  0.00000000000E+00 0.  1.
         22    1    1    2    0    0 -0.10164842986E+04  0.89959784684E+03  0.28750080738E+03  0.13875061548E+04  0.00000000000E+00 0. -1.
<mgrwt>
<rscale>  0 0.27178472E+04</rscale>
<asrwt>0</asrwt>
<pdfrwt beam="1">  1        2 0.25780362E+00 0.27178472E+04</pdfrwt>
<pdfrwt beam="2">  1       -2 0.16954084E+00 0.27178472E+04</pdfrwt>
<totfact> 0.19035412E+00</totfact>
</mgrwt>
</event>
<event>
 6    1  0.1762360E-005  0.2565901E+04  0.7818608E-02  0.8379877E-01
          2   -1    0    0  501    0  0.00000000000E+00  0.00000000000E+00  0.22955632942E+04  0.22955632942E+04  0.00000000000E+00 0.  1.
         -2   -1    0    0    0  501 -0.00000000000E+00 -0.00000000000E+00 -0.71701897873E+03  0.71701897873E+03  0.00000000000E+00 0. -1.
         23    2    1    2    0    0 -0.65156843245E+03 -0.94253461728E+03  0.11680156489E+03  0.11552710993E+04  0.89976554176E+02 0.  0.
         11    1    3    3    0    0 -0.22954864288E+03 -0.40751362861E+03  0.36885554027E+02  0.46916999163E+03  0.00000000000E+00 0. -1.
        -11    1    3    3    0    0 -0.42201978957E+03 -0.53502098867E+03  0.79916010861E+02  0.68610110763E+03  0.00000000000E+00 0.  1.
         22    1    1    2    0    0  0.65156843245E+03  0.94253461728E+03  0.14617427505E+04  0.18573111736E+04  0.00000000000E+00 0.  1.
<mgrwt>
<rscale>  0 0.25659014E+04</rscale>
<asrwt>0</asrwt>
<pdfrwt beam="1">  1        2 0.35316358E+00 0.25659014E+04</pdfrwt>
<pdfrwt beam="2">  1       -2 0.11031061E+00 0.25659014E+04</pdfrwt>
<totfact> 0.26390811E+00</totfact>
</mgrwt>
</event>
<event>
 6    1  0.1762360E-005  0.5594725E+03  0.7818608E-02  0.9993249E-01
         -2   -1    0    0    0  501 -0.00000000000E+00  0.00000000000E+00  0.98610874043E+02  0.98610874043E+02  0.00000000000E+00 0.  1.
          2   -1    0    0  501    0  0.00000000000E+00 -0.00000000000E+00 -0.79354698484E+03  0.79354698484E+03  0.00000000000E+00 0. -1.
         23    2    1    2    0    0 -0.13509144270E+03  0.28471345948E+02  0.17975519875E+02  0.16600132715E+03  0.90404678363E+02 0.  0.
         11    1    3    3    0    0 -0.12439748440E+03  0.55179846101E+02  0.17677775733E+02  0.13722992857E+03  0.00000000000E+00 0.  1.
        -11    1    3    3    0    0 -0.10693958298E+02 -0.26708500153E+02  0.29774414257E+00  0.28771398577E+02  0.00000000000E+00 0. -1.
         22    1    1    2    0    0  0.13509144270E+03 -0.28471345948E+02 -0.71291163067E+03  0.72615653174E+03  0.00000000000E+00 0. -1.
<mgrwt>
<rscale>  0 0.55947247E+03</rscale>
<asrwt>0</asrwt>
<pdfrwt beam="1">  1        2 0.12208415E+00 0.55947247E+03</pdfrwt>
<pdfrwt beam="2">  1       -2 0.15170904E-01 0.55947247E+03</pdfrwt>
<totfact> 0.12021227E+03</totfact>
</mgrwt>
</event>
<event>
 6    1  0.1762360E-005  0.2298249E+04  0.7818608E-02  0.8478612E-01
          1   -1    0    0  501    0  0.00000000000E+00  0.00000000000E+00  0.16716112173E+04  0.16716112173E+04  0.00000000000E+00 0. -1.
         -1   -1    0    0    0  501 -0.00000000000E+00 -0.00000000000E+00 -0.78994854861E+03  0.78994854861E+03  0.00000000000E+00 0.  1.
         23    2    1    2    0    0 -0.72192557091E+03 -0.19646890110E+03  0.13729804250E+04  0.15664789335E+04  0.94891741389E+02 0.  0.
         11    1    3    3    0    0 -0.14854513686E+03 -0.80871291350E+02  0.32003478242E+03  0.36197801785E+03  0.00000000000E+00 0. -1.
        -11    1    3    3    0    0 -0.57338043405E+03 -0.11559760975E+03  0.10529456426E+04  0.12045009156E+04  0.00000000000E+00 0.  1.
         22    1    1    2    0    0  0.72192557091E+03  0.19646890110E+03 -0.49131775627E+03  0.89508083247E+03  0.00000000000E+00 0.  1.
<mgrwt>
<rscale>  0 0.22982488E+04</rscale>
<asrwt>0</asrwt>
<pdfrwt beam="1">  1        1 0.25717096E+00 0.22982488E+04</pdfrwt>
<pdfrwt beam="2">  1       -1 0.12153055E+00 0.22982488E+04</pdfrwt>
<totfact> 0.27034261E+00</totfact>
</mgrwt>
</event>
<event>
 6    1  0.1762360E-005  0.1333635E+04  0.7818608E-02  0.9003309E-01
         -2   -1    0    0    0  501 -0.00000000000E+00  0.00000000000E+00  0.21666799090E+03  0.21666799090E+03  0.00000000000E+00 0.  1.
          2   -1    0    0  501    0  0.00000000000E+00 -0.00000000000E+00 -0.20521982619E+04  0.20521982619E+04  0.00000000000E+00 0. -1.
         23    2    1    2    0    0 -0.49824632892E+03 -0.22118547444E+03 -0.27724510977E+03  0.61798010831E+03  0.88668737399E+02 0.  0.
         13    1    3    3    0    0 -0.36396554751E+03 -0.20306670624E+03 -0.21148002978E+03  0.46736582027E+03  0.00000000000E+00 0. -1.
        -13    1    3    3    0    0 -0.13428078141E+03 -0.18118768198E+02 -0.65765079988E+02  0.15061428804E+03  0.00000000000E+00 0.  1.
         22    1    1    2    0    0  0.49824632892E+03  0.22118547444E+03 -0.15582851612E+04  0.16508861445E+04  0.00000000000E+00 0. -1.
<mgrwt>
<rscale>  0 0.13336351E+04</rscale>
<asrwt>0</asrwt>
<pdfrwt beam="1">  1        2 0.31572282E+00 0.13336351E+04</pdfrwt>
<pdfrwt beam="2">  1       -2 0.33333536E-01 0.13336351E+04</pdfrwt>
<totfact> 0.51429529E+01</totfact>
</mgrwt>
</event>
<event>
 6    1  0.1762360E-005  0.1387533E+04  0.7818608E-02  0.8962892E-01
         -2   -1    0    0    0  501 -0.00000000000E+00  0.00000000000E+00  0.87328530996E+03  0.87328530996E+03  0.00000000000E+00 0.  1.
          2   -1    0    0  501    0  0.00000000000E+00 -0.00000000000E+00 -0.55115097604E+03  0.55115097604E+03  0.00000000000E+00 0. -1.
         23    2    1    2    0    0  0.33289931820E+03  0.56348597693E+03 -0.65160050901E+02  0.66395266173E+03  0.90823469017E+02 0.  0.
         11    1    3    3    0    0  0.22919781008E+03  0.32479022749E+03 -0.70127449710E+02  0.40365602587E+03  0.00000000000E+00 0.  1.
        -11    1    3    3    0    0  0.10370150813E+03  0.23869574944E+03  0.49673988094E+01  0.26029663586E+03  0.00000000000E+00 0. -1.
         22    1    1    2    0    0 -0.33289931820E+03 -0.56348597693E+03  0.38729438483E+03  0.76048362427E+03  0.00000000000E+00 0. -1.
<mgrwt>
<rscale>  0 0.13875331E+04</rscale>
<asrwt>0</asrwt>
<pdfrwt beam="1">  1        2 0.84792458E-01 0.13875331E+04</pdfrwt>
<pdfrwt beam="2">  1       -2 0.13435159E+00 0.13875331E+04</pdfrwt>
<totfact> 0.21354783E+01</totfact>
</mgrwt>
</event>
<event>
 6    1  0.1762360E-005  0.9417450E+03  0.7818608E-02  0.9374852E-01
          2   -1    0    0  501    0  0.00000000000E+00  0.00000000000E+00  0.17531323534E+04  0.17531323534E+04  0.00000000000E+00 0. -1.
         -2   -1    0    0    0  501 -0.00000000000E+00 -0.00000000000E+00 -0.12647128373E+03  0.12647128373E+03  0.00000000000E+00 0.  1.
         23    2    1    2    0    0 -0.21076399475E+03 -0.32334880474E+03  0.13437701242E+04  0.14010608511E+04  0.90980497043E+02 0.  0.
         13    1    3    3    0    0 -0.75932212657E+02 -0.19550264775E+03  0.66234036630E+03  0.69475301152E+03  0.00000000000E+00 0. -1.
        -13    1    3    3    0    0 -0.13483178210E+03 -0.12784615699E+03  0.68142975791E+03  0.70630783961E+03  0.00000000000E+00 0.  1.
         22    1    1    2    0    0  0.21076399475E+03  0.32334880474E+03  0.28289094548E+03  0.47854278601E+03  0.00000000000E+00 0.  1.
<mgrwt>
<rscale>  0 0.94174497E+03</rscale>
<asrwt>0</asrwt>
<pdfrwt beam="1">  1        2 0.26971265E+00 0.94174497E+03</pdfrwt>
<pdfrwt beam="2">  1       -2 0.19457122E-01 0.94174497E+03</pdfrwt>
<totfact> 0.20612064E+02</totfact>
</mgrwt>
</event>
<event>
 6    1  0.1762360E-005  0.9674219E+03  0.7818608E-02  0.9345016E-01
         -3   -1    0    0    0  501 -0.00000000000E+00  0.00000000000E+00  0.14323542396E+03  0.14323542396E+03  0.00000000000E+00 0.  1.
          3   -1    0    0  501    0  0.00000000000E+00 -0.00000000000E+00 -0.16335085964E+04  0.16335085964E+04  0.00000000000E+00 0. -1.
         23    2    1    2    0    0  0.28060815358E+03 -0.31609001590E+03 -0.33436859875E+03  0.54598441042E+03  0.87423009416E+02 0.  0.
         13    1    3    3    0    0  0.16545582874E+03 -0.24099624128E+03 -0.25028956857E+03  0.38483722235E+03  0.00000000000E+00 0. -1.
        -13    1    3    3    0    0  0.11515232484E+03 -0.75093774619E+02 -0.84079030187E+02  0.16114718806E+03  0.00000000000E+00 0.  1.
         22    1    1    2    0    0 -0.28060815358E+03  0.31609001590E+03 -0.11559045736E+04  0.12307596099E+04  0.00000000000E+00 0. -1.
<mgrwt>
<rscale>  0 0.96742193E+03</rscale>
<asrwt>0</asrwt>
<pdfrwt beam="1">  1        3 0.25130899E+00 0.96742193E+03</pdfrwt>
<pdfrwt beam="2">  1       -3 0.22036221E-01 0.96742193E+03</pdfrwt>
<totfact> 0.37000179E+00</totfact>
</mgrwt>
</event>
<event>
 6    1  0.1762360E-005  0.2911259E+04  0.7818608E-02  0.8269535E-01
         -2   -1    0    0    0  501 -0.00000000000E+00  0.00000000000E+00  0.12833261580E+04  0.12833261580E+04  0.00000000000E+00 0.  1.
          2   -1    0    0  501    0  0.00000000000E+00 -0.00000000000E+00 -0.16510671205E+04  0.16510671205E+04  0.00000000000E+00 0. -1.
         23    2    1    2    0    0  0.73790407769E+03 -0.98550264586E+03  0.59599369089E+03  0.13709028324E+04  0.91914108393E+02 0.  0.
         13    1    3    3    0    0  0.11574565345E+03 -0.18861948689E+03  0.75742047316E+02  0.23390430706E+03  0.00000000000E+00 0. -1.
        -13    1    3    3    0    0  0.62215842424E+03 -0.79688315897E+03  0.52025164358E+03  0.11369985253E+04  0.00000000000E+00 0.  1.
         22    1    1    2    0    0 -0.73790407769E+03  0.98550264586E+03 -0.96373465344E+03  0.15634904461E+04  0.00000000000E+00 0. -1.
<mgrwt>
<rscale>  0 0.29112593E+04</rscale>
<asrwt>0</asrwt>
<pdfrwt beam="1">  1        2 0.25401033E+00 0.29112593E+04</pdfrwt>
<pdfrwt beam="2">  1       -2 0.19743479E+00 0.29112593E+04</pdfrwt>
<totfact> 0.12452618E+00</totfact>
</mgrwt>
</event>
<event>
 6    1  0.1762360E-005  0.1528259E+04  0.7818608E-02  0.8865876E-01
          1   -1    0    0  501    0  0.00000000000E+00  0.00000000000E+00  0.19025863347E+04  0.19025863347E+04  0.00000000000E+00 0. -1.
         -1   -1    0    0    0  501 -0.00000000000E+00 -0.00000000000E+00 -0.30689465106E+03  0.30689465106E+03  0.00000000000E+00 0.  1.
         23    2    1    2    0    0  0.62826771397E+03  0.37792312042E+03  0.50181278204E+03  0.89262212592E+03  0.86092892249E+02 0.  0.
         11    1    3    3    0    0  0.16053033365E+03  0.73152320722E+02  0.84419374192E+02  0.19557065421E+03  0.00000000000E+00 0. -1.
        -11    1    3    3    0    0  0.46773738032E+03  0.30477079970E+03  0.41739340784E+03  0.69705147171E+03  0.00000000000E+00 0.  1.
         22    1    1    2    0    0 -0.62826771397E+03 -0.37792312042E+03  0.10938789016E+04  0.13168588599E+04  0.00000000000E+00 0. -1.
<mgrwt>
<rscale>  0 0.15282586E+04</rscale>
<asrwt>0</asrwt>
<pdfrwt beam="1">  1        1 0.29270558E+00 0.15282586E+04</pdfrwt>
<pdfrwt beam="2">  1       -1 0.47214563E-01 0.15282586E+04</pdfrwt>
<totfact> 0.14991740E+01</totfact>
</mgrwt>
</event>
<event>
 6    1  0.1762360E-005  0.2348494E+04  0.7818608E-02  0.8459042E-01
         -2   -1    0    0    0  501 -0.00000000000E+00  0.00000000000E+00  0.63195792453E+03  0.63195792453E+03  0.00000000000E+00 0. -1.
          2   -1    0    0  501    0  0.00000000000E+00 -0.00000000000E+00 -0.21818803749E+04  0.21818803749E+04  0.00000000000E+00 0.  1.
         23    2    1    2    0    0  0.32964138831E+03  0.10119173286E+04 -0.18661165284E+03  0.10843133775E+04  0.90947604696E+02 0.  0.
         11    1    3    3    0    0  0.12958068914E+03  0.44453509321E+03 -0.37892362734E+02  0.46458415303E+03  0.00000000000E+00 0. -1.
        -11    1    3    3    0    0  0.20006069918E+03  0.56738223541E+03 -0.14871929010E+03  0.61972922447E+03  0.00000000000E+00 0.  1.
         22    1    1    2    0    0 -0.32964138831E+03 -0.10119173286E+04 -0.13633107975E+04  0.17295249219E+04  0.00000000000E+00 0.  1.
<mgrwt>
<rscale>  0 0.23484945E+04</rscale>
<asrwt>0</asrwt>
<pdfrwt beam="1">  1        2 0.33567390E+00 0.23484945E+04</pdfrwt>
<pdfrwt beam="2">  1       -2 0.97224297E-01 0.23484945E+04</pdfrwt>
<totfact> 0.42136263E+00</totfact>
</mgrwt>
</event>
<event>
 6    1  0.1762360E-005  0.2901287E+04  0.7818608E-02  0.8272495E-01
          1   -1    0    0  501    0  0.00000000000E+00  0.00000000000E+00  0.90370587049E+03  0.90370587049E+03  0.00000000000E+00 0. -1.
         -1   -1    0    0    0  501 -0.00000000000E+00 -0.00000000000E+00 -0.23285964552E+04  0.23285964552E+04  0.00000000000E+00 0.  1.
         23    2    1    2    0    0 -0.34015546390E+03 -0.23271540714E+03 -0.22610336728E+04  0.23001019910E+04  0.91289096952E+02 0.  0.
         11    1    3    3    0    0 -0.10714114531E+03 -0.60753706147E+02 -0.47326928135E+03  0.48903379280E+03  0.00000000000E+00 0.  1.
        -11    1    3    3    0    0 -0.23301431858E+03 -0.17196170099E+03 -0.17877643914E+04  0.18110681982E+04  0.00000000000E+00 0. -1.
         22    1    1    2    0    0  0.34015546390E+03  0.23271540714E+03  0.83614308805E+03  0.93220033471E+03  0.00000000000E+00 0. -1.
<mgrwt>
<rscale>  0 0.29012868E+04</rscale>
<asrwt>0</asrwt>
<pdfrwt beam="1">  1        1 0.13903167E+00 0.29012868E+04</pdfrwt>
<pdfrwt beam="2">  1       -1 0.35824561E+00 0.29012868E+04</pdfrwt>
<totfact> 0.21233786E-01</totfact>
</mgrwt>
</event>
<event>
 6    1  0.1762360E-005  0.1202792E+04  0.7818608E-02  0.9110416E-01
          2   -1    0    0  501    0  0.00000000000E+00  0.00000000000E+00  0.33409012509E+04  0.33409012509E+04  0.00000000000E+00 0. -1.
         -2   -1    0    0    0  501 -0.00000000000E+00 -0.00000000000E+00 -0.10825738972E+03  0.10825738972E+03  0.00000000000E+00 0.  1.
         23    2    1    2    0    0  0.30873956034E+03 -0.49372648939E+03  0.12356028413E+04  0.13689522092E+04  0.90718283962E+02 0.  0.
         13    1    3    3    0    0  0.20034192357E+03 -0.26976523301E+03  0.62503316608E+03  0.70963133103E+03  0.00000000000E+00 0.  1.
        -13    1    3    3    0    0  0.10839763677E+03 -0.22396125639E+03  0.61056967523E+03  0.65932087813E+03  0.00000000000E+00 0. -1.
         22    1    1    2    0    0 -0.30873956034E+03  0.49372648939E+03  0.19970410199E+04  0.20802064315E+04  0.00000000000E+00 0. -1.
<mgrwt>
<rscale>  0 0.12027922E+04</rscale>
<asrwt>0</asrwt>
<pdfrwt beam="1">  1        2 0.51398473E+00 0.12027922E+04</pdfrwt>
<pdfrwt beam="2">  1       -2 0.16654986E-01 0.12027922E+04</pdfrwt>
<totfact> 0.30968950E+01</totfact>
</mgrwt>
</event>
<event>
 6    1  0.1762360E-005  0.2886360E+04  0.7818608E-02  0.8276947E-01
          2   -1    0    0  501    0  0.00000000000E+00  0.00000000000E+00  0.11378128685E+04  0.11378128685E+04  0.00000000000E+00 0. -1.
         -2   -1    0    0    0  501 -0.00000000000E+00 -0.00000000000E+00 -0.18305019485E+04  0.18305019485E+04  0.00000000000E+00 0.  1.
         23    2    1    2    0    0 -0.69620740688E+02  0.11786713561E+04 -0.11974456500E+04  0.16842227610E+04  0.92827855441E+02 0.  0.
         13    1    3    3    0    0 -0.17425107549E+02  0.86154508809E+03 -0.83709402921E+03  0.12013700458E+04  0.00000000000E+00 0. -1.
        -13    1    3    3    0    0 -0.52195633139E+02  0.31712626802E+03 -0.36035162077E+03  0.48285271520E+03  0.00000000000E+00 0.  1.
         22    1    1    2    0    0  0.69620740688E+02 -0.11786713561E+04  0.50475657000E+03  0.12840920560E+04  0.00000000000E+00 0. -1.
<mgrwt>
<rscale>  0 0.28863601E+04</rscale>
<asrwt>0</asrwt>
<pdfrwt beam="1">  1        2 0.17504814E+00 0.28863601E+04</pdfrwt>
<pdfrwt beam="2">  1       -2 0.28161568E+00 0.28863601E+04</pdfrwt>
<totfact> 0.73457423E-01</totfact>
</mgrwt>
</event>
<event>
 6    1  0.1762360E-005  0.2161364E+04  0.7818608E-02  0.8534684E-01
          1   -1    0    0  501    0  0.00000000000E+00  0.00000000000E+00  0.21265929390E+04  0.21265929390E+04  0.00000000000E+00 0. -1.
         -1   -1    0    0    0  501 -0.00000000000E+00 -0.00000000000E+00 -0.54917564545E+03  0.54917564545E+03  0.00000000000E+00 0.  1.
         23    2    1    2    0    0 -0.57085456695E+03  0.80843938349E+03  0.25872155944E+03  0.10270091682E+04  0.91442949186E+02 0.  0.
         13    1    3    3    0    0 -0.28265934133E+03  0.35394682714E+03  0.80192345622E+02  0.46000594777E+03  0.00000000000E+00 0.  1.
        -13    1    3    3    0    0 -0.28819522561E+03  0.45449255635E+03  0.17852921381E+03  0.56700322047E+03  0.00000000000E+00 0. -1.
         22    1    1    2    0    0  0.57085456695E+03 -0.80843938349E+03  0.13186957341E+04  0.16487594162E+04  0.00000000000E+00 0. -1.
<mgrwt>
<rscale>  0 0.21613635E+04</rscale>
<asrwt>0</asrwt>
<pdfrwt beam="1">  1        1 0.32716814E+00 0.21613635E+04</pdfrwt>
<pdfrwt beam="2">  1       -1 0.84488562E-01 0.21613635E+04</pdfrwt>
<totfact> 0.31014599E+00</totfact>
</mgrwt>
</event>
<event>
 6    1  0.1762360E-005  0.8366152E+03  0.7818608E-02  0.9508480E-01
         -2   -1    0    0    0  501 -0.00000000000E+00  0.00000000000E+00  0.51117731867E+02  0.51117731867E+02  0.00000000000E+00 0.  1.
          2   -1    0    0  501    0  0.00000000000E+00 -0.00000000000E+00 -0.34231029071E+04  0.34231029071E+04  0.00000000000E+00 0. -1.
         23    2    1    2    0    0  0.10104442053E+03  0.13613411096E+03 -0.32715744265E+04  0.32771805680E+04  0.89279203016E+02 0.  0.
         13    1    3    3    0    0  0.53705647826E+02  0.10900365115E+02 -0.71120173043E+03  0.71330990175E+03  0.00000000000E+00 0.  1.
        -13    1    3    3    0    0  0.47338772703E+02  0.12523374585E+03 -0.25603726961E+04  0.25638706663E+04  0.00000000000E+00 0. -1.
         22    1    1    2    0    0 -0.10104442053E+03 -0.13613411096E+03 -0.10041074865E+03  0.19704007088E+03  0.00000000000E+00 0.  1.
<mgrwt>
<rscale>  0 0.83661522E+03</rscale>
<asrwt>0</asrwt>
<pdfrwt beam="1">  1        2 0.52663121E+00 0.83661522E+03</pdfrwt>
<pdfrwt beam="2">  1       -2 0.78642665E-02 0.83661522E+03</pdfrwt>
<totfact> 0.98595185E+01</totfact>
</mgrwt>
</event>
<event>
 6    1  0.1762360E-005  0.1610131E+04  0.7818608E-02  0.8814348E-01
          1   -1    0    0  501    0  0.00000000000E+00  0.00000000000E+00  0.25781594342E+04  0.25781594342E+04  0.00000000000E+00 0. -1.
         -1   -1    0    0    0  501 -0.00000000000E+00 -0.00000000000E+00 -0.25139272983E+03  0.25139272983E+03  0.00000000000E+00 0.  1.
         23    2    1    2    0    0 -0.55104042080E+03 -0.13022224879E+03  0.16760539671E+03  0.59738260687E+03  0.90393752787E+02 0.  0.
         13    1    3    3    0    0 -0.41139499530E+03 -0.83358623178E+02  0.84226443744E+02  0.42812217420E+03  0.00000000000E+00 0. -1.
        -13    1    3    3    0    0 -0.13964542550E+03 -0.46863625609E+02  0.83378952962E+02  0.16926043267E+03  0.00000000000E+00 0.  1.
         22    1    1    2    0    0  0.55104042080E+03  0.13022224879E+03  0.21591613077E+04  0.22321695572E+04  0.00000000000E+00 0. -1.
<mgrwt>
<rscale>  0 0.16101311E+04</rscale>
<asrwt>0</asrwt>
<pdfrwt beam="1">  1        1 0.39663989E+00 0.16101311E+04</pdfrwt>
<pdfrwt beam="2">  1       -1 0.38675806E-01 0.16101311E+04</pdfrwt>
<totfact> 0.74394291E+00</totfact>
</mgrwt>
</event>
<event>
 6    1  0.1762360E-005  0.1799882E+04  0.7818608E-02  0.8706362E-01
          2   -1    0    0  501    0  0.00000000000E+00  0.00000000000E+00  0.44906328242E+03  0.44906328242E+03  0.00000000000E+00 0. -1.
         -2   -1    0    0    0  501 -0.00000000000E+00 -0.00000000000E+00 -0.18035181861E+04  0.18035181861E+04  0.00000000000E+00 0.  1.
         23    2    1    2    0    0  0.86701152316E+03  0.60073614387E+02 -0.96004471166E+03  0.12981825896E+04  0.90963548542E+02 0.  0.
         11    1    3    3    0    0  0.76672292178E+03  0.65318186269E+02 -0.80645602841E+03  0.11146756613E+04  0.00000000000E+00 0. -1.
        -11    1    3    3    0    0  0.10028860138E+03 -0.52445718820E+01 -0.15358868325E+03  0.18350692827E+03  0.00000000000E+00 0.  1.
         22    1    1    2    0    0 -0.86701152316E+03 -0.60073614387E+02 -0.39441019198E+03  0.95439887886E+03  0.00000000000E+00 0. -1.
<mgrwt>
<rscale>  0 0.17998820E+04</rscale>
<asrwt>0</asrwt>
<pdfrwt beam="1">  1        2 0.69086657E-01 0.17998820E+04</pdfrwt>
<pdfrwt beam="2">  1       -2 0.27746434E+00 0.17998820E+04</pdfrwt>
<totfact> 0.28745429E+00</totfact>
</mgrwt>
</event>
<event>
 6    1  0.1762360E-005  0.2503822E+04  0.7818608E-02  0.8401625E-01
          1   -1    0    0  501    0  0.00000000000E+00  0.00000000000E+00  0.26430229763E+04  0.26430229763E+04  0.00000000000E+00 0. -1.
         -1   -1    0    0    0  501 -0.00000000000E+00 -0.00000000000E+00 -0.59298823593E+03  0.59298823593E+03  0.00000000000E+00 0.  1.
         23    2    1    2    0    0  0.15377747764E+03 -0.39368195241E+03  0.25471011431E+04  0.25835481857E+04  0.91454921320E+02 0.  0.
         11    1    3    3    0    0  0.85707028626E+02 -0.17739017885E+03  0.14444993663E+04  0.14578722131E+04  0.00000000000E+00 0. -1.
        -11    1    3    3    0    0  0.68070449011E+02 -0.21629177356E+03  0.11026017767E+04  0.11256759727E+04  0.00000000000E+00 0.  1.
         22    1    1    2    0    0 -0.15377747764E+03  0.39368195241E+03 -0.49706640269E+03  0.65246302651E+03  0.00000000000E+00 0.  1.
<mgrwt>
<rscale>  0 0.25038223E+04</rscale>
<asrwt>0</asrwt>
<pdfrwt beam="1">  1        1 0.40661891E+00 0.25038223E+04</pdfrwt>
<pdfrwt beam="2">  1       -1 0.91228961E-01 0.25038223E+04</pdfrwt>
<totfact> 0.11202524E+00</totfact>
</mgrwt>
</event>
<event>
 6    1  0.1762360E-005  0.1679550E+04  0.7818608E-02  0.8773115E-01
          2   -1    0    0  501    0  0.00000000000E+00  0.00000000000E+00  0.16251400103E+04  0.16251400103E+04  0.00000000000E+00 0.  1.
         -2   -1    0    0    0  501 -0.00000000000E+00 -0.00000000000E+00 -0.43394518242E+03  0.43394518242E+03  0.00000000000E+00 0. -1.
         23    2    1    2    0    0  0.25768768254E+03 -0.34697152851E+03 -0.28195091808E+03  0.52384886819E+03  0.90161705686E+02 0.  0.
         11    1    3    3    0    0  0.10806357100E+03 -0.21578280061E+03 -0.17348528673E+03  0.29721557349E+03  0.00000000000E+00 0. -1.
        -11    1    3    3    0    0  0.14962411153E+03 -0.13118872790E+03 -0.10846563134E+03  0.22663329469E+03  0.00000000000E+00 0.  1.
         22    1    1    2    0    0 -0.25768768254E+03  0.34697152851E+03  0.14731457460E+04  0.15352363246E+04  0.00000000000E+00 0.  1.
<mgrwt>
<rscale>  0 0.16795496E+04</rscale>
<asrwt>0</asrwt>
<pdfrwt beam="1">  1        2 0.25002154E+00 0.16795496E+04</pdfrwt>
<pdfrwt beam="2">  1       -2 0.66760798E-01 0.16795496E+04</pdfrwt>
<totfact> 0.21202628E+01</totfact>
</mgrwt>
</event>
<event>
 6    1  0.1762360E-005  0.1667350E+04  0.7818608E-02  0.8780208E-01
          1   -1    0    0  501    0  0.00000000000E+00  0.00000000000E+00  0.53232839205E+03  0.53232839205E+03  0.00000000000E+00 0. -1.
         -1   -1    0    0    0  501 -0.00000000000E+00 -0.00000000000E+00 -0.13056117431E+04  0.13056117431E+04  0.00000000000E+00 0.  1.
         23    2    1    2    0    0  0.13427707570E+03  0.36318502932E+03  0.42282152167E+03  0.58072075688E+03  0.92330166810E+02 0.  0.
         13    1    3    3    0    0  0.11141394462E+03  0.24412869314E+03  0.23246449131E+03  0.35503749885E+03  0.00000000000E+00 0. -1.
        -13    1    3    3    0    0  0.22863131071E+02  0.11905633619E+03  0.19035703035E+03  0.22568325803E+03  0.00000000000E+00 0.  1.
         22    1    1    2    0    0 -0.13427707570E+03 -0.36318502932E+03 -0.11961048728E+04  0.12572193783E+04  0.00000000000E+00 0.  1.
<mgrwt>
<rscale>  0 0.16673502E+04</rscale>
<asrwt>0</asrwt>
<pdfrwt beam="1">  1        1 0.81896677E-01 0.16673502E+04</pdfrwt>
<pdfrwt beam="2">  1       -1 0.20086334E+00 0.16673502E+04</pdfrwt>
<totfact> 0.57526949E+00</totfact>
</mgrwt>
</event>
<event>
 6    1  0.1762360E-005  0.1841588E+04  0.7818608E-02  0.8684491E-01
         -1   -1    0    0    0  501 -0.00000000000E+00  0.00000000000E+00  0.51419476899E+03  0.51419476899E+03  0.00000000000E+00 0.  1.
          1   -1    0    0  501    0  0.00000000000E+00 -0.00000000000E+00 -0.16489105396E+04  0.16489105396E+04  0.00000000000E+00 0. -1.
         23    2    1    2    0    0  0.26550343686E+03  0.87348463442E+03 -0.45075755474E+03  0.10223746995E+04  0.92737109108E+02 0.  0.
         11    1    3    3    0    0  0.15692574439E+03  0.46706992552E+03 -0.19402355772E+03  0.52955183460E+03  0.00000000000E+00 0.  1.
        -11    1    3    3    0    0  0.10857769247E+03  0.40641470890E+03 -0.25673399701E+03  0.49282286487E+03  0.00000000000E+00 0. -1.
         22    1    1    2    0    0 -0.26550343686E+03 -0.87348463442E+03 -0.68395821586E+03  0.11407306091E+04  0.00000000000E+00 0. -1.
<mgrwt>
<rscale>  0 0.18415875E+04</rscale>
<asrwt>0</asrwt>
<pdfrwt beam="1">  1        1 0.25367854E+00 0.18415875E+04</pdfrwt>
<pdfrwt beam="2">  1       -1 0.79106888E-01 0.18415875E+04</pdfrwt>
<totfact> 0.77585651E+00</totfact>
</mgrwt>
</event>
<event>
 6    1  0.1762360E-005  0.2826903E+04  0.7818608E-02  0.8294964E-01
         -1   -1    0    0    0  501 -0.00000000000E+00  0.00000000000E+00  0.73932908313E+03  0.73932908313E+03  0.00000000000E+00 0.  1.
          1   -1    0    0  501    0  0.00000000000E+00 -0.00000000000E+00 -0.27022403797E+04  0.27022403797E+04  0.00000000000E+00 0. -1.
         23    2    1    2    0    0 -0.10715928288E+04  0.56001034676E+03 -0.94777482473E+02  0.12162949345E+04  0.92020744117E+02 0.  0.
         11    1    3    3    0    0 -0.84370210662E+03  0.44835931499E+03 -0.11178498210E+03  0.96195384623E+03  0.00000000000E+00 0. -1.
        -11    1    3    3    0    0 -0.22789072214E+03  0.11165103176E+03  0.17007499623E+02  0.25434108825E+03  0.00000000000E+00 0.  1.
         22    1    1    2    0    0  0.10715928288E+04 -0.56001034676E+03 -0.18681338141E+04  0.22252745284E+04  0.00000000000E+00 0. -1.
<mgrwt>
<rscale>  0 0.28269028E+04</rscale>
<asrwt>0</asrwt>
<pdfrwt beam="1">  1        1 0.41572929E+00 0.28269028E+04</pdfrwt>
<pdfrwt beam="2">  1       -1 0.11374294E+00 0.28269028E+04</pdfrwt>
<totfact> 0.59487913E-01</totfact>
</mgrwt>
</event>
<event>
 6    1  0.1762360E-005  0.2794228E+04  0.7818608E-02  0.8305063E-01
          1   -1    0    0  501    0  0.00000000000E+00  0.00000000000E+00  0.12937544661E+04  0.12937544661E+04  0.00000000000E+00 0. -1.
         -1   -1    0    0    0  501 -0.00000000000E+00 -0.00000000000E+00 -0.15087306352E+04  0.15087306352E+04  0.00000000000E+00 0.  1.
         23    2    1    2    0    0 -0.87653911665E+03  0.23909433665E+03  0.95498936079E+03  0.13211660047E+04  0.89375655951E+02 0.  0.
         11    1    3    3    0    0 -0.35632073291E+03  0.13516100788E+03  0.36397679728E+03  0.52698393876E+03  0.00000000000E+00 0. -1.
        -11    1    3    3    0    0 -0.52021838374E+03  0.10393332877E+03  0.59101256351E+03  0.79418206593E+03  0.00000000000E+00 0.  1.
         22    1    1    2    0    0  0.87653911665E+03 -0.23909433665E+03 -0.11699655299E+04  0.14813190966E+04  0.00000000000E+00 0.  1.
<mgrwt>
<rscale>  0 0.27942276E+04</rscale>
<asrwt>0</asrwt>
<pdfrwt beam="1">  1        1 0.19903915E+00 0.27942276E+04</pdfrwt>
<pdfrwt beam="2">  1       -1 0.23211241E+00 0.27942276E+04</pdfrwt>
<totfact> 0.72349532E-01</totfact>
</mgrwt>
</event>
<event>
 6    1  0.1762360E-005  0.3302526E+04  0.7818608E-02  0.8162253E-01
          2   -1    0    0  501    0  0.00000000000E+00  0.00000000000E+00  0.35960926474E+04  0.35960926474E+04  0.00000000000E+00 0.  1.
         -2   -1    0    0    0  501 -0.00000000000E+00 -0.00000000000E+00 -0.75823115125E+03  0.75823115125E+03  0.00000000000E+00 0. -1.
         23    2    1    2    0    0 -0.76811146820E+03  0.96887383848E+03  0.28605928134E+04  0.31177040288E+04  0.91517345452E+02 0.  0.
         11    1    3    3    0    0 -0.66297701560E+03  0.88106039089E+03  0.25605456943E+04  0.27878666016E+04  0.00000000000E+00 0.  1.
        -11    1    3    3    0    0 -0.10513445260E+03  0.87813447597E+02  0.30004711914E+03  0.32983742724E+03  0.00000000000E+00 0. -1.
         22    1    1    2    0    0  0.76811146820E+03 -0.96887383848E+03 -0.22731317236E+02  0.12366197699E+04  0.00000000000E+00 0. -1.
<mgrwt>
<rscale>  0 0.33025260E+04</rscale>
<asrwt>0</asrwt>
<pdfrwt beam="1">  1        2 0.55324501E+00 0.33025260E+04</pdfrwt>
<pdfrwt beam="2">  1       -2 0.11665095E+00 0.33025260E+04</pdfrwt>
<totfact> 0.32989958E-01</totfact>
</mgrwt>
</event>
<event>
 6    1  0.1762360E-005  0.1356511E+04  0.7818608E-02  0.8985914E-01
         -2   -1    0    0    0  501 -0.00000000000E+00  0.00000000000E+00  0.47028004083E+03  0.47028004083E+03  0.00000000000E+00 0.  1.
          2   -1    0    0  501    0  0.00000000000E+00 -0.00000000000E+00 -0.97820487660E+03  0.97820487660E+03  0.00000000000E+00 0. -1.
         23    2    1    2    0    0 -0.35121796674E+03  0.65553896382E+02  0.35678074762E+03  0.51287435773E+03  0.89979061226E+02 0.  0.
         11    1    3    3    0    0 -0.28114925817E+03  0.73475896306E+02  0.32365259716E+03  0.43496507487E+03  0.00000000000E+00 0. -1.
        -11    1    3    3    0    0 -0.70068708575E+02 -0.79219999242E+01  0.33128150454E+02  0.77909282866E+02  0.00000000000E+00 0.  1.
         22    1    1    2    0    0  0.35121796674E+03 -0.65553896382E+02 -0.86470558338E+03  0.93561055970E+03  0.00000000000E+00 0. -1.
<mgrwt>
<rscale>  0 0.13565106E+04</rscale>
<asrwt>0</asrwt>
<pdfrwt beam="1">  1        2 0.15049306E+00 0.13565106E+04</pdfrwt>
<pdfrwt beam="2">  1       -2 0.72350776E-01 0.13565106E+04</pdfrwt>
<totfact> 0.43933328E+01</totfact>
</mgrwt>
</event>
<event>
 6    1  0.1762360E-005  0.6808931E+03  0.7818608E-02  0.9750477E-01
          1   -1    0    0  501    0  0.00000000000E+00  0.00000000000E+00  0.17687923155E+04  0.17687923155E+04  0.00000000000E+00 0. -1.
         -1   -1    0    0    0  501 -0.00000000000E+00 -0.00000000000E+00 -0.65527103333E+02  0.65527103333E+02  0.00000000000E+00 0.  1.
         23    2    1    2    0    0  0.24139360802E+03  0.23069375951E+03  0.91333166558E+03  0.97671491051E+03  0.91141650096E+02 0.  0.
         11    1    3    3    0    0  0.16334422878E+03  0.16337120666E+03  0.50106543986E+03  0.55175906269E+03  0.00000000000E+00 0. -1.
        -11    1    3    3    0    0  0.78049379245E+02  0.67322552858E+02  0.41226622572E+03  0.42495584782E+03  0.00000000000E+00 0.  1.
         22    1    1    2    0    0 -0.24139360802E+03 -0.23069375951E+03  0.78993354654E+03  0.85760450828E+03  0.00000000000E+00 0.  1.
<mgrwt>
<rscale>  0 0.68089305E+03</rscale>
<asrwt>0</asrwt>
<pdfrwt beam="1">  1        1 0.27212186E+00 0.68089305E+03</pdfrwt>
<pdfrwt beam="2">  1       -1 0.10081094E-01 0.68089305E+03</pdfrwt>
<totfact> 0.27425585E+02</totfact>
</mgrwt>
</event>
<event>
 6    1  0.1762360E-005  0.1642405E+04  0.7818608E-02  0.8794913E-01
          1   -1    0    0  501    0  0.00000000000E+00  0.00000000000E+00  0.22102658675E+04  0.22102658675E+04  0.00000000000E+00 0. -1.
         -1   -1    0    0    0  501 -0.00000000000E+00 -0.00000000000E+00 -0.30510954802E+03  0.30510954802E+03  0.00000000000E+00 0.  1.
         23    2    1    2    0    0  0.37575399164E+03  0.50259621133E+03  0.17609335661E+04  0.18714855053E+04  0.88187066013E+02 0.  0.
         13    1    3    3    0    0  0.73300659889E+01  0.12388897556E+02  0.98740889373E+02  0.99784657559E+02  0.00000000000E+00 0. -1.
        -13    1    3    3    0    0  0.36842392565E+03  0.49020731377E+03  0.16621926767E+04  0.17717008478E+04  0.00000000000E+00 0.  1.
         22    1    1    2    0    0 -0.37575399164E+03 -0.50259621133E+03  0.14422275343E+03  0.64388991022E+03  0.00000000000E+00 0.  1.
<mgrwt>
<rscale>  0 0.16424046E+04</rscale>
<asrwt>0</asrwt>
<pdfrwt beam="1">  1        1 0.34004089E+00 0.16424046E+04</pdfrwt>
<pdfrwt beam="2">  1       -1 0.46939932E-01 0.16424046E+04</pdfrwt>
<totfact> 0.92814851E+00</totfact>
</mgrwt>
</event>
<event>
 6    1  0.1762360E-005  0.3373161E+04  0.7818608E-02  0.8144525E-01
          1   -1    0    0  501    0  0.00000000000E+00  0.00000000000E+00  0.14479536452E+04  0.14479536452E+04  0.00000000000E+00 0. -1.
         -1   -1    0    0    0  501 -0.00000000000E+00 -0.00000000000E+00 -0.19645334473E+04  0.19645334473E+04  0.00000000000E+00 0.  1.
         23    2    1    2    0    0  0.29122425967E+03 -0.14148513615E+04  0.61980711585E+03  0.15745558719E+04  0.91920554927E+02 0.  0.
         11    1    3    3    0    0  0.10279463800E+03 -0.69706068633E+03  0.32675400886E+03  0.77667787425E+03  0.00000000000E+00 0. -1.
        -11    1    3    3    0    0  0.18842962167E+03 -0.71779067513E+03  0.29305310698E+03  0.79787799765E+03  0.00000000000E+00 0.  1.
         22    1    1    2    0    0 -0.29122425967E+03  0.14148513615E+04 -0.11363869180E+04  0.18379312206E+04  0.00000000000E+00 0.  1.
<mgrwt>
<rscale>  0 0.33731608E+04</rscale>
<asrwt>0</asrwt>
<pdfrwt beam="1">  1        1 0.22276210E+00 0.33731608E+04</pdfrwt>
<pdfrwt beam="2">  1       -1 0.30223591E+00 0.33731608E+04</pdfrwt>
<totfact> 0.18724430E-01</totfact>
</mgrwt>
</event>
<event>
 6    1  0.1762360E-005  0.9416905E+03  0.7818608E-02  0.9374916E-01
          1   -1    0    0  501    0  0.00000000000E+00  0.00000000000E+00  0.33978653237E+03  0.33978653237E+03  0.00000000000E+00 0. -1.
         -1   -1    0    0    0  501 -0.00000000000E+00 -0.00000000000E+00 -0.65245450018E+03  0.65245450018E+03  0.00000000000E+00 0.  1.
         23    2    1    2    0    0  0.39533121348E+03 -0.19494823947E+03  0.35581334352E+01  0.44975551981E+03  0.89307238589E+02 0.  0.
         13    1    3    3    0    0  0.22127910369E+03 -0.80747901542E+02 -0.34707653201E+02  0.23809512075E+03  0.00000000000E+00 0.  1.
        -13    1    3    3    0    0  0.17405210979E+03 -0.11420033793E+03  0.38265786636E+02  0.21166039906E+03  0.00000000000E+00 0. -1.
         22    1    1    2    0    0 -0.39533121348E+03  0.19494823947E+03 -0.31622610125E+03  0.54248551274E+03  0.00000000000E+00 0.  1.
<mgrwt>
<rscale>  0 0.94169051E+03</rscale>
<asrwt>0</asrwt>
<pdfrwt beam="1">  1        1 0.52274851E-01 0.94169051E+03</pdfrwt>
<pdfrwt beam="2">  1       -1 0.10037762E+00 0.94169051E+03</pdfrwt>
<totfact> 0.70816700E+01</totfact>
</mgrwt>
</event>
<event>
 6    1  0.1762360E-005  0.1162907E+04  0.7818608E-02  0.9145958E-01
          1   -1    0    0  501    0  0.00000000000E+00  0.00000000000E+00  0.19581966367E+04  0.19581966367E+04  0.00000000000E+00 0. -1.
         -1   -1    0    0    0  501 -0.00000000000E+00 -0.00000000000E+00 -0.17265285026E+03  0.17265285026E+03  0.00000000000E+00 0.  1.
         23    2    1    2    0    0 -0.57387650674E+03  0.17834128265E+02  0.77615446799E+03  0.96959193701E+03  0.89668640108E+02 0.  0.
         13    1    3    3    0    0 -0.21096357479E+03 -0.29066544748E+02  0.32720583082E+03  0.39040254820E+03  0.00000000000E+00 0. -1.
        -13    1    3    3    0    0 -0.36291293195E+03  0.46900673013E+02  0.44894863716E+03  0.57918938881E+03  0.00000000000E+00 0.  1.
         22    1    1    2    0    0  0.57387650674E+03 -0.17834128265E+02  0.10093893184E+04  0.11612575500E+04  0.00000000000E+00 0. -1.
<mgrwt>
<rscale>  0 0.11629071E+04</rscale>
<asrwt>0</asrwt>
<pdfrwt beam="1">  1        1 0.30126100E+00 0.11629071E+04</pdfrwt>
<pdfrwt beam="2">  1       -1 0.26561978E-01 0.11629071E+04</pdfrwt>
<totfact> 0.39905435E+01</totfact>
</mgrwt>
</event>
<event>
 6    1  0.1762360E-005  0.2119479E+03  0.7818608E-02  0.1140033E+00
          1   -1    0    0  501    0  0.00000000000E+00  0.00000000000E+00  0.85146718854E+02  0.85146718854E+02  0.00000000000E+00 0. -1.
         -1   -1    0    0    0  501 -0.00000000000E+00 -0.00000000000E+00 -0.13189558519E+03  0.13189558519E+03  0.00000000000E+00 0.  1.
         23    2    1    2    0    0 -0.71319132410E+02  0.29682557929E+02  0.12154614164E+02  0.11989760317E+03  0.90885794864E+02 0.  0.
         13    1    3    3    0    0 -0.69258448199E+02  0.23583945446E+02 -0.28661140616E+02  0.78577325681E+02  0.00000000000E+00 0.  1.
        -13    1    3    3    0    0 -0.20606842109E+01  0.60986124827E+01  0.40815754781E+02  0.41320277491E+02  0.00000000000E+00 0. -1.
         22    1    1    2    0    0  0.71319132410E+02 -0.29682557929E+02 -0.58903480503E+02  0.97144700876E+02  0.00000000000E+00 0.  1.
<mgrwt>
<rscale>  0 0.21194788E+03</rscale>
<asrwt>0</asrwt>
<pdfrwt beam="1">  1        1 0.13099495E-01 0.21194788E+03</pdfrwt>
<pdfrwt beam="2">  1       -1 0.20291628E-01 0.21194788E+03</pdfrwt>
<totfact> 0.85590453E+03</totfact>
</mgrwt>
</event>
<event>
 6    1  0.1762360E-005  0.2708317E+04  0.7818608E-02  0.8332311E-01
          2   -1    0    0  501    0  0.00000000000E+00  0.00000000000E+00  0.25540257773E+04  0.25540257773E+04  0.00000000000E+00 0. -1.
         -2   -1    0    0    0  501 -0.00000000000E+00 -0.00000000000E+00 -0.71798243085E+03  0.71798243085E+03  0.00000000000E+00 0.  1.
         23    2    1    2    0    0  0.11395323483E+04  0.37249963139E+02  0.17983822588E+04  0.21312453537E+04  0.90035972381E+02 0.  0.
         11    1    3    3    0    0  0.10012358236E+04  0.62162623706E+02  0.15793443300E+04  0.18710066485E+04  0.00000000000E+00 0. -1.
        -11    1    3    3    0    0  0.13829652469E+03 -0.24912660567E+02  0.21903792886E+03  0.26023870518E+03  0.00000000000E+00 0.  1.
         22    1    1    2    0    0 -0.11395323483E+04 -0.37249963139E+02  0.37661087654E+02  0.11407628545E+04  0.00000000000E+00 0.  1.
<mgrwt>
<rscale>  0 0.27083173E+04</rscale>
<asrwt>0</asrwt>
<pdfrwt beam="1">  1        2 0.39292704E+00 0.27083173E+04</pdfrwt>
<pdfrwt beam="2">  1       -2 0.11045884E+00 0.27083173E+04</pdfrwt>
<totfact> 0.18458701E+00</totfact>
</mgrwt>
</event>
<event>
 6    1  0.1762360E-005  0.1383003E+04  0.7818608E-02  0.8966214E-01
         -1   -1    0    0    0  501 -0.00000000000E+00  0.00000000000E+00  0.56003919522E+03  0.56003919522E+03  0.00000000000E+00 0.  1.
          1   -1    0    0  501    0  0.00000000000E+00 -0.00000000000E+00 -0.85382352920E+03  0.85382352920E+03  0.00000000000E+00 0. -1.
         23    2    1    2    0    0 -0.21452002765E+03  0.11222300225E+02 -0.81623814819E+03  0.84897090268E+03  0.91444500949E+02 0.  0.
         11    1    3    3    0    0 -0.12866255487E+03 -0.22657192355E+02 -0.59642534104E+03  0.61056579402E+03  0.00000000000E+00 0. -1.
        -11    1    3    3    0    0 -0.85857472774E+02  0.33879492581E+02 -0.21981280715E+03  0.23840510866E+03  0.00000000000E+00 0.  1.
         22    1    1    2    0    0  0.21452002765E+03 -0.11222300225E+02  0.52245381421E+03  0.56489182174E+03  0.00000000000E+00 0.  1.
<mgrwt>
<rscale>  0 0.13830035E+04</rscale>
<asrwt>0</asrwt>
<pdfrwt beam="1">  1        1 0.13135747E+00 0.13830035E+04</pdfrwt>
<pdfrwt beam="2">  1       -1 0.86159877E-01 0.13830035E+04</pdfrwt>
<totfact> 0.25810410E+01</totfact>
</mgrwt>
</event>
<event>
 6    1  0.1762360E-005  0.4781319E+04  0.7818608E-02  0.7863156E-01
         -2   -1    0    0    0  501 -0.00000000000E+00  0.00000000000E+00  0.14750606976E+04  0.14750606976E+04  0.00000000000E+00 0.  1.
          2   -1    0    0  501    0  0.00000000000E+00 -0.00000000000E+00 -0.38745881156E+04  0.38745881156E+04  0.00000000000E+00 0. -1.
         23    2    1    2    0    0 -0.16244677152E+04  0.17520807130E+04 -0.11400370642E+04  0.26487233914E+04  0.85842378562E+02 0.  0.
         13    1    3    3    0    0 -0.79976068636E+03  0.92552366126E+03 -0.57972575514E+03  0.13536222347E+04  0.00000000000E+00 0.  1.
        -13    1    3    3    0    0 -0.82470702882E+03  0.82655705175E+03 -0.56031130901E+03  0.12951011567E+04  0.00000000000E+00 0. -1.
         22    1    1    2    0    0  0.16244677152E+04 -0.17520807130E+04 -0.12594903539E+04  0.27009254218E+04  0.00000000000E+00 0.  1.
<mgrwt>
<rscale>  0 0.47813189E+04</rscale>
<asrwt>0</asrwt>
<pdfrwt beam="1">  1        2 0.59609048E+00 0.47813189E+04</pdfrwt>
<pdfrwt beam="2">  1       -2 0.22693241E+00 0.47813189E+04</pdfrwt>
<totfact> 0.28381379E-02</totfact>
</mgrwt>
</event>
<event>
 6    1  0.1762360E-005  0.5031881E+04  0.7818608E-02  0.7823608E-01
          1   -1    0    0  501    0  0.00000000000E+00  0.00000000000E+00  0.37056667017E+04  0.37056667017E+04  0.00000000000E+00 0. -1.
         -1   -1    0    0    0  501 -0.00000000000E+00 -0.00000000000E+00 -0.17081828220E+04  0.17081828220E+04  0.00000000000E+00 0.  1.
         23    2    1    2    0    0 -0.21766857759E+03  0.12138781335E+04 -0.13592604251E+04  0.18377326267E+04  0.93768711369E+02 0.  0.
         11    1    3    3    0    0 -0.11419187946E+03  0.42564916808E+03 -0.44788591610E+03  0.62834607778E+03  0.00000000000E+00 0.  1.
        -11    1    3    3    0    0 -0.10347669813E+03  0.78822896544E+03 -0.91137450902E+03  0.12093865489E+04  0.00000000000E+00 0. -1.
         22    1    1    2    0    0  0.21766857759E+03 -0.12138781335E+04  0.33567443048E+04  0.35761168969E+04  0.00000000000E+00 0. -1.
<mgrwt>
<rscale>  0 0.50318808E+04</rscale>
<asrwt>0</asrwt>
<pdfrwt beam="1">  1        1 0.57010257E+00 0.50318808E+04</pdfrwt>
<pdfrwt beam="2">  1       -1 0.26279736E+00 0.50318808E+04</pdfrwt>
<totfact> 0.70596480E-03</totfact>
</mgrwt>
</event>
<event>
 6    1  0.1762360E-005  0.9978773E+03  0.7818608E-02  0.9310876E-01
         -2   -1    0    0    0  501 -0.00000000000E+00  0.00000000000E+00  0.10620069881E+03  0.10620069881E+03  0.00000000000E+00 0. -1.
          2   -1    0    0  501    0  0.00000000000E+00 -0.00000000000E+00 -0.23440501703E+04  0.23440501703E+04  0.00000000000E+00 0.  1.
         23    2    1    2    0    0  0.46340437869E+03 -0.10166005588E+03 -0.78398247011E+03  0.92093479882E+03  0.91727886026E+02 0.  0.
         11    1    3    3    0    0  0.15565429069E+03 -0.37371948266E+02 -0.18645672227E+03  0.24574586468E+03  0.00000000000E+00 0. -1.
        -11    1    3    3    0    0  0.30775008800E+03 -0.64288107612E+02 -0.59752574784E+03  0.67518893414E+03  0.00000000000E+00 0.  1.
         22    1    1    2    0    0 -0.46340437869E+03  0.10166005588E+03 -0.14538670014E+04  0.15293160703E+04  0.00000000000E+00 0.  1.
<mgrwt>
<rscale>  0 0.99787728E+03</rscale>
<asrwt>0</asrwt>
<pdfrwt beam="1">  1        2 0.36062306E+00 0.99787728E+03</pdfrwt>
<pdfrwt beam="2">  1       -2 0.16338571E-01 0.99787728E+03</pdfrwt>
<totfact> 0.13093141E+02</totfact>
</mgrwt>
</event>
<event>
 6    1  0.1762360E-005  0.2979118E+04  0.7818608E-02  0.8249719E-01
         -1   -1    0    0    0  501 -0.00000000000E+00  0.00000000000E+00  0.15213438038E+04  0.15213438038E+04  0.00000000000E+00 0.  1.
          1   -1    0    0  501    0  0.00000000000E+00 -0.00000000000E+00 -0.14584385937E+04  0.14584385937E+04  0.00000000000E+00 0. -1.
         23    2    1    2    0    0 -0.11691316430E+04  0.40117441117E+03  0.86045959475E+03  0.15087614244E+04  0.90336120874E+02 0.  0.
         13    1    3    3    0    0 -0.16163331183E+03  0.74234015504E+02  0.92820723935E+02  0.20062827154E+03  0.00000000000E+00 0. -1.
        -13    1    3    3    0    0 -0.10074983312E+04  0.32694039566E+03  0.76763887081E+03  0.13081331529E+04  0.00000000000E+00 0.  1.
         22    1    1    2    0    0  0.11691316430E+04 -0.40117441117E+03 -0.79755438464E+03  0.14710209731E+04  0.00000000000E+00 0. -1.
<mgrwt>
<rscale>  0 0.29791183E+04</rscale>
<asrwt>0</asrwt>
<pdfrwt beam="1">  1        1 0.22437517E+00 0.29791183E+04</pdfrwt>
<pdfrwt beam="2">  1       -1 0.23405289E+00 0.29791183E+04</pdfrwt>
<totfact> 0.52897168E-01</totfact>
</mgrwt>
</event>
<event>
 6    1  0.1762360E-005  0.2094438E+04  0.7818608E-02  0.8563698E-01
          2   -1    0    0  501    0  0.00000000000E+00  0.00000000000E+00  0.35484145909E+04  0.35484145909E+04  0.00000000000E+00 0.  1.
         -2   -1    0    0    0  501 -0.00000000000E+00 -0.00000000000E+00 -0.30905840489E+03  0.30905840489E+03  0.00000000000E+00 0. -1.
         23    2    1    2    0    0 -0.44020367790E+03 -0.41847846913E+03  0.56494373133E+02  0.61717781988E+03  0.93879390671E+02 0.  0.
         11    1    3    3    0    0 -0.30152548214E+02 -0.32681912555E+01  0.92538857037E+01  0.31709488146E+02  0.00000000000E+00 0. -1.
        -11    1    3    3    0    0 -0.41005112969E+03 -0.41521027787E+03  0.47240487430E+02  0.58546833173E+03  0.00000000000E+00 0.  1.
         22    1    1    2    0    0  0.44020367790E+03  0.41847846913E+03  0.31828618128E+04  0.32402951759E+04  0.00000000000E+00 0.  1.
<mgrwt>
<rscale>  0 0.20944377E+04</rscale>
<asrwt>0</asrwt>
<pdfrwt beam="1">  1        2 0.54590991E+00 0.20944377E+04</pdfrwt>
<pdfrwt beam="2">  1       -2 0.47547449E-01 0.20944377E+04</pdfrwt>
<totfact> 0.29187889E+00</totfact>
</mgrwt>
</event>
<event>
 6    1  0.1762360E-005  0.3565134E+04  0.7818608E-02  0.8098525E-01
          2   -1    0    0  501    0  0.00000000000E+00  0.00000000000E+00  0.22507669363E+04  0.22507669363E+04  0.00000000000E+00 0. -1.
         -2   -1    0    0    0  501 -0.00000000000E+00 -0.00000000000E+00 -0.14117607334E+04  0.14117607334E+04  0.00000000000E+00 0.  1.
         23    2    1    2    0    0 -0.11455433127E+04  0.90123124439E+03 -0.63234545799E+03  0.15914499438E+04  0.91459871313E+02 0.  0.
         11    1    3    3    0    0 -0.56038316729E+03  0.44786442255E+03 -0.26176515485E+03  0.76363134526E+03  0.00000000000E+00 0. -1.
        -11    1    3    3    0    0 -0.58516014544E+03  0.45336682185E+03 -0.37058030313E+03  0.82781859851E+03  0.00000000000E+00 0.  1.
         22    1    1    2    0    0  0.11455433127E+04 -0.90123124439E+03  0.14713516609E+04  0.20710777260E+04  0.00000000000E+00 0. -1.
<mgrwt>
<rscale>  0 0.35651336E+04</rscale>
<asrwt>0</asrwt>
<pdfrwt beam="1">  1        2 0.34627184E+00 0.35651336E+04</pdfrwt>
<pdfrwt beam="2">  1       -2 0.21719396E+00 0.35651336E+04</pdfrwt>
<totfact> 0.40690978E-01</totfact>
</mgrwt>
</event>
<event>
 6    1  0.2309966E-005  0.4026086E+04  0.7818608E-02  0.7999305E-01
         -2   -1    0    0    0  501 -0.00000000000E+00  0.00000000000E+00  0.19964049367E+04  0.19964049367E+04  0.00000000000E+00 0.  1.
          2   -1    0    0  501    0  0.00000000000E+00 -0.00000000000E+00 -0.20298192816E+04  0.20298192816E+04  0.00000000000E+00 0. -1.
         23    2    1    2    0    0 -0.13710642102E+04  0.84878015788E+03  0.11866559807E+04  0.20041420181E+04  0.90487496633E+02 0.  0.
         11    1    3    3    0    0 -0.61165083406E+03  0.38636664275E+03  0.58781394892E+03  0.93215940911E+03  0.00000000000E+00 0. -1.
        -11    1    3    3    0    0 -0.75941337618E+03  0.46241351513E+03  0.59884203177E+03  0.10719826090E+04  0.00000000000E+00 0.  1.
         22    1    1    2    0    0  0.13710642102E+04 -0.84878015788E+03 -0.12200703256E+04  0.20220822002E+04  0.00000000000E+00 0. -1.
<mgrwt>
<rscale>  0 0.40260856E+04</rscale>
<asrwt>0</asrwt>
<pdfrwt beam="1">  1        2 0.31227989E+00 0.40260856E+04</pdfrwt>
<pdfrwt beam="2">  1       -2 0.30713922E+00 0.40260856E+04</pdfrwt>
<totfact> 0.14546699E-01</totfact>
</mgrwt>
</event>
<event>
 6    1  0.1762360E-005  0.2956824E+04  0.7818608E-02  0.8256169E-01
         -1   -1    0    0    0  501 -0.00000000000E+00  0.00000000000E+00  0.27660465604E+04  0.27660465604E+04  0.00000000000E+00 0.  1.
          1   -1    0    0  501    0  0.00000000000E+00 -0.00000000000E+00 -0.79019002335E+03  0.79019002335E+03  0.00000000000E+00 0. -1.
         23    2    1    2    0    0 -0.11486165360E+04  0.44975256838E+02  0.21043720102E+04  0.23995780570E+04  0.90832669069E+02 0.  0.
         13    1    3    3    0    0 -0.59772866962E+03 -0.21218500854E+02  0.11092536268E+04  0.12602275175E+04  0.00000000000E+00 0. -1.
        -13    1    3    3    0    0 -0.55088786637E+03  0.66193757692E+02  0.99511838344E+03  0.11393505395E+04  0.00000000000E+00 0.  1.
         22    1    1    2    0    0  0.11486165360E+04 -0.44975256838E+02 -0.12851547322E+03  0.11566585267E+04  0.00000000000E+00 0. -1.
<mgrwt>
<rscale>  0 0.29568242E+04</rscale>
<asrwt>0</asrwt>
<pdfrwt beam="1">  1        1 0.12156770E+00 0.29568242E+04</pdfrwt>
<pdfrwt beam="2">  1       -1 0.42554562E+00 0.29568242E+04</pdfrwt>
<totfact> 0.91885637E-02</totfact>
</mgrwt>
</event>
<event>
 6    1  0.1762360E-005  0.1676991E+04  0.7818608E-02  0.8774597E-01
         -2   -1    0    0    0  501 -0.00000000000E+00  0.00000000000E+00  0.55183899599E+03  0.55183899599E+03  0.00000000000E+00 0.  1.
          2   -1    0    0  501    0  0.00000000000E+00 -0.00000000000E+00 -0.12740574461E+04  0.12740574461E+04  0.00000000000E+00 0. -1.
         23    2    1    2    0    0  0.52124887790E+03  0.65326407268E+03 -0.38948719081E+03  0.92636076618E+03  0.89384875407E+02 0.  0.
         13    1    3    3    0    0  0.12367583937E+03  0.20052015383E+03 -0.14130353637E+03  0.27471937450E+03  0.00000000000E+00 0. -1.
        -13    1    3    3    0    0  0.39757303852E+03  0.45274391885E+03 -0.24818365444E+03  0.65164139168E+03  0.00000000000E+00 0.  1.
         22    1    1    2    0    0 -0.52124887790E+03 -0.65326407268E+03 -0.33273125933E+03  0.89953567594E+03  0.00000000000E+00 0. -1.
<mgrwt>
<rscale>  0 0.16769909E+04</rscale>
<asrwt>0</asrwt>
<pdfrwt beam="1">  1        2 0.19600884E+00 0.16769909E+04</pdfrwt>
<pdfrwt beam="2">  1       -2 0.84898307E-01 0.16769909E+04</pdfrwt>
<totfact> 0.19719721E+01</totfact>
</mgrwt>
</event>
<event>
 6    1  0.1762360E-005  0.2228320E+04  0.7818608E-02  0.8506732E-01
          2   -1    0    0  501    0  0.00000000000E+00  0.00000000000E+00  0.24783849553E+04  0.24783849553E+04  0.00000000000E+00 0. -1.
         -2   -1    0    0    0  501 -0.00000000000E+00 -0.00000000000E+00 -0.50087147378E+03  0.50087147378E+03  0.00000000000E+00 0.  1.
         23    2    1    2    0    0 -0.18460475332E+03  0.47278448207E+03 -0.33293688583E+03  0.61371526869E+03  0.90528336125E+02 0.  0.
         11    1    3    3    0    0 -0.23316731042E+02  0.12769741909E+03 -0.49547850313E+02  0.13894347865E+03  0.00000000000E+00 0.  1.
        -11    1    3    3    0    0 -0.16128802227E+03  0.34508706299E+03 -0.28338903552E+03  0.47477179005E+03  0.00000000000E+00 0. -1.
         22    1    1    2    0    0  0.18460475332E+03 -0.47278448207E+03  0.23104503674E+04  0.23655411604E+04  0.00000000000E+00 0. -1.
<mgrwt>
<rscale>  0 0.22283198E+04</rscale>
<asrwt>0</asrwt>
<pdfrwt beam="1">  1        2 0.38128999E+00 0.22283198E+04</pdfrwt>
<pdfrwt beam="2">  1       -2 0.77057151E-01 0.22283198E+04</pdfrwt>
<totfact> 0.49125211E+00</totfact>
</mgrwt>
</event>
<event>
 6    1  0.1762360E-005  0.1226499E+04  0.7818608E-02  0.9089973E-01
         -1   -1    0    0    0  501 -0.00000000000E+00  0.00000000000E+00  0.26989105184E+03  0.26989105184E+03  0.00000000000E+00 0.  1.
          1   -1    0    0  501    0  0.00000000000E+00 -0.00000000000E+00 -0.13934316943E+04  0.13934316943E+04  0.00000000000E+00 0. -1.
         23    2    1    2    0    0 -0.11025601861E+03 -0.29286035347E+03  0.14579919867E+03  0.35597917671E+03  0.86834276902E+02 0.  0.
         11    1    3    3    0    0 -0.11893890205E+02 -0.66843782456E+02 -0.31706298363E+01  0.67967703880E+02  0.00000000000E+00 0.  1.
        -11    1    3    3    0    0 -0.98362128410E+02 -0.22601657102E+03  0.14896982850E+03  0.28801147283E+03  0.00000000000E+00 0. -1.
         22    1    1    2    0    0  0.11025601861E+03  0.29286035347E+03 -0.12693398412E+04  0.13073435695E+04  0.00000000000E+00 0. -1.
<mgrwt>
<rscale>  0 0.12264987E+04</rscale>
<asrwt>0</asrwt>
<pdfrwt beam="1">  1        1 0.21437410E+00 0.12264987E+04</pdfrwt>
<pdfrwt beam="2">  1       -1 0.41521701E-01 0.12264987E+04</pdfrwt>
<totfact> 0.43606575E+01</totfact>
</mgrwt>
</event>
<event>
 6    1  0.1762360E-005  0.6588910E+03  0.7818608E-02  0.9790237E-01
         -3   -1    0    0    0  501 -0.00000000000E+00  0.00000000000E+00  0.10212748591E+04  0.10212748591E+04  0.00000000000E+00 0.  1.
          3   -1    0    0  501    0  0.00000000000E+00 -0.00000000000E+00 -0.10627339993E+03  0.10627339993E+03  0.00000000000E+00 0. -1.
         23    2    1    2    0    0 -0.16584743465E+03  0.19674980284E+03  0.12713111587E+03  0.29872045162E+03  0.82799342390E+02 0.  0.
         11    1    3    3    0    0 -0.24438389307E+02  0.89650231729E+02  0.44736172430E+02  0.10312964678E+03  0.00000000000E+00 0.  1.
        -11    1    3    3    0    0 -0.14140904534E+03  0.10709957111E+03  0.82394943443E+02  0.19559080485E+03  0.00000000000E+00 0. -1.
         22    1    1    2    0    0  0.16584743465E+03 -0.19674980284E+03  0.78787034334E+03  0.82882780745E+03  0.00000000000E+00 0.  1.
<mgrwt>
<rscale>  0 0.65889104E+03</rscale>
<asrwt>0</asrwt>
<pdfrwt beam="1">  1        3 0.16349755E-01 0.65889104E+03</pdfrwt>
<pdfrwt beam="2">  1       -3 0.15711920E+00 0.65889104E+03</pdfrwt>
<totfact> 0.24856865E+01</totfact>
</mgrwt>
</event>
<event>
 6    1  0.1762360E-005  0.2612081E+04  0.7818608E-02  0.8364109E-01
          1   -1    0    0  501    0  0.00000000000E+00  0.00000000000E+00  0.14718853552E+04  0.14718853552E+04  0.00000000000E+00 0. -1.
         -1   -1    0    0    0  501 -0.00000000000E+00 -0.00000000000E+00 -0.11588823129E+04  0.11588823129E+04  0.00000000000E+00 0.  1.
         23    2    1    2    0    0 -0.45325764545E+03  0.10670310926E+04  0.75900748193E+03  0.13886252424E+04  0.90497847571E+02 0.  0.
         11    1    3    3    0    0 -0.21498998459E+03  0.58478180165E+03  0.44668328267E+03  0.76662663927E+03  0.00000000000E+00 0. -1.
        -11    1    3    3    0    0 -0.23826766085E+03  0.48224929093E+03  0.31232419926E+03  0.62199860310E+03  0.00000000000E+00 0.  1.
         22    1    1    2    0    0  0.45325764545E+03 -0.10670310926E+04 -0.44600443957E+03  0.12421424257E+04  0.00000000000E+00 0.  1.
<mgrwt>
<rscale>  0 0.26120811E+04</rscale>
<asrwt>0</asrwt>
<pdfrwt beam="1">  1        1 0.22644390E+00 0.26120811E+04</pdfrwt>
<pdfrwt beam="2">  1       -1 0.17828959E+00 0.26120811E+04</pdfrwt>
<totfact> 0.12890427E+00</totfact>
</mgrwt>
</event>
<event>
 6    1  0.1762360E-005  0.2864325E+04  0.7818608E-02  0.8283572E-01
          1   -1    0    0  501    0  0.00000000000E+00  0.00000000000E+00  0.26481890169E+04  0.26481890169E+04  0.00000000000E+00 0. -1.
         -1   -1    0    0    0  501 -0.00000000000E+00 -0.00000000000E+00 -0.77452543563E+03  0.77452543563E+03  0.00000000000E+00 0.  1.
         23    2    1    2    0    0  0.53677746967E+03 -0.11131529739E+04  0.76180907752E+02  0.12413883520E+04  0.89453421766E+02 0.  0.
         11    1    3    3    0    0  0.34254294844E+03 -0.67289565385E+03  0.87038576010E+02  0.76006575124E+03  0.00000000000E+00 0. -1.
        -11    1    3    3    0    0  0.19423452123E+03 -0.44025732002E+03 -0.10857668258E+02  0.48132260079E+03  0.00000000000E+00 0.  1.
         22    1    1    2    0    0 -0.53677746967E+03  0.11131529739E+04  0.17974826736E+04  0.21813261005E+04  0.00000000000E+00 0. -1.
<mgrwt>
<rscale>  0 0.28643252E+04</rscale>
<asrwt>0</asrwt>
<pdfrwt beam="1">  1        1 0.40741369E+00 0.28643252E+04</pdfrwt>
<pdfrwt beam="2">  1       -1 0.11915776E+00 0.28643252E+04</pdfrwt>
<totfact> 0.57857767E-01</totfact>
</mgrwt>
</event>
<event>
 6    1  0.1762360E-005  0.1307206E+04  0.7818608E-02  0.9023871E-01
         -1   -1    0    0    0  501 -0.00000000000E+00  0.00000000000E+00  0.20178734993E+03  0.20178734993E+03  0.00000000000E+00 0.  1.
          1   -1    0    0  501    0  0.00000000000E+00 -0.00000000000E+00 -0.21170632891E+04  0.21170632891E+04  0.00000000000E+00 0. -1.
         23    2    1    2    0    0 -0.84152305026E+02 -0.57357817108E+03 -0.43951422667E+03  0.73330777904E+03  0.92162978352E+02 0.  0.
         11    1    3    3    0    0 -0.46575412494E+02 -0.50936762714E+03 -0.39811836683E+03  0.64816886892E+03  0.00000000000E+00 0.  1.
        -11    1    3    3    0    0 -0.37576892531E+02 -0.64210543935E+02 -0.41395859845E+02  0.85138910124E+02  0.00000000000E+00 0. -1.
         22    1    1    2    0    0  0.84152305026E+02  0.57357817108E+03 -0.14757617125E+04  0.15855428600E+04  0.00000000000E+00 0.  1.
<mgrwt>
<rscale>  0 0.13072056E+04</rscale>
<asrwt>0</asrwt>
<pdfrwt beam="1">  1        1 0.32570204E+00 0.13072056E+04</pdfrwt>
<pdfrwt beam="2">  1       -1 0.31044208E-01 0.13072056E+04</pdfrwt>
<totfact> 0.23451555E+01</totfact>
</mgrwt>
</event>
<event>
 6    1  0.1762360E-005  0.3052384E+04  0.7818608E-02  0.8228928E-01
          2   -1    0    0  501    0  0.00000000000E+00  0.00000000000E+00  0.19689629681E+04  0.19689629681E+04  0.00000000000E+00 0. -1.
         -2   -1    0    0    0  501 -0.00000000000E+00 -0.00000000000E+00 -0.11829893578E+04  0.11829893578E+04  0.00000000000E+00 0.  1.
         23    2    1    2    0    0 -0.78371164781E+02  0.13956748430E+04  0.10219469599E+04  0.17343015479E+04  0.96829557885E+02 0.  0.
         13    1    3    3    0    0 -0.76593041641E+02  0.11011055024E+04  0.76006470431E+03  0.13401485650E+04  0.00000000000E+00 0. -1.
        -13    1    3    3    0    0 -0.17781231399E+01  0.29456934055E+03  0.26188225561E+03  0.39415298288E+03  0.00000000000E+00 0.  1.
         22    1    1    2    0    0  0.78371164781E+02 -0.13956748430E+04 -0.23597334956E+03  0.14176507780E+04  0.00000000000E+00 0.  1.
<mgrwt>
<rscale>  0 0.30523841E+04</rscale>
<asrwt>0</asrwt>
<pdfrwt beam="1">  1        2 0.30291738E+00 0.30523841E+04</pdfrwt>
<pdfrwt beam="2">  1       -2 0.18199836E+00 0.30523841E+04</pdfrwt>
<totfact> 0.10410319E+00</totfact>
</mgrwt>
</event>
<event>
 6    1  0.1762360E-005  0.1236139E+04  0.7818608E-02  0.9081799E-01
         -1   -1    0    0    0  501 -0.00000000000E+00  0.00000000000E+00  0.54747427959E+03  0.54747427959E+03  0.00000000000E+00 0.  1.
          1   -1    0    0  501    0  0.00000000000E+00 -0.00000000000E+00 -0.69776750775E+03  0.69776750775E+03  0.00000000000E+00 0. -1.
         23    2    1    2    0    0  0.27047596943E+03 -0.54487801201E+03 -0.16500847617E+03  0.63674705726E+03  0.90386501806E+02 0.  0.
         13    1    3    3    0    0  0.15218446086E+03 -0.20646657765E+03 -0.66843981784E+02  0.26505975876E+03  0.00000000000E+00 0. -1.
        -13    1    3    3    0    0  0.11829150857E+03 -0.33841143436E+03 -0.98164494388E+02  0.37168729850E+03  0.00000000000E+00 0.  1.
         22    1    1    2    0    0 -0.27047596943E+03  0.54487801201E+03  0.14715248008E+02  0.60849473008E+03  0.00000000000E+00 0.  1.
<mgrwt>
<rscale>  0 0.12361388E+04</rscale>
<asrwt>0</asrwt>
<pdfrwt beam="1">  1        1 0.10734885E+00 0.12361388E+04</pdfrwt>
<pdfrwt beam="2">  1       -1 0.84226813E-01 0.12361388E+04</pdfrwt>
<totfact> 0.37759839E+01</totfact>
</mgrwt>
</event>
<event>
 6    1  0.1762360E-005  0.3210787E+04  0.7818608E-02  0.8185974E-01
          2   -1    0    0  501    0  0.00000000000E+00  0.00000000000E+00  0.19749894544E+04  0.19749894544E+04  0.00000000000E+00 0. -1.
         -2   -1    0    0    0  501 -0.00000000000E+00 -0.00000000000E+00 -0.13049632807E+04  0.13049632807E+04  0.00000000000E+00 0.  1.
         23    2    1    2    0    0 -0.82168289235E+03 -0.54400089045E+02 -0.10708084854E+04  0.13541730344E+04  0.95034990530E+02 0.  0.
         11    1    3    3    0    0 -0.30417204767E+03  0.69346007385E+01 -0.33539613938E+03  0.45283473098E+03  0.00000000000E+00 0.  1.
        -11    1    3    3    0    0 -0.51751084469E+03 -0.61334689784E+02 -0.73541234607E+03  0.90133830346E+03  0.00000000000E+00 0. -1.
         22    1    1    2    0    0  0.82168289235E+03  0.54400089045E+02  0.17408346591E+04  0.19257797007E+04  0.00000000000E+00 0. -1.
<mgrwt>
<rscale>  0 0.32107873E+04</rscale>
<asrwt>0</asrwt>
<pdfrwt beam="1">  1        2 0.30384453E+00 0.32107873E+04</pdfrwt>
<pdfrwt beam="2">  1       -2 0.20076358E+00 0.32107873E+04</pdfrwt>
<totfact> 0.76313468E-01</totfact>
</mgrwt>
</event>
<event>
 6    1  0.1762360E-005  0.2953973E+04  0.7818608E-02  0.8256998E-01
          2   -1    0    0  501    0  0.00000000000E+00  0.00000000000E+00  0.20340626438E+04  0.20340626438E+04  0.00000000000E+00 0.  1.
         -2   -1    0    0    0  501 -0.00000000000E+00 -0.00000000000E+00 -0.10724786636E+04  0.10724786636E+04  0.00000000000E+00 0. -1.
         23    2    1    2    0    0 -0.14275574019E+04 -0.28571648690E+03  0.73465209246E+03  0.16330922487E+04  0.87878035425E+02 0.  0.
         11    1    3    3    0    0 -0.92934955043E+03 -0.21744409977E+03  0.44939758448E+03  0.10549553130E+04  0.00000000000E+00 0. -1.
        -11    1    3    3    0    0 -0.49820785150E+03 -0.68272387134E+02  0.28525450798E+03  0.57813693574E+03  0.00000000000E+00 0.  1.
         22    1    1    2    0    0  0.14275574019E+04  0.28571648690E+03  0.22693188775E+03  0.14734490586E+04  0.00000000000E+00 0.  1.
<mgrwt>
<rscale>  0 0.29539728E+04</rscale>
<asrwt>0</asrwt>
<pdfrwt beam="1">  1        2 0.31293271E+00 0.29539728E+04</pdfrwt>
<pdfrwt beam="2">  1       -2 0.16499672E+00 0.29539728E+04</pdfrwt>
<totfact> 0.12724551E+00</totfact>
</mgrwt>
</event>
<event>
 6    1  0.1762360E-005  0.1130270E+04  0.7818608E-02  0.9176181E-01
          1   -1    0    0  501    0  0.00000000000E+00  0.00000000000E+00  0.45175503335E+03  0.45175503335E+03  0.00000000000E+00 0. -1.
         -1   -1    0    0    0  501 -0.00000000000E+00 -0.00000000000E+00 -0.70697030638E+03  0.70697030638E+03  0.00000000000E+00 0.  1.
         23    2    1    2    0    0 -0.11072333772E+03 -0.17062228253E+03 -0.66536420019E+03  0.70091122542E+03  0.84825740329E+02 0.  0.
         11    1    3    3    0    0 -0.98149999375E+02 -0.76277575202E+02 -0.34518549830E+03  0.36688515791E+03  0.00000000000E+00 0. -1.
        -11    1    3    3    0    0 -0.12573338341E+02 -0.94344707326E+02 -0.32017870189E+03  0.33402606751E+03  0.00000000000E+00 0.  1.
         22    1    1    2    0    0  0.11072333772E+03  0.17062228253E+03  0.41014892715E+03  0.45781411430E+03  0.00000000000E+00 0. -1.
<mgrwt>
<rscale>  0 0.11302697E+04</rscale>
<asrwt>0</asrwt>
<pdfrwt beam="1">  1        1 0.69500775E-01 0.11302697E+04</pdfrwt>
<pdfrwt beam="2">  1       -1 0.10876466E+00 0.11302697E+04</pdfrwt>
<totfact> 0.39724226E+01</totfact>
</mgrwt>
</event>
<event>
 6    1  0.1762360E-005  0.3551818E+04  0.7818608E-02  0.8101618E-01
         -2   -1    0    0    0  501 -0.00000000000E+00  0.00000000000E+00  0.30540095515E+04  0.30540095515E+04  0.00000000000E+00 0. -1.
          2   -1    0    0  501    0  0.00000000000E+00 -0.00000000000E+00 -0.10326923445E+04  0.10326923445E+04  0.00000000000E+00 0.  1.
         23    2    1    2    0    0  0.13500184894E+03 -0.17342768420E+04  0.60655734544E+03  0.18444960335E+04  0.91170940781E+02 0.  0.
         13    1    3    3    0    0  0.12963729618E+03 -0.11678349031E+04  0.42852437256E+03  0.12507107288E+04  0.00000000000E+00 0. -1.
        -13    1    3    3    0    0  0.53645527649E+01 -0.56644193890E+03  0.17803297288E+03  0.59378530464E+03  0.00000000000E+00 0.  1.
         22    1    1    2    0    0 -0.13500184894E+03  0.17342768420E+04  0.14147598616E+04  0.22422058625E+04  0.00000000000E+00 0. -1.
<mgrwt>
<rscale>  0 0.35518177E+04</rscale>
<asrwt>0</asrwt>
<pdfrwt beam="1">  1        2 0.15887575E+00 0.35518177E+04</pdfrwt>
<pdfrwt beam="2">  1       -2 0.46984762E+00 0.35518177E+04</pdfrwt>
<totfact> 0.50429853E-02</totfact>
</mgrwt>
</event>
<event>
 6    1  0.1762360E-005  0.3517220E+04  0.7818608E-02  0.8109721E-01
          1   -1    0    0  501    0  0.00000000000E+00  0.00000000000E+00  0.13397191110E+04  0.13397191110E+04  0.00000000000E+00 0. -1.
         -1   -1    0    0    0  501 -0.00000000000E+00 -0.00000000000E+00 -0.23084752727E+04  0.23084752727E+04  0.00000000000E+00 0.  1.
         23    2    1    2    0    0 -0.73756758536E+03 -0.27431421767E+03  0.11454449307E+04  0.13922909078E+04  0.84709205918E+02 0.  0.
         11    1    3    3    0    0 -0.35595395132E+03 -0.89162582145E+02  0.55239912858E+03  0.66317266135E+03  0.00000000000E+00 0.  1.
        -11    1    3    3    0    0 -0.38161363404E+03 -0.18515163552E+03  0.59304580216E+03  0.72911824643E+03  0.00000000000E+00 0. -1.
         22    1    1    2    0    0  0.73756758536E+03  0.27431421767E+03 -0.21142010925E+04  0.22559034759E+04  0.00000000000E+00 0.  1.
<mgrwt>
<rscale>  0 0.35172196E+04</rscale>
<asrwt>0</asrwt>
<pdfrwt beam="1">  1        1 0.20611063E+00 0.35172196E+04</pdfrwt>
<pdfrwt beam="2">  1       -1 0.35515004E+00 0.35172196E+04</pdfrwt>
<totfact> 0.99098316E-02</totfact>
</mgrwt>
</event>
<event>
 6    1  0.1762360E-005  0.4483863E+04  0.7818608E-02  0.7913468E-01
         -2   -1    0    0    0  501 -0.00000000000E+00  0.00000000000E+00  0.21109089643E+04  0.21109089643E+04  0.00000000000E+00 0.  1.
          2   -1    0    0  501    0  0.00000000000E+00 -0.00000000000E+00 -0.23810865678E+04  0.23810865678E+04  0.00000000000E+00 0. -1.
         23    2    1    2    0    0  0.14385450040E+04  0.29640944515E+03  0.15603850434E+04  0.21450336892E+04  0.95382161241E+02 0.  0.
         13    1    3    3    0    0  0.30279977303E+03  0.94489187430E+02  0.37136628226E+03  0.48839412843E+03  0.00000000000E+00 0. -1.
        -13    1    3    3    0    0  0.11357452310E+04  0.20192025772E+03  0.11890187611E+04  0.16566395608E+04  0.00000000000E+00 0.  1.
         22    1    1    2    0    0 -0.14385450040E+04 -0.29640944515E+03 -0.18305626468E+04  0.23469618428E+04  0.00000000000E+00 0. -1.
<mgrwt>
<rscale>  0 0.44838631E+04</rscale>
<asrwt>0</asrwt>
<pdfrwt beam="1">  1        2 0.36632101E+00 0.44838631E+04</pdfrwt>
<pdfrwt beam="2">  1       -2 0.32475523E+00 0.44838631E+04</pdfrwt>
<totfact> 0.69192800E-02</totfact>
</mgrwt>
</event>
<event>
 6    1  0.1762360E-005  0.3526013E+04  0.7818608E-02  0.8107653E-01
          2   -1    0    0  501    0  0.00000000000E+00  0.00000000000E+00  0.45512147720E+04  0.45512147720E+04  0.00000000000E+00 0. -1.
         -2   -1    0    0    0  501 -0.00000000000E+00 -0.00000000000E+00 -0.68293692547E+03  0.68293692547E+03  0.00000000000E+00 0.  1.
         23    2    1    2    0    0 -0.11435918958E+04  0.30342691858E+03  0.38732537506E+04  0.40509800791E+04  0.92057946182E+02 0.  0.
         13    1    3    3    0    0 -0.69385109618E+03  0.19599145400E+03  0.25056938287E+04  0.26073633342E+04  0.00000000000E+00 0.  1.
        -13    1    3    3    0    0 -0.44974079961E+03  0.10743546458E+03  0.13675599220E+04  0.14436167449E+04  0.00000000000E+00 0. -1.
         22    1    1    2    0    0  0.11435918958E+04 -0.30342691858E+03 -0.49759040529E+01  0.11831716184E+04  0.00000000000E+00 0.  1.
<mgrwt>
<rscale>  0 0.35260134E+04</rscale>
<asrwt>0</asrwt>
<pdfrwt beam="1">  1        2 0.70018687E+00 0.35260134E+04</pdfrwt>
<pdfrwt beam="2">  1       -2 0.10506722E+00 0.35260134E+04</pdfrwt>
<totfact> 0.65560010E-02</totfact>
</mgrwt>
</event>
<event>
 6    1  0.1762360E-005  0.1583832E+04  0.7818608E-02  0.8830543E-01
          1   -1    0    0  501    0  0.00000000000E+00  0.00000000000E+00  0.60633745934E+03  0.60633745934E+03  0.00000000000E+00 0. -1.
         -1   -1    0    0    0  501 -0.00000000000E+00 -0.00000000000E+00 -0.10342932776E+04  0.10342932776E+04  0.00000000000E+00 0.  1.
         23    2    1    2    0    0 -0.74085249552E+02  0.59528385383E+03 -0.74575470779E+03  0.96177314871E+03  0.94900024059E+02 0.  0.
         13    1    3    3    0    0 -0.93795100134E+02  0.50821141319E+03 -0.61275851478E+03  0.80159176564E+03  0.00000000000E+00 0.  1.
        -13    1    3    3    0    0  0.19709850582E+02  0.87072440641E+02 -0.13299619300E+03  0.16018138307E+03  0.00000000000E+00 0. -1.
         22    1    1    2    0    0  0.74085249552E+02 -0.59528385383E+03  0.31779888957E+03  0.67885758819E+03  0.00000000000E+00 0. -1.
<mgrwt>
<rscale>  0 0.15838318E+04</rscale>
<asrwt>0</asrwt>
<pdfrwt beam="1">  1        1 0.93282687E-01 0.15838318E+04</pdfrwt>
<pdfrwt beam="2">  1       -1 0.15912204E+00 0.15838318E+04</pdfrwt>
<totfact> 0.96174840E+00</totfact>
</mgrwt>
</event>
<event>
 6    1  0.3382732E-005  0.4495753E+04  0.7818608E-02  0.7911381E-01
          2   -1    0    0  501    0  0.00000000000E+00  0.00000000000E+00  0.26524860281E+04  0.26524860281E+04  0.00000000000E+00 0. -1.
         -2   -1    0    0    0  501 -0.00000000000E+00 -0.00000000000E+00 -0.19049862785E+04  0.19049862785E+04  0.00000000000E+00 0.  1.
         23    2    1    2    0    0 -0.13789138920E+03 -0.22204242667E+04  0.69240693677E+03  0.23320884796E+04  0.99555771111E+02 0.  0.
         13    1    3    3    0    0 -0.28933031783E+02 -0.11628254289E+04  0.33594606186E+03  0.12107269944E+04  0.00000000000E+00 0. -1.
        -13    1    3    3    0    0 -0.10895835742E+03 -0.10575988378E+04  0.35646087491E+03  0.11213614853E+04  0.00000000000E+00 0.  1.
         22    1    1    2    0    0  0.13789138920E+03  0.22204242667E+04  0.55092812760E+02  0.22253838270E+04  0.00000000000E+00 0.  1.
<mgrwt>
<rscale>  0 0.44957533E+04</rscale>
<asrwt>0</asrwt>
<pdfrwt beam="1">  1        2 0.40807478E+00 0.44957533E+04</pdfrwt>
<pdfrwt beam="2">  1       -2 0.29307481E+00 0.44957533E+04</pdfrwt>
<totfact> 0.75259853E-02</totfact>
</mgrwt>
</event>
<event>
 6    1  0.1762360E-005  0.1665023E+04  0.7818608E-02  0.8781569E-01
          2   -1    0    0  501    0  0.00000000000E+00  0.00000000000E+00  0.31256318675E+04  0.31256318675E+04  0.00000000000E+00 0. -1.
         -2   -1    0    0    0  501 -0.00000000000E+00 -0.00000000000E+00 -0.22173917380E+03  0.22173917380E+03  0.00000000000E+00 0.  1.
         23    2    1    2    0    0 -0.64892150224E+03 -0.51524151083E+03  0.13565289151E+04  0.15921196080E+04  0.90006768344E+02 0.  0.
         13    1    3    3    0    0 -0.35519509051E+03 -0.24741491084E+03  0.63841284133E+03  0.77132914272E+03  0.00000000000E+00 0.  1.
        -13    1    3    3    0    0 -0.29372641173E+03 -0.26782659999E+03  0.71811607374E+03  0.82079046532E+03  0.00000000000E+00 0. -1.
         22    1    1    2    0    0  0.64892150224E+03  0.51524151083E+03  0.15473637786E+04  0.17552514333E+04  0.00000000000E+00 0. -1.
<mgrwt>
<rscale>  0 0.16650226E+04</rscale>
<asrwt>0</asrwt>
<pdfrwt beam="1">  1        2 0.48086641E+00 0.16650226E+04</pdfrwt>
<pdfrwt beam="2">  1       -2 0.34113721E-01 0.16650226E+04</pdfrwt>
<totfact> 0.11194574E+01</totfact>
</mgrwt>
</event>
<event>
 6    1  0.1762360E-005  0.1082151E+04  0.7818608E-02  0.9222766E-01
         -4   -1    0    0    0  501 -0.00000000000E+00  0.00000000000E+00  0.67311897484E+03  0.67311897484E+03  0.00000000000E+00 0.  1.
          4   -1    0    0  501    0  0.00000000000E+00 -0.00000000000E+00 -0.43493425608E+03  0.43493425608E+03  0.00000000000E+00 0. -1.
         23    2    1    2    0    0  0.20574457703E+03 -0.29766540196E+03 -0.28665727268E+03  0.47056233807E+03  0.91219512850E+02 0.  0.
         13    1    3    3    0    0  0.18415110192E+03 -0.19490228281E+03 -0.20840911348E+03  0.33960695924E+03  0.00000000000E+00 0. -1.
        -13    1    3    3    0    0  0.21593475107E+02 -0.10276311915E+03 -0.78248159194E+02  0.13095537882E+03  0.00000000000E+00 0.  1.
         22    1    1    2    0    0 -0.20574457703E+03  0.29766540196E+03  0.52484199143E+03  0.63749089286E+03  0.00000000000E+00 0.  1.
<mgrwt>
<rscale>  0 0.10821506E+04</rscale>
<asrwt>0</asrwt>
<pdfrwt beam="1">  1        4 0.66912962E-01 0.10821506E+04</pdfrwt>
<pdfrwt beam="2">  1       -4 0.10355677E+00 0.10821506E+04</pdfrwt>
<totfact> 0.31062342E+00</totfact>
</mgrwt>
</event>
<event>
 6    1  0.1762360E-005  0.2539432E+04  0.7818608E-02  0.8389071E-01
          1   -1    0    0  501    0  0.00000000000E+00  0.00000000000E+00  0.17871170143E+04  0.17871170143E+04  0.00000000000E+00 0. -1.
         -1   -1    0    0    0  501 -0.00000000000E+00 -0.00000000000E+00 -0.90211144900E+03  0.90211144900E+03  0.00000000000E+00 0.  1.
         23    2    1    2    0    0 -0.44820799568E+03 -0.79999277834E+03 -0.48441216031E+03  0.10411435869E+04  0.91901983827E+02 0.  0.
         11    1    3    3    0    0 -0.34230801951E+03 -0.53511849845E+03 -0.31065122107E+03  0.70712853765E+03  0.00000000000E+00 0. -1.
        -11    1    3    3    0    0 -0.10589997617E+03 -0.26487427988E+03 -0.17376093923E+03  0.33401504921E+03  0.00000000000E+00 0.  1.
         22    1    1    2    0    0  0.44820799568E+03  0.79999277834E+03  0.13694177256E+04  0.16480848765E+04  0.00000000000E+00 0. -1.
<mgrwt>
<rscale>  0 0.25394320E+04</rscale>
<asrwt>0</asrwt>
<pdfrwt beam="1">  1        1 0.27494108E+00 0.25394320E+04</pdfrwt>
<pdfrwt beam="2">  1       -1 0.13878638E+00 0.25394320E+04</pdfrwt>
<totfact> 0.15781789E+00</totfact>
</mgrwt>
</event>
<event>
 6    1  0.1762360E-005  0.2799108E+04  0.7818608E-02  0.8303545E-01
         -2   -1    0    0    0  501 -0.00000000000E+00  0.00000000000E+00  0.23572672818E+04  0.23572672818E+04  0.00000000000E+00 0.  1.
          2   -1    0    0  501    0  0.00000000000E+00 -0.00000000000E+00 -0.83094145984E+03  0.83094145984E+03  0.00000000000E+00 0. -1.
         23    2    1    2    0    0 -0.73271910130E+03  0.91548772950E+03 -0.10317087677E+03  0.11806593511E+04  0.91198735138E+02 0.  0.
         11    1    3    3    0    0 -0.18331935982E+03  0.23917023934E+03 -0.66190467487E+02  0.30852806851E+03  0.00000000000E+00 0. -1.
        -11    1    3    3    0    0 -0.54939974148E+03  0.67631749015E+03 -0.36980409281E+02  0.87213128260E+03  0.00000000000E+00 0.  1.
         22    1    1    2    0    0  0.73271910130E+03 -0.91548772950E+03  0.16294966988E+04  0.20075493906E+04  0.00000000000E+00 0. -1.
<mgrwt>
<rscale>  0 0.27991078E+04</rscale>
<asrwt>0</asrwt>
<pdfrwt beam="1">  1        2 0.12783715E+00 0.27991078E+04</pdfrwt>
<pdfrwt beam="2">  1       -2 0.36265650E+00 0.27991078E+04</pdfrwt>
<totfact> 0.36839914E-01</totfact>
</mgrwt>
</event>
<event>
 6    1  0.1762360E-005  0.4602443E+04  0.7818608E-02  0.7892943E-01
         -2   -1    0    0    0  501 -0.00000000000E+00  0.00000000000E+00  0.24805880716E+04  0.24805880716E+04  0.00000000000E+00 0. -1.
          2   -1    0    0  501    0  0.00000000000E+00 -0.00000000000E+00 -0.21348247697E+04  0.21348247697E+04  0.00000000000E+00 0.  1.
         23    2    1    2    0    0 -0.78700161940E+03  0.17214751105E+04  0.14839896449E+04  0.24067011550E+04  0.84481231990E+02 0.  0.
         13    1    3    3    0    0 -0.28630880696E+03  0.53579144013E+03  0.46090254164E+03  0.76254596789E+03  0.00000000000E+00 0.  1.
        -13    1    3    3    0    0 -0.50069281243E+03  0.11856836704E+04  0.10230871033E+04  0.16441551872E+04  0.00000000000E+00 0. -1.
         22    1    1    2    0    0  0.78700161940E+03 -0.17214751105E+04 -0.11382263430E+04  0.22087116862E+04  0.00000000000E+00 0.  1.
<mgrwt>
<rscale>  0 0.46024432E+04</rscale>
<asrwt>0</asrwt>
<pdfrwt beam="1">  1        2 0.32843458E+00 0.46024432E+04</pdfrwt>
<pdfrwt beam="2">  1       -2 0.38162893E+00 0.46024432E+04</pdfrwt>
<totfact> 0.41260982E-02</totfact>
</mgrwt>
</event>
<event>
 6    1  0.1762360E-005  0.7779980E+03  0.7818608E-02  0.9592422E-01
         -1   -1    0    0    0  501 -0.00000000000E+00  0.00000000000E+00  0.50006483129E+03  0.50006483129E+03  0.00000000000E+00 0.  1.
          1   -1    0    0  501    0  0.00000000000E+00 -0.00000000000E+00 -0.30260121149E+03  0.30260121149E+03  0.00000000000E+00 0. -1.
         23    2    1    2    0    0 -0.17070470414E+03  0.92515653502E+02  0.44152719697E+03  0.49079063197E+03  0.90718998060E+02 0.  0.
         11    1    3    3    0    0 -0.10662662673E+03  0.96495590566E+02  0.24551077960E+03  0.28452799410E+03  0.00000000000E+00 0.  1.
        -11    1    3    3    0    0 -0.64078077406E+02 -0.39799370636E+01  0.19601641737E+03  0.20626263787E+03  0.00000000000E+00 0. -1.
         22    1    1    2    0    0  0.17070470414E+03 -0.92515653502E+02 -0.24406357718E+03  0.31187541080E+03  0.00000000000E+00 0. -1.
<mgrwt>
<rscale>  0 0.77799800E+03</rscale>
<asrwt>0</asrwt>
<pdfrwt beam="1">  1        1 0.46554032E-01 0.77799800E+03</pdfrwt>
<pdfrwt beam="2">  1       -1 0.76933051E-01 0.77799800E+03</pdfrwt>
<totfact> 0.14885702E+02</totfact>
</mgrwt>
</event>
<event>
 6    1  0.1762360E-005  0.6947926E+04  0.7818608E-02  0.7582830E-01
          1   -1    0    0  501    0  0.00000000000E+00  0.00000000000E+00  0.59676545285E+04  0.59676545285E+04  0.00000000000E+00 0. -1.
         -1   -1    0    0    0  501 -0.00000000000E+00 -0.00000000000E+00 -0.20223054429E+04  0.20223054429E+04  0.00000000000E+00 0.  1.
         23    2    1    2    0    0  0.25590188264E+04 -0.21293374137E+04  0.83359488941E+03  0.34330235714E+04  0.90084555009E+02 0.  0.
         11    1    3    3    0    0  0.19329340811E+04 -0.15781730812E+04  0.59231016250E+03  0.25647018861E+04  0.00000000000E+00 0.  1.
        -11    1    3    3    0    0  0.62608474531E+03 -0.55116433250E+03  0.24128472691E+03  0.86832168531E+03  0.00000000000E+00 0. -1.
         22    1    1    2    0    0 -0.25590188264E+04  0.21293374137E+04  0.31117541962E+04  0.45569363999E+04  0.00000000000E+00 0.  1.
<mgrwt>
<rscale>  0 0.69479264E+04</rscale>
<asrwt>0</asrwt>
<pdfrwt beam="1">  1        1 0.91810069E+00 0.69479264E+04</pdfrwt>
<pdfrwt beam="2">  1       -1 0.31112392E+00 0.69479264E+04</pdfrwt>
<totfact> 0.19010535E-06</totfact>
</mgrwt>
</event>
<event>
 6    1  0.1762360E-005  0.1682903E+04  0.7818608E-02  0.8771176E-01
          2   -1    0    0  501    0  0.00000000000E+00  0.00000000000E+00  0.83640155898E+03  0.83640155898E+03  0.00000000000E+00 0. -1.
         -2   -1    0    0    0  501 -0.00000000000E+00 -0.00000000000E+00 -0.84653214045E+03  0.84653214045E+03  0.00000000000E+00 0.  1.
         23    2    1    2    0    0  0.44372232982E+03  0.35795868451E+03 -0.62033139007E+03  0.84784750471E+03  0.94923295029E+02 0.  0.
         11    1    3    3    0    0  0.30062368096E+03  0.20701360372E+03 -0.44702334764E+03  0.57711272990E+03  0.00000000000E+00 0. -1.
        -11    1    3    3    0    0  0.14309864886E+03  0.15094508078E+03 -0.17330804243E+03  0.27073477481E+03  0.00000000000E+00 0.  1.
         22    1    1    2    0    0 -0.44372232982E+03 -0.35795868451E+03  0.61020080860E+03  0.83508619472E+03  0.00000000000E+00 0. -1.
<mgrwt>
<rscale>  0 0.16829032E+04</rscale>
<asrwt>0</asrwt>
<pdfrwt beam="1">  1        2 0.12867716E+00 0.16829032E+04</pdfrwt>
<pdfrwt beam="2">  1       -2 0.13023571E+00 0.16829032E+04</pdfrwt>
<totfact> 0.13362217E+01</totfact>
</mgrwt>
</event>
<event>
 6    1  0.1762360E-005  0.3370047E+04  0.7818608E-02  0.8145297E-01
          2   -1    0    0  501    0  0.00000000000E+00  0.00000000000E+00  0.47365048465E+04  0.47365048465E+04  0.00000000000E+00 0. -1.
         -2   -1    0    0    0  501 -0.00000000000E+00 -0.00000000000E+00 -0.59945140683E+03  0.59945140683E+03  0.00000000000E+00 0.  1.
         23    2    1    2    0    0  0.14616882902E+04 -0.48214883142E+03  0.31508961869E+04  0.35079775115E+04  0.93591063254E+02 0.  0.
         13    1    3    3    0    0  0.53563948771E+03 -0.21893076922E+03  0.12311311542E+04  0.13603397596E+04  0.00000000000E+00 0.  1.
        -13    1    3    3    0    0  0.92604880251E+03 -0.26321806220E+03  0.19197650327E+04  0.21476377520E+04  0.00000000000E+00 0. -1.
         22    1    1    2    0    0 -0.14616882902E+04  0.48214883142E+03  0.98615725276E+03  0.18279787418E+04  0.00000000000E+00 0. -1.
<mgrwt>
<rscale>  0 0.33700472E+04</rscale>
<asrwt>0</asrwt>
<pdfrwt beam="1">  1        2 0.72869303E+00 0.33700472E+04</pdfrwt>
<pdfrwt beam="2">  1       -2 0.92223296E-01 0.33700472E+04</pdfrwt>
<totfact> 0.57815311E-02</totfact>
</mgrwt>
</event>
<event>
 6    1  0.1762360E-005  0.3490524E+03  0.7818608E-02  0.1063005E+00
          2   -1    0    0  501    0  0.00000000000E+00  0.00000000000E+00  0.89182015805E+03  0.89182015805E+03  0.00000000000E+00 0.  1.
         -2   -1    0    0    0  501 -0.00000000000E+00 -0.00000000000E+00 -0.34154186478E+02  0.34154186478E+02  0.00000000000E+00 0. -1.
         23    2    1    2    0    0 -0.13045644960E+03 -0.12162580633E+02  0.20066558044E+03  0.25603678956E+03  0.90118526543E+02 0.  0.
         11    1    3    3    0    0 -0.70709519253E+02  0.19230923624E+02  0.16307427876E+03  0.17878166833E+03  0.00000000000E+00 0.  1.
        -11    1    3    3    0    0 -0.59746930343E+02 -0.31393504257E+02  0.37591301680E+02  0.77255121235E+02  0.00000000000E+00 0. -1.
         22    1    1    2    0    0  0.13045644960E+03  0.12162580633E+02  0.65700039113E+03  0.66993755497E+03  0.00000000000E+00 0.  1.
<mgrwt>
<rscale>  0 0.34905239E+03</rscale>
<asrwt>0</asrwt>
<pdfrwt beam="1">  1        2 0.13720308E+00 0.34905239E+03</pdfrwt>
<pdfrwt beam="2">  1       -2 0.52544909E-02 0.34905239E+03</pdfrwt>
<totfact> 0.56050156E+03</totfact>
</mgrwt>
</event>
<event>
 6    1  0.1762360E-005  0.2451837E+04  0.7818608E-02  0.8420348E-01
         -2   -1    0    0    0  501 -0.00000000000E+00  0.00000000000E+00  0.55265938457E+03  0.55265938457E+03  0.00000000000E+00 0. -1.
          2   -1    0    0  501    0  0.00000000000E+00 -0.00000000000E+00 -0.27193538266E+04  0.27193538266E+04  0.00000000000E+00 0.  1.
         23    2    1    2    0    0 -0.34330245855E+03  0.99797770648E+03 -0.19128109725E+04  0.21865304168E+04  0.90848040744E+02 0.  0.
         11    1    3    3    0    0 -0.22135391849E+03  0.57356931983E+03 -0.11920790285E+04  0.13412798858E+04  0.00000000000E+00 0. -1.
        -11    1    3    3    0    0 -0.12194854007E+03  0.42440838665E+03 -0.72073194396E+03  0.84525053098E+03  0.00000000000E+00 0.  1.
         22    1    1    2    0    0  0.34330245855E+03 -0.99797770648E+03 -0.25388346951E+03  0.10854827943E+04  0.00000000000E+00 0. -1.
<mgrwt>
<rscale>  0 0.24518372E+04</rscale>
<asrwt>0</asrwt>
<pdfrwt beam="1">  1        2 0.41836212E+00 0.24518372E+04</pdfrwt>
<pdfrwt beam="2">  1       -2 0.85024522E-01 0.24518372E+04</pdfrwt>
<totfact> 0.27878590E+00</totfact>
</mgrwt>
</event>
<event>
 6    1  0.1762360E-005  0.2572764E+04  0.7818608E-02  0.8377512E-01
          2   -1    0    0  501    0  0.00000000000E+00  0.00000000000E+00  0.12675621422E+04  0.12675621422E+04  0.00000000000E+00 0. -1.
         -2   -1    0    0    0  501 -0.00000000000E+00 -0.00000000000E+00 -0.13054815641E+04  0.13054815641E+04  0.00000000000E+00 0.  1.
         23    2    1    2    0    0  0.58668833417E+03  0.46986500006E+02  0.11230840467E+04  0.12713755510E+04  0.93097170535E+02 0.  0.
         13    1    3    3    0    0  0.14145694582E+03  0.47960402696E+02  0.24710258710E+03  0.28873856047E+03  0.00000000000E+00 0. -1.
        -13    1    3    3    0    0  0.44523138835E+03 -0.97390269019E+00  0.87598145956E+03  0.98263699053E+03  0.00000000000E+00 0.  1.
         22    1    1    2    0    0 -0.58668833417E+03 -0.46986500006E+02 -0.11610034685E+04  0.13016681553E+04  0.00000000000E+00 0.  1.
<mgrwt>
<rscale>  0 0.25727643E+04</rscale>
<asrwt>0</asrwt>
<pdfrwt beam="1">  1        2 0.19500956E+00 0.25727643E+04</pdfrwt>
<pdfrwt beam="2">  1       -2 0.20084332E+00 0.25727643E+04</pdfrwt>
<totfact> 0.20106895E+00</totfact>
</mgrwt>
</event>
<event>
 6    1  0.1762360E-005  0.1247581E+04  0.7818608E-02  0.9072199E-01
          2   -1    0    0  501    0  0.00000000000E+00  0.00000000000E+00  0.39666270582E+04  0.39666270582E+04  0.00000000000E+00 0. -1.
         -2   -1    0    0    0  501 -0.00000000000E+00 -0.00000000000E+00 -0.98097073603E+02  0.98097073603E+02  0.00000000000E+00 0.  1.
         23    2    1    2    0    0 -0.21422500583E+03  0.46770219087E+03  0.81949278710E+03  0.97259452194E+03  0.98660952402E+02 0.  0.
         13    1    3    3    0    0 -0.97409968345E+02  0.32263273691E+03  0.50655829737E+03  0.60842575018E+03  0.00000000000E+00 0. -1.
        -13    1    3    3    0    0 -0.11681503749E+03  0.14506945396E+03  0.31293448974E+03  0.36416877176E+03  0.00000000000E+00 0.  1.
         22    1    1    2    0    0  0.21422500583E+03 -0.46770219087E+03  0.30490371975E+04  0.30921296099E+04  0.00000000000E+00 0. -1.
<mgrwt>
<rscale>  0 0.12475809E+04</rscale>
<asrwt>0</asrwt>
<pdfrwt beam="1">  1        2 0.61025019E+00 0.12475809E+04</pdfrwt>
<pdfrwt beam="2">  1       -2 0.15091861E-01 0.12475809E+04</pdfrwt>
<totfact> 0.12896573E+01</totfact>
</mgrwt>
</event>
<event>
 6    1  0.1762360E-005  0.1728897E+04  0.7818608E-02  0.8745053E-01
          1   -1    0    0  501    0  0.00000000000E+00  0.00000000000E+00  0.22159650733E+04  0.22159650733E+04  0.00000000000E+00 0. -1.
         -1   -1    0    0    0  501 -0.00000000000E+00 -0.00000000000E+00 -0.33722141147E+03  0.33722141147E+03  0.00000000000E+00 0.  1.
         23    2    1    2    0    0  0.39527683221E+02 -0.17035247354E+03  0.21885645932E+04  0.21974177221E+04  0.90814447385E+02 0.  0.
         13    1    3    3    0    0  0.58833097724E+02 -0.59614329944E+02  0.10389312278E+04  0.10423019226E+04  0.00000000000E+00 0.  1.
        -13    1    3    3    0    0 -0.19305414503E+02 -0.11073814360E+03  0.11496333654E+04  0.11551157995E+04  0.00000000000E+00 0. -1.
         22    1    1    2    0    0 -0.39527683221E+02  0.17035247354E+03 -0.30982093136E+03  0.35576876267E+03  0.00000000000E+00 0.  1.
<mgrwt>
<rscale>  0 0.17288966E+04</rscale>
<asrwt>0</asrwt>
<pdfrwt beam="1">  1        1 0.34091769E+00 0.17288966E+04</pdfrwt>
<pdfrwt beam="2">  1       -1 0.51880219E-01 0.17288966E+04</pdfrwt>
<totfact> 0.75478366E+00</totfact>
</mgrwt>
</event>
<event>
 6    1  0.1762360E-005  0.9440597E+03  0.7818608E-02  0.9372121E-01
          1   -1    0    0  501    0  0.00000000000E+00  0.00000000000E+00  0.10212146637E+04  0.10212146637E+04  0.00000000000E+00 0.  1.
         -1   -1    0    0    0  501 -0.00000000000E+00 -0.00000000000E+00 -0.21818348468E+03  0.21818348468E+03  0.00000000000E+00 0. -1.
         23    2    1    2    0    0 -0.28622105843E+03 -0.77689642393E+02  0.88001158692E+03  0.93299292966E+03  0.89984658990E+02 0.  0.
         11    1    3    3    0    0 -0.21446871194E+03 -0.15810976297E+02  0.59835506273E+03  0.63582670317E+03  0.00000000000E+00 0. -1.
        -11    1    3    3    0    0 -0.71752346493E+02 -0.61878666096E+02  0.28165652420E+03  0.29716622649E+03  0.00000000000E+00 0.  1.
         22    1    1    2    0    0  0.28622105843E+03  0.77689642393E+02 -0.76980407941E+02  0.30640521868E+03  0.00000000000E+00 0. -1.
<mgrwt>
<rscale>  0 0.94405969E+03</rscale>
<asrwt>0</asrwt>
<pdfrwt beam="1">  1        1 0.15710995E+00 0.94405969E+03</pdfrwt>
<pdfrwt beam="2">  1       -1 0.33566691E-01 0.94405969E+03</pdfrwt>
<totfact> 0.12233472E+02</totfact>
</mgrwt>
</event>
<event>
 6    1  0.1762360E-005  0.1386794E+04  0.7818608E-02  0.8963434E-01
         -2   -1    0    0    0  501 -0.00000000000E+00  0.00000000000E+00  0.13291219103E+04  0.13291219103E+04  0.00000000000E+00 0. -1.
          2   -1    0    0  501    0  0.00000000000E+00 -0.00000000000E+00 -0.36174209898E+03  0.36174209898E+03  0.00000000000E+00 0.  1.
         23    2    1    2    0    0 -0.44047978407E+03 -0.22504976083E+03  0.10730616845E+04  0.11850592117E+04  0.90742059988E+02 0.  0.
         13    1    3    3    0    0 -0.70609474193E+02 -0.33951007552E+02  0.26089435202E+03  0.27240453681E+03  0.00000000000E+00 0.  1.
        -13    1    3    3    0    0 -0.36987030988E+03 -0.19109875327E+03  0.81216733244E+03  0.91265467484E+03  0.00000000000E+00 0. -1.
         22    1    1    2    0    0  0.44047978407E+03  0.22504976083E+03 -0.10568187312E+03  0.50580479765E+03  0.00000000000E+00 0.  1.
<mgrwt>
<rscale>  0 0.13867939E+04</rscale>
<asrwt>0</asrwt>
<pdfrwt beam="1">  1        2 0.55652631E-01 0.13867939E+04</pdfrwt>
<pdfrwt beam="2">  1       -2 0.20448029E+00 0.13867939E+04</pdfrwt>
<totfact> 0.10776592E+01</totfact>
</mgrwt>
</event>
<event>
 6    1  0.1762360E-005  0.1938259E+04  0.7818608E-02  0.8636043E-01
          2   -1    0    0  501    0  0.00000000000E+00  0.00000000000E+00  0.13899815421E+04  0.13899815421E+04  0.00000000000E+00 0. -1.
         -2   -1    0    0    0  501 -0.00000000000E+00 -0.00000000000E+00 -0.67570118925E+03  0.67570118925E+03  0.00000000000E+00 0.  1.
         23    2    1    2    0    0  0.86210631963E+03 -0.18436138814E+03  0.78110890051E+03  0.11815546396E+04  0.93401414361E+02 0.  0.
         11    1    3    3    0    0  0.41325579878E+03 -0.57182095652E+02  0.32188998503E+03  0.52693767161E+03  0.00000000000E+00 0. -1.
        -11    1    3    3    0    0  0.44885052084E+03 -0.12717929248E+03  0.45921891548E+03  0.65461696803E+03  0.00000000000E+00 0.  1.
         22    1    1    2    0    0 -0.86210631963E+03  0.18436138814E+03 -0.66828547671E+02  0.88412809172E+03  0.00000000000E+00 0. -1.
<mgrwt>
<rscale>  0 0.19382592E+04</rscale>
<asrwt>0</asrwt>
<pdfrwt beam="1">  1        2 0.21384331E+00 0.19382592E+04</pdfrwt>
<pdfrwt beam="2">  1       -2 0.10395403E+00 0.19382592E+04</pdfrwt>
<totfact> 0.10310445E+01</totfact>
</mgrwt>
</event>
<event>
 6    1  0.1762360E-005  0.4351149E+04  0.7818608E-02  0.7937227E-01
         -2   -1    0    0    0  501 -0.00000000000E+00  0.00000000000E+00  0.28953673465E+04  0.28953673465E+04  0.00000000000E+00 0.  1.
          2   -1    0    0  501    0  0.00000000000E+00 -0.00000000000E+00 -0.16347235200E+04  0.16347235200E+04  0.00000000000E+00 0. -1.
         23    2    1    2    0    0  0.13778474124E+04  0.16748776079E+04  0.46492914931E+03  0.22199306251E+04  0.90853581908E+02 0.  0.
         13    1    3    3    0    0  0.25933370983E+03  0.26827477988E+03  0.97237972669E+02  0.38559117456E+03  0.00000000000E+00 0. -1.
        -13    1    3    3    0    0  0.11185137025E+04  0.14066028280E+04  0.36769117664E+03  0.18343394506E+04  0.00000000000E+00 0.  1.
         22    1    1    2    0    0 -0.13778474124E+04 -0.16748776079E+04  0.79571467723E+03  0.23101602414E+04  0.00000000000E+00 0.  1.
<mgrwt>
<rscale>  0 0.43511493E+04</rscale>
<asrwt>0</asrwt>
<pdfrwt beam="1">  1        2 0.25149593E+00 0.43511493E+04</pdfrwt>
<pdfrwt beam="2">  1       -2 0.44544113E+00 0.43511493E+04</pdfrwt>
<totfact> 0.30449025E-02</totfact>
</mgrwt>
</event>
<event>
 6    1  0.1762360E-005  0.2144526E+04  0.7818608E-02  0.8541879E-01
          2   -1    0    0  501    0  0.00000000000E+00  0.00000000000E+00  0.11997506800E+04  0.11997506800E+04  0.00000000000E+00 0. -1.
         -2   -1    0    0    0  501 -0.00000000000E+00 -0.00000000000E+00 -0.95832250544E+03  0.95832250544E+03  0.00000000000E+00 0.  1.
         23    2    1    2    0    0  0.78798098467E+03  0.63281050197E+03 -0.23363653414E+03  0.10413594168E+04  0.92088225402E+02 0.  0.
         11    1    3    3    0    0  0.54134247411E+03  0.37898868696E+03 -0.14607518439E+03  0.67677326972E+03  0.00000000000E+00 0. -1.
        -11    1    3    3    0    0  0.24663851057E+03  0.25382181501E+03 -0.87561349749E+02  0.36458614708E+03  0.00000000000E+00 0.  1.
         22    1    1    2    0    0 -0.78798098467E+03 -0.63281050197E+03  0.47506470868E+03  0.11167137686E+04  0.00000000000E+00 0. -1.
<mgrwt>
<rscale>  0 0.21445261E+04</rscale>
<asrwt>0</asrwt>
<pdfrwt beam="1">  1        2 0.18457703E+00 0.21445261E+04</pdfrwt>
<pdfrwt beam="2">  1       -2 0.14743423E+00 0.21445261E+04</pdfrwt>
<totfact> 0.54566872E+00</totfact>
</mgrwt>
</event>
<event>
 6    1  0.1762360E-005  0.4233282E+04  0.7818608E-02  0.7959071E-01
          1   -1    0    0  501    0  0.00000000000E+00  0.00000000000E+00  0.22918477805E+04  0.22918477805E+04  0.00000000000E+00 0. -1.
         -1   -1    0    0    0  501 -0.00000000000E+00 -0.00000000000E+00 -0.19548287057E+04  0.19548287057E+04  0.00000000000E+00 0.  1.
         23    2    1    2    0    0 -0.14344589777E+04  0.14372897740E+04 -0.42709018033E+03  0.20770365605E+04  0.90556051637E+02 0.  0.
         13    1    3    3    0    0 -0.58252054534E+03  0.58112811482E+03 -0.12774712852E+03  0.83268205242E+03  0.00000000000E+00 0. -1.
        -13    1    3    3    0    0 -0.85193843234E+03  0.85616165922E+03 -0.29934305182E+03  0.12443545081E+04  0.00000000000E+00 0.  1.
         22    1    1    2    0    0  0.14344589777E+04 -0.14372897740E+04  0.76410925516E+03  0.21696399257E+04  0.00000000000E+00 0. -1.
<mgrwt>
<rscale>  0 0.42332823E+04</rscale>
<asrwt>0</asrwt>
<pdfrwt beam="1">  1        1 0.35259197E+00 0.42332823E+04</pdfrwt>
<pdfrwt beam="2">  1       -1 0.30074288E+00 0.42332823E+04</pdfrwt>
<totfact> 0.47284424E-02</totfact>
</mgrwt>
</event>
<event>
 6    1  0.1762360E-005  0.3230246E+04  0.7818608E-02  0.8180875E-01
         -1   -1    0    0    0  501 -0.00000000000E+00  0.00000000000E+00  0.11285901374E+04  0.11285901374E+04  0.00000000000E+00 0.  1.
          1   -1    0    0  501    0  0.00000000000E+00 -0.00000000000E+00 -0.23113985857E+04  0.23113985857E+04  0.00000000000E+00 0. -1.
         23    2    1    2    0    0  0.67502878434E+03 -0.13920177844E+04 -0.10259531842E+03  0.15531294867E+04  0.91148403356E+02 0.  0.
         13    1    3    3    0    0  0.24656970842E+03 -0.43467588830E+03 -0.61108297375E+02  0.50346198763E+03  0.00000000000E+00 0.  1.
        -13    1    3    3    0    0  0.42845907592E+03 -0.95734189609E+03 -0.41487021049E+02  0.10496674991E+04  0.00000000000E+00 0. -1.
         22    1    1    2    0    0 -0.67502878434E+03  0.13920177844E+04 -0.10802131299E+04  0.18868592364E+04  0.00000000000E+00 0. -1.
<mgrwt>
<rscale>  0 0.32302456E+04</rscale>
<asrwt>0</asrwt>
<pdfrwt beam="1">  1        1 0.35559978E+00 0.32302456E+04</pdfrwt>
<pdfrwt beam="2">  1       -1 0.17362925E+00 0.32302456E+04</pdfrwt>
<totfact> 0.35302004E-01</totfact>
</mgrwt>
</event>
<event>
 6    1  0.1762360E-005  0.2853159E+04  0.7818608E-02  0.8286952E-01
          1   -1    0    0  501    0  0.00000000000E+00  0.00000000000E+00  0.21286503993E+04  0.21286503993E+04  0.00000000000E+00 0. -1.
         -1   -1    0    0    0  501 -0.00000000000E+00 -0.00000000000E+00 -0.95606570086E+03  0.95606570086E+03  0.00000000000E+00 0.  1.
         23    2    1    2    0    0  0.74094502948E+03 -0.74216080797E+03 -0.45639995312E+03  0.11473485055E+04  0.91134375312E+02 0.  0.
         13    1    3    3    0    0  0.44109320874E+03 -0.49906362432E+03 -0.30751649418E+03  0.73361714409E+03  0.00000000000E+00 0. -1.
        -13    1    3    3    0    0  0.29985182074E+03 -0.24309718366E+03 -0.14888345894E+03  0.41373136146E+03  0.00000000000E+00 0.  1.
         22    1    1    2    0    0 -0.74094502948E+03  0.74216080797E+03  0.16289846515E+04  0.19373675946E+04  0.00000000000E+00 0. -1.
<mgrwt>
<rscale>  0 0.28531594E+04</rscale>
<asrwt>0</asrwt>
<pdfrwt beam="1">  1        1 0.32748468E+00 0.28531594E+04</pdfrwt>
<pdfrwt beam="2">  1       -1 0.14708703E+00 0.28531594E+04</pdfrwt>
<totfact> 0.77218028E-01</totfact>
</mgrwt>
</event>
<event>
 6    1  0.1762360E-005  0.7175582E+03  0.7818608E-02  0.9687668E-01
          3   -1    0    0  501    0  0.00000000000E+00  0.00000000000E+00  0.17139273204E+03  0.17139273204E+03  0.00000000000E+00 0. -1.
         -3   -1    0    0    0  501 -0.00000000000E+00 -0.00000000000E+00 -0.75103786666E+03  0.75103786666E+03  0.00000000000E+00 0.  1.
         23    2    1    2    0    0  0.42693881210E+02  0.13304194513E+03  0.12237308324E+03  0.20664256801E+03  0.90570705833E+02 0.  0.
         13    1    3    3    0    0  0.24325098157E+02  0.23284788326E+02  0.81340693708E+02  0.88035221478E+02  0.00000000000E+00 0.  1.
        -13    1    3    3    0    0  0.18368783053E+02  0.10975715681E+03  0.41032389534E+02  0.11860734654E+03  0.00000000000E+00 0. -1.
         22    1    1    2    0    0 -0.42693881210E+02 -0.13304194513E+03 -0.70201821787E+03  0.71578803069E+03  0.00000000000E+00 0.  1.
<mgrwt>
<rscale>  0 0.71755817E+03</rscale>
<asrwt>0</asrwt>
<pdfrwt beam="1">  1        3 0.26368113E-01 0.71755817E+03</pdfrwt>
<pdfrwt beam="2">  1       -3 0.11554429E+00 0.71755817E+03</pdfrwt>
<totfact> 0.22589987E+01</totfact>
</mgrwt>
</event>
<event>
 6    1  0.1762360E-005  0.1198159E+04  0.7818608E-02  0.9114469E-01
          2   -1    0    0  501    0  0.00000000000E+00  0.00000000000E+00  0.93200300559E+03  0.93200300559E+03  0.00000000000E+00 0.  1.
         -2   -1    0    0    0  501 -0.00000000000E+00 -0.00000000000E+00 -0.38508062224E+03  0.38508062224E+03  0.00000000000E+00 0. -1.
         23    2    1    2    0    0 -0.79101471922E+01  0.10090717709E+03  0.92022405989E+03  0.93030336654E+03  0.91690809630E+02 0.  0.
         13    1    3    3    0    0 -0.28011888314E+02  0.39013125161E+02  0.67121615135E+03  0.67293224893E+03  0.00000000000E+00 0.  1.
        -13    1    3    3    0    0  0.20101741122E+02  0.61894051930E+02  0.24900790854E+03  0.25737111760E+03  0.00000000000E+00 0. -1.
         22    1    1    2    0    0  0.79101471922E+01 -0.10090717709E+03 -0.37330167654E+03  0.38678026129E+03  0.00000000000E+00 0. -1.
<mgrwt>
<rscale>  0 0.11981591E+04</rscale>
<asrwt>0</asrwt>
<pdfrwt beam="1">  1        2 0.14338508E+00 0.11981591E+04</pdfrwt>
<pdfrwt beam="2">  1       -2 0.59243173E-01 0.11981591E+04</pdfrwt>
<totfact> 0.73276953E+01</totfact>
</mgrwt>
</event>
<event>
 6    1  0.1762360E-005  0.3729197E+04  0.7818608E-02  0.8061522E-01
          2   -1    0    0  501    0  0.00000000000E+00  0.00000000000E+00  0.29140455159E+04  0.29140455159E+04  0.00000000000E+00 0. -1.
         -2   -1    0    0    0  501 -0.00000000000E+00 -0.00000000000E+00 -0.11930932308E+04  0.11930932308E+04  0.00000000000E+00 0.  1.
         23    2    1    2    0    0  0.87325705512E+03  0.58633401422E+03 -0.83307782013E+03  0.13449955139E+04  0.92891428502E+02 0.  0.
         13    1    3    3    0    0  0.61873956734E+03  0.41644811595E+03 -0.53559354738E+03  0.91822008988E+03  0.00000000000E+00 0. -1.
        -13    1    3    3    0    0  0.25451748778E+03  0.16988589827E+03 -0.29748427275E+03  0.42677542403E+03  0.00000000000E+00 0.  1.
         22    1    1    2    0    0 -0.87325705512E+03 -0.58633401422E+03  0.25540301052E+04  0.27621432328E+04  0.00000000000E+00 0. -1.
<mgrwt>
<rscale>  0 0.37291972E+04</rscale>
<asrwt>0</asrwt>
<pdfrwt beam="1">  1        2 0.44831469E+00 0.37291972E+04</pdfrwt>
<pdfrwt beam="2">  1       -2 0.18355281E+00 0.37291972E+04</pdfrwt>
<totfact> 0.27209583E-01</totfact>
</mgrwt>
</event>
<event>
 6    1  0.1762360E-005  0.2870610E+04  0.7818608E-02  0.8281676E-01
          2   -1    0    0  501    0  0.00000000000E+00  0.00000000000E+00  0.26011715863E+04  0.26011715863E+04  0.00000000000E+00 0.  1.
         -2   -1    0    0    0  501 -0.00000000000E+00 -0.00000000000E+00 -0.79198957891E+03  0.79198957891E+03  0.00000000000E+00 0. -1.
         23    2    1    2    0    0  0.12326876864E+04  0.42527263954E+03  0.16105365984E+04  0.20741328301E+04  0.88448357517E+02 0.  0.
         11    1    3    3    0    0  0.45161119584E+03  0.15206165463E+03  0.65689715861E+03  0.81153514774E+03  0.00000000000E+00 0.  1.
        -11    1    3    3    0    0  0.78107649059E+03  0.27321098490E+03  0.95363943983E+03  0.12625976824E+04  0.00000000000E+00 0. -1.
         22    1    1    2    0    0 -0.12326876864E+04 -0.42527263954E+03  0.19864540894E+03  0.13190283351E+04  0.00000000000E+00 0. -1.
<mgrwt>
<rscale>  0 0.28706102E+04</rscale>
<asrwt>0</asrwt>
<pdfrwt beam="1">  1        2 0.40018024E+00 0.28706102E+04</pdfrwt>
<pdfrwt beam="2">  1       -2 0.12184455E+00 0.28706102E+04</pdfrwt>
<totfact> 0.13433608E+00</totfact>
</mgrwt>
</event>
<event>
 6    1  0.1990777E-005  0.3664439E+04  0.7818608E-02  0.8075888E-01
          2   -1    0    0  501    0  0.00000000000E+00  0.00000000000E+00  0.20446853793E+04  0.20446853793E+04  0.00000000000E+00 0. -1.
         -2   -1    0    0    0  501 -0.00000000000E+00 -0.00000000000E+00 -0.16418316018E+04  0.16418316018E+04  0.00000000000E+00 0.  1.
         23    2    1    2    0    0 -0.68859586277E+03 -0.16383581893E+04  0.64531287181E+03  0.18928703517E+04  0.90264319573E+02 0.  0.
         13    1    3    3    0    0 -0.42443676852E+03 -0.95827205105E+03  0.33816516756E+03  0.11012663505E+04  0.00000000000E+00 0.  1.
        -13    1    3    3    0    0 -0.26415909425E+03 -0.68008613822E+03  0.30714770425E+03  0.79160400119E+03  0.00000000000E+00 0. -1.
         22    1    1    2    0    0  0.68859586277E+03  0.16383581893E+04 -0.24245909430E+03  0.17936466294E+04  0.00000000000E+00 0.  1.
<mgrwt>
<rscale>  0 0.36644394E+04</rscale>
<asrwt>0</asrwt>
<pdfrwt beam="1">  1        2 0.31456698E+00 0.36644394E+04</pdfrwt>
<pdfrwt beam="2">  1       -2 0.25258948E+00 0.36644394E+04</pdfrwt>
<totfact> 0.31688670E-01</totfact>
</mgrwt>
</event>
<event>
 6    1  0.1762360E-005  0.1979007E+04  0.7818608E-02  0.8616499E-01
         -2   -1    0    0    0  501 -0.00000000000E+00  0.00000000000E+00  0.43889284163E+03  0.43889284163E+03  0.00000000000E+00 0.  1.
          2   -1    0    0  501    0  0.00000000000E+00 -0.00000000000E+00 -0.22308789993E+04  0.22308789993E+04  0.00000000000E+00 0. -1.
         23    2    1    2    0    0 -0.60549154735E+03  0.77391665944E+03 -0.77166707994E+03  0.12532203840E+04  0.97592207874E+02 0.  0.
         13    1    3    3    0    0 -0.36823545463E+03  0.40306088715E+03 -0.39551969070E+03  0.67415966546E+03  0.00000000000E+00 0. -1.
        -13    1    3    3    0    0 -0.23725609272E+03  0.37085577229E+03 -0.37614738924E+03  0.57906071858E+03  0.00000000000E+00 0.  1.
         22    1    1    2    0    0  0.60549154735E+03 -0.77391665944E+03 -0.10203190778E+04  0.14165514569E+04  0.00000000000E+00 0.  1.
<mgrwt>
<rscale>  0 0.19790066E+04</rscale>
<asrwt>0</asrwt>
<pdfrwt beam="1">  1        2 0.34321215E+00 0.19790066E+04</pdfrwt>
<pdfrwt beam="2">  1       -2 0.67521976E-01 0.19790066E+04</pdfrwt>
<totfact> 0.92840913E+00</totfact>
</mgrwt>
</event>
<event>
 6    1  0.1762360E-005  0.2113530E+04  0.7818608E-02  0.8555306E-01
          2   -1    0    0  501    0  0.00000000000E+00  0.00000000000E+00  0.10721036881E+04  0.10721036881E+04  0.00000000000E+00 0. -1.
         -2   -1    0    0    0  501 -0.00000000000E+00 -0.00000000000E+00 -0.10416460426E+04  0.10416460426E+04  0.00000000000E+00 0.  1.
         23    2    1    2    0    0  0.98934025421E+03  0.23831992198E+03 -0.26230194810E+03  0.10548358044E+04  0.91026031247E+02 0.  0.
         13    1    3    3    0    0  0.27479210634E+03  0.24970970718E+02 -0.75893928777E+02  0.28617152114E+03  0.00000000000E+00 0. -1.
        -13    1    3    3    0    0  0.71454814787E+03  0.21334895126E+03 -0.18640801932E+03  0.76866428321E+03  0.00000000000E+00 0.  1.
         22    1    1    2    0    0 -0.98934025421E+03 -0.23831992198E+03  0.29275959355E+03  0.10589139264E+04  0.00000000000E+00 0. -1.
<mgrwt>
<rscale>  0 0.21135303E+04</rscale>
<asrwt>0</asrwt>
<pdfrwt beam="1">  1        2 0.16493903E+00 0.21135303E+04</pdfrwt>
<pdfrwt beam="2">  1       -2 0.16025324E+00 0.21135303E+04</pdfrwt>
<totfact> 0.52343342E+00</totfact>
</mgrwt>
</event>
<event>
 6    1  0.1762360E-005  0.2451832E+04  0.7818608E-02  0.8420350E-01
         -2   -1    0    0    0  501 -0.00000000000E+00  0.00000000000E+00  0.14232071085E+04  0.14232071085E+04  0.00000000000E+00 0.  1.
          2   -1    0    0  501    0  0.00000000000E+00 -0.00000000000E+00 -0.10559738090E+04  0.10559738090E+04  0.00000000000E+00 0. -1.
         23    2    1    2    0    0 -0.14885705699E+03  0.36302054917E+03  0.13564997212E+04  0.14149486140E+04  0.89698073030E+02 0.  0.
         13    1    3    3    0    0 -0.21761951755E+02  0.71651903885E+02  0.40177996466E+03  0.40869881071E+03  0.00000000000E+00 0. -1.
        -13    1    3    3    0    0 -0.12709510524E+03  0.29136864528E+03  0.95471975652E+03  0.10062498033E+04  0.00000000000E+00 0.  1.
         22    1    1    2    0    0  0.14885705699E+03 -0.36302054917E+03 -0.98926642167E+03  0.10642323034E+04  0.00000000000E+00 0. -1.
<mgrwt>
<rscale>  0 0.24518315E+04</rscale>
<asrwt>0</asrwt>
<pdfrwt beam="1">  1        2 0.16245751E+00 0.24518315E+04</pdfrwt>
<pdfrwt beam="2">  1       -2 0.21895494E+00 0.24518315E+04</pdfrwt>
<totfact> 0.20850456E+00</totfact>
</mgrwt>
</event>
<event>
 6    1  0.1762360E-005  0.3235691E+04  0.7818608E-02  0.8179454E-01
         -2   -1    0    0    0  501 -0.00000000000E+00  0.00000000000E+00  0.88642072239E+03  0.88642072239E+03  0.00000000000E+00 0.  1.
          2   -1    0    0  501    0  0.00000000000E+00 -0.00000000000E+00 -0.29528018176E+04  0.29528018176E+04  0.00000000000E+00 0. -1.
         23    2    1    2    0    0  0.10066045013E+04  0.10151155376E+04 -0.19294282216E+04  0.24030929267E+04  0.91924834352E+02 0.  0.
         11    1    3    3    0    0  0.67001539380E+03  0.63028215889E+03 -0.11887817241E+04  0.15031228211E+04  0.00000000000E+00 0. -1.
        -11    1    3    3    0    0  0.33658910745E+03  0.38483337873E+03 -0.74064649750E+03  0.89997010556E+03  0.00000000000E+00 0.  1.
         22    1    1    2    0    0 -0.10066045013E+04 -0.10151155376E+04 -0.13695287360E+03  0.14361296133E+04  0.00000000000E+00 0.  1.
<mgrwt>
<rscale>  0 0.32356914E+04</rscale>
<asrwt>0</asrwt>
<pdfrwt beam="1">  1        2 0.45427720E+00 0.32356914E+04</pdfrwt>
<pdfrwt beam="2">  1       -2 0.13637242E+00 0.32356914E+04</pdfrwt>
<totfact> 0.60104283E-01</totfact>
</mgrwt>
</event>
<event>
 6    1  0.1762360E-005  0.2551504E+04  0.7818608E-02  0.8384863E-01
          1   -1    0    0  501    0  0.00000000000E+00  0.00000000000E+00  0.65422311500E+03  0.65422311500E+03  0.00000000000E+00 0. -1.
         -1   -1    0    0    0  501 -0.00000000000E+00 -0.00000000000E+00 -0.24877502852E+04  0.24877502852E+04  0.00000000000E+00 0.  1.
         23    2    1    2    0    0 -0.18911234577E+03 -0.11514871866E+04 -0.15479952763E+04  0.19406346958E+04  0.89930122546E+02 0.  0.
         11    1    3    3    0    0 -0.85361236777E+02 -0.42442128505E+03 -0.50778523835E+03  0.66728241116E+03  0.00000000000E+00 0. -1.
        -11    1    3    3    0    0 -0.10375110900E+03 -0.72706590156E+03 -0.10402100379E+04  0.12733522847E+04  0.00000000000E+00 0.  1.
         22    1    1    2    0    0  0.18911234577E+03  0.11514871866E+04 -0.28553189396E+03  0.12013387044E+04  0.00000000000E+00 0.  1.
<mgrwt>
<rscale>  0 0.25515045E+04</rscale>
<asrwt>0</asrwt>
<pdfrwt beam="1">  1        1 0.10064971E+00 0.25515045E+04</pdfrwt>
<pdfrwt beam="2">  1       -1 0.38273081E+00 0.25515045E+04</pdfrwt>
<totfact> 0.25018117E-01</totfact>
</mgrwt>
</event>
<event>
 6    1  0.1762360E-005  0.1316925E+04  0.7818608E-02  0.9016250E-01
          1   -1    0    0  501    0  0.00000000000E+00  0.00000000000E+00  0.33112381203E+03  0.33112381203E+03  0.00000000000E+00 0. -1.
         -1   -1    0    0    0  501 -0.00000000000E+00 -0.00000000000E+00 -0.13093984565E+04  0.13093984565E+04  0.00000000000E+00 0.  1.
         23    2    1    2    0    0 -0.10569097376E+03  0.64381644363E+03 -0.41394092443E+03  0.77788518226E+03  0.89933713539E+02 0.  0.
         11    1    3    3    0    0 -0.30492017466E+02  0.25896989621E+03 -0.21616713428E+03  0.33870842951E+03  0.00000000000E+00 0.  1.
        -11    1    3    3    0    0 -0.75198956294E+02  0.38484654742E+03 -0.19777379015E+03  0.43917675275E+03  0.00000000000E+00 0. -1.
         22    1    1    2    0    0  0.10569097376E+03 -0.64381644363E+03 -0.56433372002E+03  0.86263708625E+03  0.00000000000E+00 0.  1.
<mgrwt>
<rscale>  0 0.13169252E+04</rscale>
<asrwt>0</asrwt>
<pdfrwt beam="1">  1        1 0.50942125E-01 0.13169252E+04</pdfrwt>
<pdfrwt beam="2">  1       -1 0.20144592E+00 0.13169252E+04</pdfrwt>
<totfact> 0.11120065E+01</totfact>
</mgrwt>
</event>
<event>
 6    1  0.1762360E-005  0.1105369E+04  0.7818608E-02  0.9199974E-01
          2   -1    0    0  501    0  0.00000000000E+00  0.00000000000E+00  0.18290886396E+04  0.18290886396E+04  0.00000000000E+00 0. -1.
         -2   -1    0    0    0  501 -0.00000000000E+00 -0.00000000000E+00 -0.16700139669E+03  0.16700139669E+03  0.00000000000E+00 0.  1.
         23    2    1    2    0    0 -0.10557648312E+03 -0.29801568827E+03  0.16470264931E+04  0.16795674140E+04  0.91053197759E+02 0.  0.
         11    1    3    3    0    0 -0.68994879710E+02 -0.27879773159E+03  0.14683024767E+04  0.14961285478E+04  0.00000000000E+00 0. -1.
        -11    1    3    3    0    0 -0.36581603406E+02 -0.19217956672E+02  0.17872401640E+03  0.18343886612E+03  0.00000000000E+00 0.  1.
         22    1    1    2    0    0  0.10557648312E+03  0.29801568827E+03  0.15060749773E+02  0.31652262229E+03  0.00000000000E+00 0.  1.
<mgrwt>
<rscale>  0 0.11053694E+04</rscale>
<asrwt>0</asrwt>
<pdfrwt beam="1">  1        2 0.28139824E+00 0.11053694E+04</pdfrwt>
<pdfrwt beam="2">  1       -2 0.25692524E-01 0.11053694E+04</pdfrwt>
<totfact> 0.11272339E+02</totfact>
</mgrwt>
</event>
<event>
 6    1  0.1762360E-005  0.3340700E+04  0.7818608E-02  0.8152616E-01
          1   -1    0    0  501    0  0.00000000000E+00  0.00000000000E+00  0.11769764888E+04  0.11769764888E+04  0.00000000000E+00 0. -1.
         -1   -1    0    0    0  501 -0.00000000000E+00 -0.00000000000E+00 -0.23705393934E+04  0.23705393934E+04  0.00000000000E+00 0.  1.
         23    2    1    2    0    0 -0.65804349762E+03 -0.10900725421E+04 -0.17431296913E+04  0.21606838646E+04  0.93670968805E+02 0.  0.
         13    1    3    3    0    0 -0.15868708999E+03 -0.21832977046E+03 -0.31909214579E+03  0.41793453878E+03  0.00000000000E+00 0. -1.
        -13    1    3    3    0    0 -0.49935640763E+03 -0.87174277164E+03 -0.14240375455E+04  0.17427493259E+04  0.00000000000E+00 0.  1.
         22    1    1    2    0    0  0.65804349762E+03  0.10900725421E+04  0.54956678677E+03  0.13868320176E+04  0.00000000000E+00 0. -1.
<mgrwt>
<rscale>  0 0.33407000E+04</rscale>
<asrwt>0</asrwt>
<pdfrwt beam="1">  1        1 0.18107331E+00 0.33407000E+04</pdfrwt>
<pdfrwt beam="2">  1       -1 0.36469837E+00 0.33407000E+04</pdfrwt>
<totfact> 0.11384519E-01</totfact>
</mgrwt>
</event>
<event>
 6    1  0.1762360E-005  0.1537520E+04  0.7818608E-02  0.8859879E-01
          1   -1    0    0  501    0  0.00000000000E+00  0.00000000000E+00  0.11269983688E+04  0.11269983688E+04  0.00000000000E+00 0. -1.
         -1   -1    0    0    0  501 -0.00000000000E+00 -0.00000000000E+00 -0.52439460211E+03  0.52439460211E+03  0.00000000000E+00 0.  1.
         23    2    1    2    0    0  0.59085130489E+03 -0.30973014329E+02 -0.22075610884E+03  0.63749648865E+03  0.87200466453E+02 0.  0.
         13    1    3    3    0    0  0.22429440072E+03  0.63589830135E+01 -0.12479092395E+03  0.25675122115E+03  0.00000000000E+00 0. -1.
        -13    1    3    3    0    0  0.36655690417E+03 -0.37331997342E+02 -0.95965184894E+02  0.38074526751E+03  0.00000000000E+00 0.  1.
         22    1    1    2    0    0 -0.59085130489E+03  0.30973014329E+02  0.82335987554E+03  0.10138964823E+04  0.00000000000E+00 0. -1.
<mgrwt>
<rscale>  0 0.15375199E+04</rscale>
<asrwt>0</asrwt>
<pdfrwt beam="1">  1        1 0.17338436E+00 0.15375199E+04</pdfrwt>
<pdfrwt beam="2">  1       -1 0.80676093E-01 0.15375199E+04</pdfrwt>
<totfact> 0.17882213E+01</totfact>
</mgrwt>
</event>
<event>
 6    1  0.1762360E-005  0.1552604E+04  0.7818608E-02  0.8850206E-01
         -1   -1    0    0    0  501 -0.00000000000E+00  0.00000000000E+00  0.49066365716E+03  0.49066365716E+03  0.00000000000E+00 0.  1.
          1   -1    0    0  501    0  0.00000000000E+00 -0.00000000000E+00 -0.12282244918E+04  0.12282244918E+04  0.00000000000E+00 0. -1.
         23    2    1    2    0    0 -0.48151161986E+03 -0.51761590199E+03 -0.71748395604E+03  0.10116521606E+04  0.94218920149E+02 0.  0.
         13    1    3    3    0    0 -0.13808414373E+03 -0.19185199426E+03 -0.19312017647E+03  0.30523731917E+03  0.00000000000E+00 0. -1.
        -13    1    3    3    0    0 -0.34342747613E+03 -0.32576390773E+03 -0.52436377957E+03  0.70641484148E+03  0.00000000000E+00 0.  1.
         22    1    1    2    0    0  0.48151161986E+03  0.51761590199E+03 -0.20076878554E+02  0.70723598827E+03  0.00000000000E+00 0.  1.
<mgrwt>
<rscale>  0 0.15526044E+04</rscale>
<asrwt>0</asrwt>
<pdfrwt beam="1">  1        1 0.18895761E+00 0.15526044E+04</pdfrwt>
<pdfrwt beam="2">  1       -1 0.75486717E-01 0.15526044E+04</pdfrwt>
<totfact> 0.17314988E+01</totfact>
</mgrwt>
</event>
<event>
 6    1  0.1762360E-005  0.1222600E+04  0.7818608E-02  0.9093301E-01
          4   -1    0    0  501    0  0.00000000000E+00  0.00000000000E+00  0.81787628065E+03  0.81787628065E+03  0.00000000000E+00 0. -1.
         -4   -1    0    0    0  501 -0.00000000000E+00 -0.00000000000E+00 -0.45690015829E+03  0.45690015829E+03  0.00000000000E+00 0.  1.
         23    2    1    2    0    0 -0.47360642447E+03 -0.34981179178E+03  0.23874874061E+02  0.59631598572E+03  0.91386050592E+02 0.  0.
         11    1    3    3    0    0 -0.79817203085E+02 -0.20736446266E+02 -0.18133470262E+01  0.82486813125E+02  0.00000000000E+00 0.  1.
        -11    1    3    3    0    0 -0.39378922139E+03 -0.32907534552E+03  0.25688221087E+02  0.51382917260E+03  0.00000000000E+00 0. -1.
         22    1    1    2    0    0  0.47360642447E+03  0.34981179178E+03  0.33710124830E+03  0.67846045322E+03  0.00000000000E+00 0. -1.
<mgrwt>
<rscale>  0 0.12226002E+04</rscale>
<asrwt>0</asrwt>
<pdfrwt beam="1">  1        4 0.12582712E+00 0.12226002E+04</pdfrwt>
<pdfrwt beam="2">  1       -4 0.70292332E-01 0.12226002E+04</pdfrwt>
<totfact> 0.17132123E+00</totfact>
</mgrwt>
</event>
<event>
 6    1  0.1762360E-005  0.2563524E+04  0.7818608E-02  0.8380698E-01
          2   -1    0    0  501    0  0.00000000000E+00  0.00000000000E+00  0.11434580804E+04  0.11434580804E+04  0.00000000000E+00 0. -1.
         -2   -1    0    0    0  501 -0.00000000000E+00 -0.00000000000E+00 -0.14367937463E+04  0.14367937463E+04  0.00000000000E+00 0.  1.
         23    2    1    2    0    0 -0.25334967944E+03  0.48812015954E+03 -0.13103478322E+04  0.14240679761E+04  0.92254046339E+02 0.  0.
         13    1    3    3    0    0 -0.19827289793E+03  0.29729948059E+03 -0.89399940498E+03  0.96277414762E+03  0.00000000000E+00 0.  1.
        -13    1    3    3    0    0 -0.55076781505E+02  0.19082067894E+03 -0.41634842719E+03  0.46129382848E+03  0.00000000000E+00 0. -1.
         22    1    1    2    0    0  0.25334967944E+03 -0.48812015954E+03  0.10170121663E+04  0.11561838507E+04  0.00000000000E+00 0. -1.
<mgrwt>
<rscale>  0 0.25635237E+04</rscale>
<asrwt>0</asrwt>
<pdfrwt beam="1">  1        2 0.17591663E+00 0.25635237E+04</pdfrwt>
<pdfrwt beam="2">  1       -2 0.22104519E+00 0.25635237E+04</pdfrwt>
<totfact> 0.17693767E+00</totfact>
</mgrwt>
</event>
<event>
 6    1  0.1762360E-005  0.2838967E+04  0.7818608E-02  0.8291272E-01
         -2   -1    0    0    0  501 -0.00000000000E+00  0.00000000000E+00  0.11118506888E+04  0.11118506888E+04  0.00000000000E+00 0.  1.
          2   -1    0    0  501    0  0.00000000000E+00 -0.00000000000E+00 -0.18122338130E+04  0.18122338130E+04  0.00000000000E+00 0. -1.
         23    2    1    2    0    0 -0.42104143443E+03 -0.17000166187E+03  0.10330350236E+04  0.11321819013E+04  0.92184831599E+02 0.  0.
         11    1    3    3    0    0 -0.33642951641E+03 -0.93772713412E+02  0.79276170588E+03  0.86628474742E+03  0.00000000000E+00 0. -1.
        -11    1    3    3    0    0 -0.84611918011E+02 -0.76228948456E+02  0.24027331772E+03  0.26589715392E+03  0.00000000000E+00 0.  1.
         22    1    1    2    0    0  0.42104143443E+03  0.17000166187E+03 -0.17334181478E+04  0.17919026005E+04  0.00000000000E+00 0. -1.
<mgrwt>
<rscale>  0 0.28389670E+04</rscale>
<asrwt>0</asrwt>
<pdfrwt beam="1">  1        2 0.27880520E+00 0.28389670E+04</pdfrwt>
<pdfrwt beam="2">  1       -2 0.17105395E+00 0.28389670E+04</pdfrwt>
<totfact> 0.15438023E+00</totfact>
</mgrwt>
</event>
<event>
 6    1  0.1762360E-005  0.1454299E+04  0.7818608E-02  0.8915426E-01
          2   -1    0    0  501    0  0.00000000000E+00  0.00000000000E+00  0.32238073613E+03  0.32238073613E+03  0.00000000000E+00 0. -1.
         -2   -1    0    0    0  501 -0.00000000000E+00 -0.00000000000E+00 -0.16401302221E+04  0.16401302221E+04  0.00000000000E+00 0.  1.
         23    2    1    2    0    0  0.14389522236E+03 -0.43760387723E+03 -0.14155891467E+04  0.14915804032E+04  0.93362084144E+02 0.  0.
         11    1    3    3    0    0  0.72147264535E+02 -0.19106933185E+03 -0.77471982161E+03  0.80118881629E+03  0.00000000000E+00 0. -1.
        -11    1    3    3    0    0  0.71747957829E+02 -0.24653454539E+03 -0.64086932505E+03  0.69039158693E+03  0.00000000000E+00 0.  1.
         22    1    1    2    0    0 -0.14389522236E+03  0.43760387723E+03  0.97839660737E+02  0.47093055497E+03  0.00000000000E+00 0. -1.
<mgrwt>
<rscale>  0 0.14542990E+04</rscale>
<asrwt>0</asrwt>
<pdfrwt beam="1">  1        2 0.49597035E-01 0.14542990E+04</pdfrwt>
<pdfrwt beam="2">  1       -2 0.25232773E+00 0.14542990E+04</pdfrwt>
<totfact> 0.61130262E+00</totfact>
</mgrwt>
</event>
<event>
 6    1  0.1762360E-005  0.2102434E+04  0.7818608E-02  0.8560172E-01
          1   -1    0    0  501    0  0.00000000000E+00  0.00000000000E+00  0.22076386651E+04  0.22076386651E+04  0.00000000000E+00 0. -1.
         -1   -1    0    0    0  501 -0.00000000000E+00 -0.00000000000E+00 -0.50056082054E+03  0.50056082054E+03  0.00000000000E+00 0.  1.
         23    2    1    2    0    0 -0.23314515756E+03 -0.14981803841E+03  0.21586777197E+04  0.21783461510E+04  0.92197325461E+02 0.  0.
         11    1    3    3    0    0 -0.67810618572E+02 -0.86002803987E+02  0.10350517614E+04  0.10408299146E+04  0.00000000000E+00 0.  1.
        -11    1    3    3    0    0 -0.16533453899E+03 -0.63815234421E+02  0.11236259583E+04  0.11375162364E+04  0.00000000000E+00 0. -1.
         22    1    1    2    0    0  0.23314515756E+03  0.14981803841E+03 -0.45159987509E+03  0.52985333472E+03  0.00000000000E+00 0.  1.
<mgrwt>
<rscale>  0 0.21024342E+04</rscale>
<asrwt>0</asrwt>
<pdfrwt beam="1">  1        1 0.33963671E+00 0.21024342E+04</pdfrwt>
<pdfrwt beam="2">  1       -1 0.77009358E-01 0.21024342E+04</pdfrwt>
<totfact> 0.33471478E+00</totfact>
</mgrwt>
</event>
<event>
 6    1  0.1762360E-005  0.7967436E+03  0.7818608E-02  0.9564743E-01
         -1   -1    0    0    0  501 -0.00000000000E+00  0.00000000000E+00  0.50083722740E+03  0.50083722740E+03  0.00000000000E+00 0.  1.
          1   -1    0    0  501    0  0.00000000000E+00 -0.00000000000E+00 -0.31686962298E+03  0.31686962298E+03  0.00000000000E+00 0. -1.
         23    2    1    2    0    0  0.77685429943E+02  0.64871823912E+02 -0.29639532618E+03  0.32679756686E+03  0.93290303686E+02 0.  0.
         11    1    3    3    0    0  0.56036980722E+02  0.29688481661E+02 -0.61644759795E+02  0.88439954556E+02  0.00000000000E+00 0. -1.
        -11    1    3    3    0    0  0.21648449222E+02  0.35183342251E+02 -0.23475056638E+03  0.23835761230E+03  0.00000000000E+00 0.  1.
         22    1    1    2    0    0 -0.77685429943E+02 -0.64871823912E+02  0.48036293060E+03  0.49090928353E+03  0.00000000000E+00 0.  1.
<mgrwt>
<rscale>  0 0.79674363E+03</rscale>
<asrwt>0</asrwt>
<pdfrwt beam="1">  1        1 0.48749173E-01 0.79674363E+03</pdfrwt>
<pdfrwt beam="2">  1       -1 0.77051881E-01 0.79674363E+03</pdfrwt>
<totfact> 0.13961207E+02</totfact>
</mgrwt>
</event>
<event>
 6    1  0.1762360E-005  0.1277284E+04  0.7818608E-02  0.9047775E-01
         -1   -1    0    0    0  501 -0.00000000000E+00  0.00000000000E+00  0.11722410164E+03  0.11722410164E+03  0.00000000000E+00 0.  1.
          1   -1    0    0  501    0  0.00000000000E+00 -0.00000000000E+00 -0.34793513849E+04  0.34793513849E+04  0.00000000000E+00 0. -1.
         23    2    1    2    0    0 -0.32151500547E+03  0.48205965021E+03 -0.24230718369E+04  0.24931360743E+04  0.93257456815E+02 0.  0.
         13    1    3    3    0    0 -0.74748240576E+02  0.96256627182E+02 -0.36807817623E+03  0.38772952114E+03  0.00000000000E+00 0.  1.
        -13    1    3    3    0    0 -0.24676676490E+03  0.38580302302E+03 -0.20549936606E+04  0.21054065532E+04  0.00000000000E+00 0. -1.
         22    1    1    2    0    0  0.32151500547E+03 -0.48205965021E+03 -0.93905544640E+03  0.11034394123E+04  0.00000000000E+00 0.  1.
<mgrwt>
<rscale>  0 0.12772844E+04</rscale>
<asrwt>0</asrwt>
<pdfrwt beam="1">  1        1 0.53528485E+00 0.12772844E+04</pdfrwt>
<pdfrwt beam="2">  1       -1 0.18034476E-01 0.12772844E+04</pdfrwt>
<totfact> 0.63211391E+00</totfact>
</mgrwt>
</event>
<event>
 6    1  0.1762360E-005  0.1103965E+04  0.7818608E-02  0.9201336E-01
         -1   -1    0    0    0  501 -0.00000000000E+00  0.00000000000E+00  0.18076015539E+03  0.18076015539E+03  0.00000000000E+00 0.  1.
          1   -1    0    0  501    0  0.00000000000E+00 -0.00000000000E+00 -0.16855743076E+04  0.16855743076E+04  0.00000000000E+00 0. -1.
         23    2    1    2    0    0 -0.43755380131E+03 -0.26764933694E+03 -0.10844063854E+04  0.12031360108E+04  0.92247250163E+02 0.  0.
         13    1    3    3    0    0 -0.21795108880E+03 -0.15415552873E+03 -0.66066074869E+03  0.71255822851E+03  0.00000000000E+00 0.  1.
        -13    1    3    3    0    0 -0.21960271251E+03 -0.11349380821E+03 -0.42374563666E+03  0.49057778224E+03  0.00000000000E+00 0. -1.
         22    1    1    2    0    0  0.43755380131E+03  0.26764933694E+03 -0.42040776684E+03  0.66319845222E+03  0.00000000000E+00 0.  1.
<mgrwt>
<rscale>  0 0.11039650E+04</rscale>
<asrwt>0</asrwt>
<pdfrwt beam="1">  1        1 0.25931911E+00 0.11039650E+04</pdfrwt>
<pdfrwt beam="2">  1       -1 0.27809256E-01 0.11039650E+04</pdfrwt>
<totfact> 0.56622514E+01</totfact>
</mgrwt>
</event>
<event>
 6    1  0.1762360E-005  0.2933607E+04  0.7818608E-02  0.8262948E-01
          2   -1    0    0  501    0  0.00000000000E+00  0.00000000000E+00  0.38181429741E+04  0.38181429741E+04  0.00000000000E+00 0. -1.
         -2   -1    0    0    0  501 -0.00000000000E+00 -0.00000000000E+00 -0.56349712696E+03  0.56349712696E+03  0.00000000000E+00 0.  1.
         23    2    1    2    0    0 -0.11786170306E+04  0.86823328346E+03  0.15295593082E+04  0.21191435362E+04  0.90832319382E+02 0.  0.
         13    1    3    3    0    0 -0.67822105180E+03  0.46450599217E+03  0.80732014779E+03  0.11521785595E+04  0.00000000000E+00 0.  1.
        -13    1    3    3    0    0 -0.50039597879E+03  0.40372729130E+03  0.72223916044E+03  0.96696497672E+03  0.00000000000E+00 0. -1.
         22    1    1    2    0    0  0.11786170306E+04 -0.86823328346E+03  0.17250865389E+04  0.22624965649E+04  0.00000000000E+00 0.  1.
<mgrwt>
<rscale>  0 0.29336071E+04</rscale>
<asrwt>0</asrwt>
<pdfrwt beam="1">  1        2 0.58740660E+00 0.29336071E+04</pdfrwt>
<pdfrwt beam="2">  1       -2 0.86691868E-01 0.29336071E+04</pdfrwt>
<totfact> 0.47143381E-01</totfact>
</mgrwt>
</event>
<event>
 6    1  0.1762360E-005  0.3717045E+04  0.7818608E-02  0.8064195E-01
          2   -1    0    0  501    0  0.00000000000E+00  0.00000000000E+00  0.35433390603E+04  0.35433390603E+04  0.00000000000E+00 0. -1.
         -2   -1    0    0    0  501 -0.00000000000E+00 -0.00000000000E+00 -0.97481681408E+03  0.97481681408E+03  0.00000000000E+00 0.  1.
         23    2    1    2    0    0 -0.66439653827E+03 -0.98381379593E+03  0.30213998092E+04  0.32475613552E+04  0.92117336430E+02 0.  0.
         13    1    3    3    0    0 -0.53235945860E+03 -0.77326412507E+03  0.22842376761E+04  0.24696327179E+04  0.00000000000E+00 0.  1.
        -13    1    3    3    0    0 -0.13203707967E+03 -0.21054967087E+03  0.73716213305E+03  0.77792863729E+03  0.00000000000E+00 0. -1.
         22    1    1    2    0    0  0.66439653827E+03  0.98381379593E+03 -0.45287756297E+03  0.12705945192E+04  0.00000000000E+00 0.  1.
<mgrwt>
<rscale>  0 0.37170453E+04</rscale>
<asrwt>0</asrwt>
<pdfrwt beam="1">  1        2 0.54512908E+00 0.37170453E+04</pdfrwt>
<pdfrwt beam="2">  1       -2 0.14997182E+00 0.37170453E+04</pdfrwt>
<totfact> 0.18303943E-01</totfact>
</mgrwt>
</event>
<event>
 6    1  0.1762360E-005  0.3836532E+04  0.7818608E-02  0.8038360E-01
         -1   -1    0    0    0  501 -0.00000000000E+00  0.00000000000E+00  0.26484052747E+04  0.26484052747E+04  0.00000000000E+00 0.  1.
          1   -1    0    0  501    0  0.00000000000E+00 -0.00000000000E+00 -0.13894186131E+04  0.13894186131E+04  0.00000000000E+00 0. -1.
         23    2    1    2    0    0 -0.55881382982E+03 -0.14406180254E+04 -0.56454532381E+03  0.16476519079E+04  0.91608926662E+02 0.  0.
         13    1    3    3    0    0 -0.30320219212E+03 -0.90283693543E+03 -0.35597164259E+03  0.10167408281E+04  0.00000000000E+00 0. -1.
        -13    1    3    3    0    0 -0.25561163770E+03 -0.53778109002E+03 -0.20857368122E+03  0.63091107979E+03  0.00000000000E+00 0.  1.
         22    1    1    2    0    0  0.55881382982E+03  0.14406180254E+04  0.18235319854E+04  0.23901719799E+04  0.00000000000E+00 0.  1.
<mgrwt>
<rscale>  0 0.38365316E+04</rscale>
<asrwt>0</asrwt>
<pdfrwt beam="1">  1        1 0.21375671E+00 0.38365316E+04</pdfrwt>
<pdfrwt beam="2">  1       -1 0.40744697E+00 0.38365316E+04</pdfrwt>
<totfact> 0.39405738E-02</totfact>
</mgrwt>
</event>
<event>
 6    1  0.1762360E-005  0.3449647E+04  0.7818608E-02  0.8125828E-01
         -1   -1    0    0    0  501 -0.00000000000E+00  0.00000000000E+00  0.22869143718E+04  0.22869143718E+04  0.00000000000E+00 0.  1.
          1   -1    0    0  501    0  0.00000000000E+00 -0.00000000000E+00 -0.13008862185E+04  0.13008862185E+04  0.00000000000E+00 0. -1.
         23    2    1    2    0    0  0.94086939277E+03 -0.46789713951E+02  0.19946571067E+04  0.22076713003E+04  0.87926704152E+02 0.  0.
         13    1    3    3    0    0  0.22675564289E+03  0.25244880224E+02  0.50231059910E+03  0.55169861657E+03  0.00000000000E+00 0. -1.
        -13    1    3    3    0    0  0.71411374988E+03 -0.72034594174E+02  0.14923465076E+04  0.16559726837E+04  0.00000000000E+00 0.  1.
         22    1    1    2    0    0 -0.94086939277E+03  0.46789713951E+02 -0.10086289534E+04  0.13801292900E+04  0.00000000000E+00 0. -1.
<mgrwt>
<rscale>  0 0.34496466E+04</rscale>
<asrwt>0</asrwt>
<pdfrwt beam="1">  1        1 0.20013634E+00 0.34496466E+04</pdfrwt>
<pdfrwt beam="2">  1       -1 0.35183298E+00 0.34496466E+04</pdfrwt>
<totfact> 0.11175325E-01</totfact>
</mgrwt>
</event>
<event>
 6    1  0.1762360E-005  0.7388213E+03  0.7818608E-02  0.9653053E-01
         -1   -1    0    0    0  501 -0.00000000000E+00  0.00000000000E+00  0.81332423733E+02  0.81332423733E+02  0.00000000000E+00 0.  1.
          1   -1    0    0  501    0  0.00000000000E+00 -0.00000000000E+00 -0.16778577553E+04  0.16778577553E+04  0.00000000000E+00 0. -1.
         23    2    1    2    0    0  0.34555111422E+03 -0.50087733846E+02 -0.55459773493E+03  0.66031463091E+03  0.80761442487E+02 0.  0.
         11    1    3    3    0    0  0.13988285611E+03 -0.46575190482E+02 -0.17732239807E+03  0.23060723028E+03  0.00000000000E+00 0.  1.
        -11    1    3    3    0    0  0.20566825810E+03 -0.35125433642E+01 -0.37727533686E+03  0.42970740063E+03  0.00000000000E+00 0. -1.
         22    1    1    2    0    0 -0.34555111422E+03  0.50087733846E+02 -0.10419275967E+04  0.10988755481E+04  0.00000000000E+00 0.  1.
<mgrwt>
<rscale>  0 0.73882133E+03</rscale>
<asrwt>0</asrwt>
<pdfrwt beam="1">  1        1 0.25813198E+00 0.73882133E+03</pdfrwt>
<pdfrwt beam="2">  1       -1 0.12512680E-01 0.73882133E+03</pdfrwt>
<totfact> 0.22269110E+02</totfact>
</mgrwt>
</event>
<event>
 6    1  0.1762360E-005  0.1472671E+04  0.7818608E-02  0.8902833E-01
         -2   -1    0    0    0  501 -0.00000000000E+00  0.00000000000E+00  0.47602282623E+03  0.47602282623E+03  0.00000000000E+00 0.  1.
          2   -1    0    0  501    0  0.00000000000E+00 -0.00000000000E+00 -0.11389999876E+04  0.11389999876E+04  0.00000000000E+00 0. -1.
         23    2    1    2    0    0 -0.72045069581E+03 -0.88192162318E+02 -0.44885462634E+03  0.85826953663E+03  0.91263680213E+02 0.  0.
         11    1    3    3    0    0 -0.49897537977E+03 -0.22702446135E+02 -0.28483386185E+03  0.57499753002E+03  0.00000000000E+00 0.  1.
        -11    1    3    3    0    0 -0.22147531604E+03 -0.65489716183E+02 -0.16402076449E+03  0.28327200660E+03  0.00000000000E+00 0. -1.
         22    1    1    2    0    0  0.72045069581E+03  0.88192162318E+02 -0.21412253506E+03  0.75675327723E+03  0.00000000000E+00 0. -1.
<mgrwt>
<rscale>  0 0.14726710E+04</rscale>
<asrwt>0</asrwt>
<pdfrwt beam="1">  1        2 0.17523076E+00 0.14726710E+04</pdfrwt>
<pdfrwt beam="2">  1       -2 0.73234282E-01 0.14726710E+04</pdfrwt>
<totfact> 0.33605517E+01</totfact>
</mgrwt>
</event>
<event>
 6    1  0.1762360E-005  0.1357625E+04  0.7818608E-02  0.8985076E-01
         -2   -1    0    0    0  501 -0.00000000000E+00  0.00000000000E+00  0.25548381864E+03  0.25548381864E+03  0.00000000000E+00 0.  1.
          2   -1    0    0  501    0  0.00000000000E+00 -0.00000000000E+00 -0.18035826837E+04  0.18035826837E+04  0.00000000000E+00 0. -1.
         23    2    1    2    0    0  0.66606652002E+03  0.91386526916E+02 -0.67370199961E+03  0.95608600175E+03  0.90719083255E+02 0.  0.
         13    1    3    3    0    0  0.21709386743E+03  0.15771998448E+02 -0.16322453461E+03  0.27206755027E+03  0.00000000000E+00 0. -1.
        -13    1    3    3    0    0  0.44897265259E+03  0.75614528468E+02 -0.51047746501E+03  0.68401845148E+03  0.00000000000E+00 0.  1.
         22    1    1    2    0    0 -0.66606652002E+03 -0.91386526916E+02 -0.87439686546E+03  0.11029805006E+04  0.00000000000E+00 0. -1.
<mgrwt>
<rscale>  0 0.13576247E+04</rscale>
<asrwt>0</asrwt>
<pdfrwt beam="1">  1        2 0.27747425E+00 0.13576247E+04</pdfrwt>
<pdfrwt beam="2">  1       -2 0.39305204E-01 0.13576247E+04</pdfrwt>
<totfact> 0.51327385E+01</totfact>
</mgrwt>
</event>
<event>
 6    1  0.1762360E-005  0.8923136E+03  0.7818608E-02  0.9435241E-01
          1   -1    0    0  501    0  0.00000000000E+00  0.00000000000E+00  0.65912661618E+02  0.65912661618E+02  0.00000000000E+00 0. -1.
         -1   -1    0    0    0  501 -0.00000000000E+00 -0.00000000000E+00 -0.30199947806E+04  0.30199947806E+04  0.00000000000E+00 0.  1.
         23    2    1    2    0    0 -0.51582165436E+02  0.29556625935E+03 -0.26128916688E+04  0.26315605959E+04  0.88815334189E+02 0.  0.
         13    1    3    3    0    0 -0.55387271304E+02  0.24570288845E+03 -0.23840986467E+04  0.23973660581E+04  0.00000000000E+00 0. -1.
        -13    1    3    3    0    0  0.38051058675E+01  0.49863370903E+02 -0.22879302210E+03  0.23419453783E+03  0.00000000000E+00 0.  1.
         22    1    1    2    0    0  0.51582165436E+02 -0.29556625935E+03 -0.34119045019E+03  0.45434684632E+03  0.00000000000E+00 0. -1.
<mgrwt>
<rscale>  0 0.89231361E+03</rscale>
<asrwt>0</asrwt>
<pdfrwt beam="1">  1        1 0.10140405E-01 0.89231361E+03</pdfrwt>
<pdfrwt beam="2">  1       -1 0.46461476E+00 0.89231361E+03</pdfrwt>
<totfact> 0.17658232E+00</totfact>
</mgrwt>
</event>
<event>
 6    1  0.1762360E-005  0.2251432E+04  0.7818608E-02  0.8497321E-01
         -1   -1    0    0    0  501 -0.00000000000E+00  0.00000000000E+00  0.62609581907E+03  0.62609581907E+03  0.00000000000E+00 0.  1.
          1   -1    0    0  501    0  0.00000000000E+00 -0.00000000000E+00 -0.20240302071E+04  0.20240302071E+04  0.00000000000E+00 0. -1.
         23    2    1    2    0    0  0.84058682119E+03 -0.39895480501E+03 -0.14421351119E+04  0.17186192660E+04  0.90262727588E+02 0.  0.
         11    1    3    3    0    0  0.46977335119E+03 -0.20879474722E+03 -0.87493282052E+03  0.10147855381E+04  0.00000000000E+00 0. -1.
        -11    1    3    3    0    0  0.37081347000E+03 -0.19016005780E+03 -0.56720229137E+03  0.70383372784E+03  0.00000000000E+00 0.  1.
         22    1    1    2    0    0 -0.84058682119E+03  0.39895480501E+03  0.44200723828E+02  0.93150676025E+03  0.00000000000E+00 0.  1.
<mgrwt>
<rscale>  0 0.22514323E+04</rscale>
<asrwt>0</asrwt>
<pdfrwt beam="1">  1        1 0.31138927E+00 0.22514323E+04</pdfrwt>
<pdfrwt beam="2">  1       -1 0.96322433E-01 0.22514323E+04</pdfrwt>
<totfact> 0.27033699E+00</totfact>
</mgrwt>
</event>
<event>
 6    1  0.1762360E-005  0.3613910E+04  0.7818608E-02  0.8087313E-01
         -2   -1    0    0    0  501 -0.00000000000E+00  0.00000000000E+00  0.25717644331E+04  0.25717644331E+04  0.00000000000E+00 0.  1.
          2   -1    0    0  501    0  0.00000000000E+00 -0.00000000000E+00 -0.12695896591E+04  0.12695896591E+04  0.00000000000E+00 0. -1.
         23    2    1    2    0    0 -0.10695824006E+04  0.86985699362E+03  0.18912002652E+04  0.23421513941E+04  0.91525999033E+02 0.  0.
         11    1    3    3    0    0 -0.32056574825E+03  0.24040069746E+03  0.61618653311E+03  0.73501070596E+03  0.00000000000E+00 0. -1.
        -11    1    3    3    0    0 -0.74901665232E+03  0.62945629616E+03  0.12750137321E+04  0.16071406881E+04  0.00000000000E+00 0.  1.
         22    1    1    2    0    0  0.10695824006E+04 -0.86985699362E+03 -0.58902549124E+03  0.14992026982E+04  0.00000000000E+00 0. -1.
<mgrwt>
<rscale>  0 0.36139095E+04</rscale>
<asrwt>0</asrwt>
<pdfrwt beam="1">  1        2 0.19532149E+00 0.36139095E+04</pdfrwt>
<pdfrwt beam="2">  1       -2 0.39565607E+00 0.36139095E+04</pdfrwt>
<totfact> 0.11101959E-01</totfact>
</mgrwt>
</event>
<event>
 6    1  0.1762360E-005  0.1825604E+04  0.7818608E-02  0.8692801E-01
         -1   -1    0    0    0  501 -0.00000000000E+00  0.00000000000E+00  0.18205636160E+04  0.18205636160E+04  0.00000000000E+00 0.  1.
          1   -1    0    0  501    0  0.00000000000E+00 -0.00000000000E+00 -0.45766476872E+03  0.45766476872E+03  0.00000000000E+00 0. -1.
         23    2    1    2    0    0  0.57757932999E+03  0.53316338680E+03  0.12567560459E+04  0.14850528847E+04  0.89917918643E+02 0.  0.
         11    1    3    3    0    0  0.11108895526E+03  0.70208027054E+02  0.16775721536E+03  0.21310186848E+03  0.00000000000E+00 0. -1.
        -11    1    3    3    0    0  0.46649037472E+03  0.46295535975E+03  0.10889988305E+04  0.12719510162E+04  0.00000000000E+00 0.  1.
         22    1    1    2    0    0 -0.57757932999E+03 -0.53316338680E+03  0.10614280136E+03  0.79317549996E+03  0.00000000000E+00 0. -1.
<mgrwt>
<rscale>  0 0.18256044E+04</rscale>
<asrwt>0</asrwt>
<pdfrwt beam="1">  1        1 0.70409966E-01 0.18256044E+04</pdfrwt>
<pdfrwt beam="2">  1       -1 0.28008671E+00 0.18256044E+04</pdfrwt>
<totfact> 0.20956002E+00</totfact>
</mgrwt>
</event>
<event>
 6    1  0.1762360E-005  0.2225360E+04  0.7818608E-02  0.8507946E-01
         -1   -1    0    0    0  501 -0.00000000000E+00  0.00000000000E+00  0.55997835487E+03  0.55997835487E+03  0.00000000000E+00 0.  1.
          1   -1    0    0  501    0  0.00000000000E+00 -0.00000000000E+00 -0.22109016604E+04  0.22109016604E+04  0.00000000000E+00 0. -1.
         23    2    1    2    0    0 -0.52190744569E+03 -0.86467724617E+03 -0.14026575144E+04  0.17308367349E+04  0.91069085850E+02 0.  0.
         11    1    3    3    0    0 -0.21077973746E+03 -0.28156771294E+03 -0.53156347752E+03  0.63739172047E+03  0.00000000000E+00 0. -1.
        -11    1    3    3    0    0 -0.31112770822E+03 -0.58310953322E+03 -0.87109403689E+03  0.10934450145E+04  0.00000000000E+00 0.  1.
         22    1    1    2    0    0  0.52190744569E+03  0.86467724617E+03 -0.24826579110E+03  0.10400432803E+04  0.00000000000E+00 0.  1.
<mgrwt>
<rscale>  0 0.22253603E+04</rscale>
<asrwt>0</asrwt>
<pdfrwt beam="1">  1        1 0.34013871E+00 0.22253603E+04</pdfrwt>
<pdfrwt beam="2">  1       -1 0.86150519E-01 0.22253603E+04</pdfrwt>
<totfact> 0.25898742E+00</totfact>
</mgrwt>
</event>
<event>
 6    1  0.1762360E-005  0.2361353E+04  0.7818608E-02  0.8454116E-01
         -2   -1    0    0    0  501 -0.00000000000E+00  0.00000000000E+00  0.38955457441E+04  0.38955457441E+04  0.00000000000E+00 0.  1.
          2   -1    0    0  501    0  0.00000000000E+00 -0.00000000000E+00 -0.35784378196E+03  0.35784378196E+03  0.00000000000E+00 0. -1.
         23    2    1    2    0    0  0.20930648972E+02 -0.94897383076E+03  0.30318831164E+04  0.31778235689E+04  0.72511928002E+02 0.  0.
         11    1    3    3    0    0  0.37137796016E+02 -0.62677670978E+03  0.20854682099E+04  0.21779361593E+04  0.00000000000E+00 0. -1.
        -11    1    3    3    0    0 -0.16207147044E+02 -0.32219712097E+03  0.94641490658E+03  0.99988740955E+03  0.00000000000E+00 0.  1.
         22    1    1    2    0    0 -0.20930648972E+02  0.94897383076E+03  0.50581884566E+03  0.10755659571E+04  0.00000000000E+00 0. -1.
<mgrwt>
<rscale>  0 0.23613529E+04</rscale>
<asrwt>0</asrwt>
<pdfrwt beam="1">  1        2 0.55052892E-01 0.23613529E+04</pdfrwt>
<pdfrwt beam="2">  1       -2 0.59931470E+00 0.23613529E+04</pdfrwt>
<totfact> 0.40766170E-02</totfact>
</mgrwt>
</event>
<event>
 6    1  0.1762360E-005  0.4511375E+03  0.7818608E-02  0.1027383E+00
         -1   -1    0    0    0  501 -0.00000000000E+00  0.00000000000E+00  0.84748803012E+02  0.84748803012E+02  0.00000000000E+00 0.  1.
          1   -1    0    0  501    0  0.00000000000E+00 -0.00000000000E+00 -0.60037734717E+03  0.60037734717E+03  0.00000000000E+00 0. -1.
         23    2    1    2    0    0  0.75939628660E+02 -0.18820845536E+03 -0.38313417791E+03  0.44275452033E+03  0.89724673957E+02 0.  0.
         13    1    3    3    0    0 -0.11508812373E+01 -0.10734535479E+03 -0.15262512816E+03  0.18659790853E+03  0.00000000000E+00 0.  1.
        -13    1    3    3    0    0  0.77090509897E+02 -0.80863100577E+02 -0.23050904975E+03  0.25615661180E+03  0.00000000000E+00 0. -1.
         22    1    1    2    0    0 -0.75939628660E+02  0.18820845536E+03 -0.13249436625E+03  0.24237162986E+03  0.00000000000E+00 0.  1.
<mgrwt>
<rscale>  0 0.45113750E+03</rscale>
<asrwt>0</asrwt>
<pdfrwt beam="1">  1        1 0.92365742E-01 0.45113750E+03</pdfrwt>
<pdfrwt beam="2">  1       -1 0.13038278E-01 0.45113750E+03</pdfrwt>
<totfact> 0.14153684E+03</totfact>
</mgrwt>
</event>
<event>
 6    1  0.1762360E-005  0.1299655E+04  0.7818608E-02  0.9029839E-01
          2   -1    0    0  501    0  0.00000000000E+00  0.00000000000E+00  0.26175483124E+04  0.26175483124E+04  0.00000000000E+00 0.  1.
         -2   -1    0    0    0  501 -0.00000000000E+00 -0.00000000000E+00 -0.16132481371E+03  0.16132481371E+03  0.00000000000E+00 0. -1.
         23    2    1    2    0    0 -0.62586107285E+03 -0.15151510517E+03  0.11085937330E+04  0.12852985900E+04  0.91397434104E+02 0.  0.
         13    1    3    3    0    0 -0.32677496966E+03 -0.64412577694E+02  0.48676782236E+03  0.58980825176E+03  0.00000000000E+00 0.  1.
        -13    1    3    3    0    0 -0.29908610319E+03 -0.87102527473E+02  0.62182591064E+03  0.69549033822E+03  0.00000000000E+00 0. -1.
         22    1    1    2    0    0  0.62586107285E+03  0.15151510517E+03  0.13476297657E+04  0.14935745361E+04  0.00000000000E+00 0. -1.
<mgrwt>
<rscale>  0 0.12996546E+04</rscale>
<asrwt>0</asrwt>
<pdfrwt beam="1">  1        2 0.40269971E+00 0.12996546E+04</pdfrwt>
<pdfrwt beam="2">  1       -2 0.24819204E-01 0.12996546E+04</pdfrwt>
<totfact> 0.42601892E+01</totfact>
</mgrwt>
</event>
<event>
 6    1  0.1762360E-005  0.1664645E+04  0.7818608E-02  0.8781790E-01
          2   -1    0    0  501    0  0.00000000000E+00  0.00000000000E+00  0.18814607698E+04  0.18814607698E+04  0.00000000000E+00 0. -1.
         -2   -1    0    0    0  501 -0.00000000000E+00 -0.00000000000E+00 -0.36820365984E+03  0.36820365984E+03  0.00000000000E+00 0.  1.
         23    2    1    2    0    0  0.53824284343E+03  0.14078997788E+03 -0.73035243108E+02  0.56863777733E+03  0.92128164524E+02 0.  0.
         11    1    3    3    0    0  0.15355813044E+03  0.47860215488E+02  0.20046973918E+02  0.16208818839E+03  0.00000000000E+00 0. -1.
        -11    1    3    3    0    0  0.38468471298E+03  0.92929762394E+02 -0.93082217026E+02  0.40654958894E+03  0.00000000000E+00 0.  1.
         22    1    1    2    0    0 -0.53824284343E+03 -0.14078997788E+03  0.15862923531E+04  0.16810266523E+04  0.00000000000E+00 0. -1.
<mgrwt>
<rscale>  0 0.16646450E+04</rscale>
<asrwt>0</asrwt>
<pdfrwt beam="1">  1        2 0.28945550E+00 0.16646450E+04</pdfrwt>
<pdfrwt beam="2">  1       -2 0.56646718E-01 0.16646450E+04</pdfrwt>
<totfact> 0.21688135E+01</totfact>
</mgrwt>
</event>
<event>
 6    1  0.1762360E-005  0.1017374E+04  0.7818608E-02  0.9289692E-01
         -2   -1    0    0    0  501 -0.00000000000E+00  0.00000000000E+00  0.11219093304E+03  0.11219093304E+03  0.00000000000E+00 0.  1.
          2   -1    0    0  501    0  0.00000000000E+00 -0.00000000000E+00 -0.23064483663E+04  0.23064483663E+04  0.00000000000E+00 0. -1.
         23    2    1    2    0    0  0.35862693157E+03 -0.88131092256E+02 -0.28835997150E+03  0.47729298808E+03  0.90976688434E+02 0.  0.
         11    1    3    3    0    0  0.18918993759E+03 -0.60143636613E+02 -0.20852245478E+03  0.28790919343E+03  0.00000000000E+00 0.  1.
        -11    1    3    3    0    0  0.16943699398E+03 -0.27987455643E+02 -0.79837516712E+02  0.18938379465E+03  0.00000000000E+00 0. -1.
         22    1    1    2    0    0 -0.35862693157E+03  0.88131092256E+02 -0.19058974617E+04  0.19413463112E+04  0.00000000000E+00 0. -1.
<mgrwt>
<rscale>  0 0.10173743E+04</rscale>
<asrwt>0</asrwt>
<pdfrwt beam="1">  1        2 0.35483820E+00 0.10173743E+04</pdfrwt>
<pdfrwt beam="2">  1       -2 0.17260144E-01 0.10173743E+04</pdfrwt>
<totfact> 0.12487362E+02</totfact>
</mgrwt>
</event>
<event>
 6    1  0.1762360E-005  0.1906669E+04  0.7818608E-02  0.8651544E-01
          1   -1    0    0  501    0  0.00000000000E+00  0.00000000000E+00  0.75988794515E+03  0.75988794515E+03  0.00000000000E+00 0. -1.
         -1   -1    0    0    0  501 -0.00000000000E+00 -0.00000000000E+00 -0.11960274179E+04  0.11960274179E+04  0.00000000000E+00 0.  1.
         23    2    1    2    0    0 -0.86399931540E+02  0.70452831540E+03 -0.86794225734E+03  0.11250852119E+04  0.93101431487E+02 0.  0.
         11    1    3    3    0    0 -0.28416363191E+02  0.48117046603E+03 -0.53652105411E+03  0.72124014626E+03  0.00000000000E+00 0. -1.
        -11    1    3    3    0    0 -0.57983568349E+02  0.22335784937E+03 -0.33142120324E+03  0.40384506562E+03  0.00000000000E+00 0.  1.
         22    1    1    2    0    0  0.86399931540E+02 -0.70452831540E+03  0.43180278457E+03  0.83083015119E+03  0.00000000000E+00 0. -1.
<mgrwt>
<rscale>  0 0.19066692E+04</rscale>
<asrwt>0</asrwt>
<pdfrwt beam="1">  1        1 0.11690584E+00 0.19066692E+04</pdfrwt>
<pdfrwt beam="2">  1       -1 0.18400422E+00 0.19066692E+04</pdfrwt>
<totfact> 0.43708968E+00</totfact>
</mgrwt>
</event>
<event>
 6    1  0.1762360E-005  0.2161742E+04  0.7818608E-02  0.8534523E-01
          1   -1    0    0  501    0  0.00000000000E+00  0.00000000000E+00  0.18621466245E+04  0.18621466245E+04  0.00000000000E+00 0. -1.
         -1   -1    0    0    0  501 -0.00000000000E+00 -0.00000000000E+00 -0.62738487650E+03  0.62738487650E+03  0.00000000000E+00 0.  1.
         23    2    1    2    0    0  0.79401142234E+03  0.72180123675E+03  0.49099619344E+03  0.11839135001E+04  0.95513085679E+02 0.  0.
         13    1    3    3    0    0  0.29438690593E+02  0.84745210604E+01  0.58438069671E+01  0.31186601143E+02  0.00000000000E+00 0. -1.
        -13    1    3    3    0    0  0.76457273175E+03  0.71332671569E+03  0.48515238647E+03  0.11527268989E+04  0.00000000000E+00 0.  1.
         22    1    1    2    0    0 -0.79401142234E+03 -0.72180123675E+03  0.74376555456E+03  0.13056180009E+04  0.00000000000E+00 0. -1.
<mgrwt>
<rscale>  0 0.21617425E+04</rscale>
<asrwt>0</asrwt>
<pdfrwt beam="1">  1        1 0.28648409E+00 0.21617425E+04</pdfrwt>
<pdfrwt beam="2">  1       -1 0.96520751E-01 0.21617425E+04</pdfrwt>
<totfact> 0.34928119E+00</totfact>
</mgrwt>
</event>
<event>
 6    1  0.1762360E-005  0.5174722E+03  0.7818608E-02  0.1009316E+00
          1   -1    0    0  501    0  0.00000000000E+00  0.00000000000E+00  0.30513150981E+04  0.30513150981E+04  0.00000000000E+00 0. -1.
         -1   -1    0    0    0  501 -0.00000000000E+00 -0.00000000000E+00 -0.21939516605E+02  0.21939516605E+02  0.00000000000E+00 0.  1.
         23    2    1    2    0    0  0.49416104502E+02 -0.23301952742E+03  0.20236084188E+04  0.20396649297E+04  0.92205970330E+02 0.  0.
         13    1    3    3    0    0  0.32840514945E+02 -0.23625184229E+03  0.18844288332E+04  0.18994645192E+04  0.00000000000E+00 0. -1.
        -13    1    3    3    0    0  0.16575589556E+02  0.32323148610E+01  0.13917958562E+03  0.14020041042E+03  0.00000000000E+00 0.  1.
         22    1    1    2    0    0 -0.49416104502E+02  0.23301952742E+03  0.10057671627E+04  0.10335896851E+04  0.00000000000E+00 0. -1.
<mgrwt>
<rscale>  0 0.51747223E+03</rscale>
<asrwt>0</asrwt>
<pdfrwt beam="1">  1        1 0.46943276E+00 0.51747223E+03</pdfrwt>
<pdfrwt beam="2">  1       -1 0.33753127E-02 0.51747223E+03</pdfrwt>
<totfact> 0.20168084E+02</totfact>
</mgrwt>
</event>
<event>
 6    1  0.1762360E-005  0.1021172E+04  0.7818608E-02  0.9285624E-01
         -1   -1    0    0    0  501 -0.00000000000E+00  0.00000000000E+00  0.36400466031E+03  0.36400466031E+03  0.00000000000E+00 0.  1.
          1   -1    0    0  501    0  0.00000000000E+00 -0.00000000000E+00 -0.71619464274E+03  0.71619464274E+03  0.00000000000E+00 0. -1.
         23    2    1    2    0    0  0.34721163187E+03  0.36890251244E+03 -0.18503296477E+03  0.54673285654E+03  0.89636138784E+02 0.  0.
         13    1    3    3    0    0  0.12932501340E+03  0.20243408139E+03 -0.90259765589E+02  0.25661516261E+03  0.00000000000E+00 0. -1.
        -13    1    3    3    0    0  0.21788661848E+03  0.16646843105E+03 -0.94773199182E+02  0.29011769393E+03  0.00000000000E+00 0.  1.
         22    1    1    2    0    0 -0.34721163187E+03 -0.36890251244E+03 -0.16715701766E+03  0.53346644650E+03  0.00000000000E+00 0. -1.
<mgrwt>
<rscale>  0 0.10211722E+04</rscale>
<asrwt>0</asrwt>
<pdfrwt beam="1">  1        1 0.11018379E+00 0.10211722E+04</pdfrwt>
<pdfrwt beam="2">  1       -1 0.56000718E-01 0.10211722E+04</pdfrwt>
<totfact> 0.84976604E+01</totfact>
</mgrwt>
</event>
<event>
 6    1  0.1762360E-005  0.3510724E+04  0.7818608E-02  0.8111253E-01
         -2   -1    0    0    0  501 -0.00000000000E+00  0.00000000000E+00  0.22474215062E+04  0.22474215062E+04  0.00000000000E+00 0.  1.
          2   -1    0    0  501    0  0.00000000000E+00 -0.00000000000E+00 -0.13710357951E+04  0.13710357951E+04  0.00000000000E+00 0. -1.
         23    2    1    2    0    0 -0.13161009993E+04 -0.11257370811E+04  0.15101853974E+03  0.17408089451E+04  0.90572446391E+02 0.  0.
         11    1    3    3    0    0 -0.96395281653E+03 -0.86316003723E+03  0.86331864892E+02  0.12968051023E+04  0.00000000000E+00 0. -1.
        -11    1    3    3    0    0 -0.35214818272E+03 -0.26257704390E+03  0.64686674849E+02  0.44400384287E+03  0.00000000000E+00 0.  1.
         22    1    1    2    0    0  0.13161009993E+04  0.11257370811E+04  0.72536717132E+03  0.18776483561E+04  0.00000000000E+00 0.  1.
<mgrwt>
<rscale>  0 0.35107238E+04</rscale>
<asrwt>0</asrwt>
<pdfrwt beam="1">  1        2 0.21092858E+00 0.35107238E+04</pdfrwt>
<pdfrwt beam="2">  1       -2 0.34575715E+00 0.35107238E+04</pdfrwt>
<totfact> 0.20416197E-01</totfact>
</mgrwt>
</event>
<event>
 6    1  0.1762360E-005  0.1614504E+04  0.7818608E-02  0.8811687E-01
         -2   -1    0    0    0  501 -0.00000000000E+00  0.00000000000E+00  0.72872333484E+03  0.72872333484E+03  0.00000000000E+00 0.  1.
          2   -1    0    0  501    0  0.00000000000E+00 -0.00000000000E+00 -0.89424351897E+03  0.89424351897E+03  0.00000000000E+00 0. -1.
         23    2    1    2    0    0  0.75208045881E+03  0.27316282059E+03  0.35973032137E+01  0.80513822409E+03  0.89396175707E+02 0.  0.
         13    1    3    3    0    0  0.37049669701E+03  0.12418354393E+03 -0.41850499822E+02  0.39298959199E+03  0.00000000000E+00 0.  1.
        -13    1    3    3    0    0  0.38158376179E+03  0.14897927666E+03  0.45447803036E+02  0.41214863210E+03  0.00000000000E+00 0. -1.
         22    1    1    2    0    0 -0.75208045881E+03 -0.27316282059E+03 -0.16911748734E+03  0.81782862972E+03  0.00000000000E+00 0. -1.
<mgrwt>
<rscale>  0 0.16145044E+04</rscale>
<asrwt>0</asrwt>
<pdfrwt beam="1">  1        2 0.13757593E+00 0.16145044E+04</pdfrwt>
<pdfrwt beam="2">  1       -2 0.11211128E+00 0.16145044E+04</pdfrwt>
<totfact> 0.17781528E+01</totfact>
</mgrwt>
</event>
<event>
 6    1  0.1762360E-005  0.5862921E+03  0.7818608E-02  0.9934261E-01
         -4   -1    0    0    0  501 -0.00000000000E+00  0.00000000000E+00  0.50488624294E+03  0.50488624294E+03  0.00000000000E+00 0.  1.
          4   -1    0    0  501    0  0.00000000000E+00 -0.00000000000E+00 -0.17020586562E+03  0.17020586562E+03  0.00000000000E+00 0. -1.
         23    2    1    2    0    0  0.24068315149E+03 -0.46766605711E+02  0.33779217103E+03  0.42988774873E+03  0.10288066329E+03 0.  0.
         11    1    3    3    0    0  0.17437737211E+03  0.14990365938E+02  0.21339787402E+03  0.27599063682E+03  0.00000000000E+00 0. -1.
        -11    1    3    3    0    0  0.66305779374E+02 -0.61756971648E+02  0.12439429701E+03  0.15389711191E+03  0.00000000000E+00 0.  1.
         22    1    1    2    0    0 -0.24068315149E+03  0.46766605711E+02 -0.31117937194E+01  0.24520435983E+03  0.00000000000E+00 0. -1.
<mgrwt>
<rscale>  0 0.58629208E+03</rscale>
<asrwt>0</asrwt>
<pdfrwt beam="1">  1        4 0.26185518E-01 0.58629208E+03</pdfrwt>
<pdfrwt beam="2">  1       -4 0.77674806E-01 0.58629208E+03</pdfrwt>
<totfact> 0.40795427E+01</totfact>
</mgrwt>
</event>
<event>
 6    1  0.1762360E-005  0.2090246E+04  0.7818608E-02  0.8565552E-01
         -1   -1    0    0    0  501 -0.00000000000E+00  0.00000000000E+00  0.52339005169E+03  0.52339005169E+03  0.00000000000E+00 0.  1.
          1   -1    0    0  501    0  0.00000000000E+00 -0.00000000000E+00 -0.20869375494E+04  0.20869375494E+04  0.00000000000E+00 0. -1.
         23    2    1    2    0    0 -0.84307572060E+03  0.26501787276E+03 -0.90970320009E+02  0.89291830573E+03  0.89534116526E+02 0.  0.
         11    1    3    3    0    0 -0.38316218505E+03  0.14987948146E+03 -0.73819078501E+01  0.41149922428E+03  0.00000000000E+00 0. -1.
        -11    1    3    3    0    0 -0.45991353555E+03  0.11513839129E+03 -0.83588412158E+02  0.48141908145E+03  0.00000000000E+00 0.  1.
         22    1    1    2    0    0  0.84307572060E+03 -0.26501787276E+03 -0.14725771777E+04  0.17174092954E+04  0.00000000000E+00 0. -1.
<mgrwt>
<rscale>  0 0.20902463E+04</rscale>
<asrwt>0</asrwt>
<pdfrwt beam="1">  1        1 0.32106731E+00 0.20902463E+04</pdfrwt>
<pdfrwt beam="2">  1       -1 0.80521547E-01 0.20902463E+04</pdfrwt>
<totfact> 0.36828956E+00</totfact>
</mgrwt>
</event>
<event>
 6    1  0.1762360E-005  0.1713242E+04  0.7818608E-02  0.8753848E-01
          1   -1    0    0  501    0  0.00000000000E+00  0.00000000000E+00  0.18513918089E+04  0.18513918089E+04  0.00000000000E+00 0. -1.
         -1   -1    0    0    0  501 -0.00000000000E+00 -0.00000000000E+00 -0.39635006881E+03  0.39635006881E+03  0.00000000000E+00 0.  1.
         23    2    1    2    0    0  0.65092266101E+03  0.54981482250E+03  0.65087342524E+03  0.10761261863E+04  0.91731693229E+02 0.  0.
         11    1    3    3    0    0  0.26638642518E+03  0.20966063731E+03  0.31399691738E+03  0.46207507451E+03  0.00000000000E+00 0. -1.
        -11    1    3    3    0    0  0.38453623583E+03  0.34015418520E+03  0.33687650786E+03  0.61405111182E+03  0.00000000000E+00 0.  1.
         22    1    1    2    0    0 -0.65092266101E+03 -0.54981482250E+03  0.80416831481E+03  0.11716156913E+04  0.00000000000E+00 0. -1.
<mgrwt>
<rscale>  0 0.17132417E+04</rscale>
<asrwt>0</asrwt>
<pdfrwt beam="1">  1        1 0.28482951E+00 0.17132417E+04</pdfrwt>
<pdfrwt beam="2">  1       -1 0.60976934E-01 0.17132417E+04</pdfrwt>
<totfact> 0.97473329E+00</totfact>
</mgrwt>
</event>
<event>
 6    1  0.1762360E-005  0.2397719E+04  0.7818608E-02  0.8440358E-01
          2   -1    0    0  501    0  0.00000000000E+00  0.00000000000E+00  0.23103543022E+04  0.23103543022E+04  0.00000000000E+00 0. -1.
         -2   -1    0    0    0  501 -0.00000000000E+00 -0.00000000000E+00 -0.62209669554E+03  0.62209669554E+03  0.00000000000E+00 0.  1.
         23    2    1    2    0    0 -0.60843248051E+03  0.90565929112E+03  0.14476308983E+04  0.18151730343E+04  0.93856762121E+02 0.  0.
         11    1    3    3    0    0 -0.59642712967E+03  0.86528493991E+03  0.13678042928E+04  0.17249150506E+04  0.00000000000E+00 0. -1.
        -11    1    3    3    0    0 -0.12005350845E+02  0.40374351217E+02  0.79826605423E+02  0.90257983683E+02  0.00000000000E+00 0.  1.
         22    1    1    2    0    0  0.60843248051E+03 -0.90565929112E+03  0.24062670844E+03  0.11172779635E+04  0.00000000000E+00 0.  1.
<mgrwt>
<rscale>  0 0.23977187E+04</rscale>
<asrwt>0</asrwt>
<pdfrwt beam="1">  1        2 0.35543912E+00 0.23977187E+04</pdfrwt>
<pdfrwt beam="2">  1       -2 0.95707186E-01 0.23977187E+04</pdfrwt>
<totfact> 0.36840871E+00</totfact>
</mgrwt>
</event>
<event>
 6    1  0.1762360E-005  0.1413867E+04  0.7818608E-02  0.8943842E-01
          2   -1    0    0  501    0  0.00000000000E+00  0.00000000000E+00  0.24259339606E+04  0.24259339606E+04  0.00000000000E+00 0. -1.
         -2   -1    0    0    0  501 -0.00000000000E+00 -0.00000000000E+00 -0.20600504904E+03  0.20600504904E+03  0.00000000000E+00 0.  1.
         23    2    1    2    0    0  0.59227334707E+03  0.12355863053E+03  0.44447657488E+03  0.75622968976E+03  0.90936600009E+02 0.  0.
         13    1    3    3    0    0  0.45990874592E+03  0.57366509954E+02  0.34780070667E+03  0.57945862889E+03  0.00000000000E+00 0. -1.
        -13    1    3    3    0    0  0.13236460115E+03  0.66192120579E+02  0.96675868211E+02  0.17677106087E+03  0.00000000000E+00 0.  1.
         22    1    1    2    0    0 -0.59227334707E+03 -0.12355863053E+03  0.17754523367E+04  0.18757093199E+04  0.00000000000E+00 0. -1.
<mgrwt>
<rscale>  0 0.14138665E+04</rscale>
<asrwt>0</asrwt>
<pdfrwt beam="1">  1        2 0.37322059E+00 0.14138665E+04</pdfrwt>
<pdfrwt beam="2">  1       -2 0.31693086E-01 0.14138665E+04</pdfrwt>
<totfact> 0.34655249E+01</totfact>
</mgrwt>
</event>
<event>
 6    1  0.1762360E-005  0.3367115E+04  0.7818608E-02  0.8146025E-01
         -2   -1    0    0    0  501 -0.00000000000E+00  0.00000000000E+00  0.59966697135E+03  0.59966697135E+03  0.00000000000E+00 0.  1.
          2   -1    0    0  501    0  0.00000000000E+00 -0.00000000000E+00 -0.47265654044E+04  0.47265654044E+04  0.00000000000E+00 0. -1.
         23    2    1    2    0    0  0.13095037940E+04  0.88157426329E+03 -0.29849117910E+04  0.33778723323E+04  0.91376831346E+02 0.  0.
         11    1    3    3    0    0  0.85518675250E+03  0.62593600811E+03 -0.20230094590E+04  0.22837923590E+04  0.00000000000E+00 0. -1.
        -11    1    3    3    0    0  0.45431704150E+03  0.25563825518E+03 -0.96190233201E+03  0.10940799733E+04  0.00000000000E+00 0.  1.
         22    1    1    2    0    0 -0.13095037940E+04 -0.88157426329E+03 -0.11419866421E+04  0.19483600434E+04  0.00000000000E+00 0.  1.
<mgrwt>
<rscale>  0 0.33671146E+04</rscale>
<asrwt>0</asrwt>
<pdfrwt beam="1">  1        2 0.72716394E+00 0.33671146E+04</pdfrwt>
<pdfrwt beam="2">  1       -2 0.92256454E-01 0.33671146E+04</pdfrwt>
<totfact> 0.59247876E-02</totfact>
</mgrwt>
</event>
<event>
 6    1  0.1762360E-005  0.1125497E+04  0.7818608E-02  0.9180691E-01
         -1   -1    0    0    0  501 -0.00000000000E+00  0.00000000000E+00  0.71353515198E+03  0.71353515198E+03  0.00000000000E+00 0.  1.
          1   -1    0    0  501    0  0.00000000000E+00 -0.00000000000E+00 -0.44382682352E+03  0.44382682352E+03  0.00000000000E+00 0. -1.
         23    2    1    2    0    0 -0.26724503176E+03 -0.34861479771E+03  0.49154712308E+03  0.66525971480E+03  0.89441208346E+02 0.  0.
         13    1    3    3    0    0 -0.24367596690E+03 -0.32843684554E+03  0.41490734662E+03  0.58257775844E+03  0.00000000000E+00 0. -1.
        -13    1    3    3    0    0 -0.23569064862E+02 -0.20177952174E+02  0.76639776459E+02  0.82681956363E+02  0.00000000000E+00 0.  1.
         22    1    1    2    0    0  0.26724503176E+03  0.34861479771E+03 -0.22183879462E+03  0.49210226070E+03  0.00000000000E+00 0. -1.
<mgrwt>
<rscale>  0 0.11254973E+04</rscale>
<asrwt>0</asrwt>
<pdfrwt beam="1">  1        1 0.68281050E-01 0.11254973E+04</pdfrwt>
<pdfrwt beam="2">  1       -1 0.10977464E+00 0.11254973E+04</pdfrwt>
<totfact> 0.39822790E+01</totfact>
</mgrwt>
</event>
<event>
 6    1  0.1762360E-005  0.1529495E+04  0.7818608E-02  0.8865073E-01
         -2   -1    0    0    0  501 -0.00000000000E+00  0.00000000000E+00  0.46501211647E+03  0.46501211647E+03  0.00000000000E+00 0. -1.
          2   -1    0    0  501    0  0.00000000000E+00 -0.00000000000E+00 -0.12576849942E+04  0.12576849942E+04  0.00000000000E+00 0.  1.
         23    2    1    2    0    0 -0.36567922824E+03  0.59969606140E+03 -0.73078917465E+03  0.10175827535E+04  0.89806338427E+02 0.  0.
         13    1    3    3    0    0 -0.25345513555E+03  0.48701933054E+03 -0.57206774942E+03  0.79289901247E+03  0.00000000000E+00 0.  1.
        -13    1    3    3    0    0 -0.11222409268E+03  0.11267673086E+03 -0.15872142523E+03  0.22468374103E+03  0.00000000000E+00 0. -1.
         22    1    1    2    0    0  0.36567922824E+03 -0.59969606140E+03 -0.61883703121E+02  0.70511435720E+03  0.00000000000E+00 0. -1.
<mgrwt>
<rscale>  0 0.15294950E+04</rscale>
<asrwt>0</asrwt>
<pdfrwt beam="1">  1        2 0.19349000E+00 0.15294950E+04</pdfrwt>
<pdfrwt beam="2">  1       -2 0.71540327E-01 0.15294950E+04</pdfrwt>
<totfact> 0.29909318E+01</totfact>
</mgrwt>
</event>
<event>
 6    1  0.1762360E-005  0.4172266E+04  0.7818608E-02  0.7970669E-01
         -1   -1    0    0    0  501 -0.00000000000E+00  0.00000000000E+00  0.11288630125E+04  0.11288630125E+04  0.00000000000E+00 0.  1.
          1   -1    0    0  501    0  0.00000000000E+00 -0.00000000000E+00 -0.38551638901E+04  0.38551638901E+04  0.00000000000E+00 0. -1.
         23    2    1    2    0    0 -0.78968225050E+03  0.12056879756E+04 -0.31638168512E+04  0.34778058768E+04  0.90083836278E+02 0.  0.
         13    1    3    3    0    0 -0.39428802186E+03  0.60007098899E+03 -0.14677294657E+04  0.16339455378E+04  0.00000000000E+00 0. -1.
        -13    1    3    3    0    0 -0.39539422864E+03  0.60561698656E+03 -0.16960873855E+04  0.18438603390E+04  0.00000000000E+00 0.  1.
         22    1    1    2    0    0  0.78968225050E+03 -0.12056879756E+04  0.43751597363E+03  0.15062210257E+04  0.00000000000E+00 0.  1.
<mgrwt>
<rscale>  0 0.41722665E+04</rscale>
<asrwt>0</asrwt>
<pdfrwt beam="1">  1        1 0.59310216E+00 0.41722665E+04</pdfrwt>
<pdfrwt beam="2">  1       -1 0.17367123E+00 0.41722665E+04</pdfrwt>
<totfact> 0.22790331E-02</totfact>
</mgrwt>
</event>
<event>
 6    1  0.1762360E-005  0.2304788E+04  0.7818608E-02  0.8476036E-01
         -1   -1    0    0    0  501 -0.00000000000E+00  0.00000000000E+00  0.11043458651E+04  0.11043458651E+04  0.00000000000E+00 0.  1.
          1   -1    0    0  501    0  0.00000000000E+00 -0.00000000000E+00 -0.12025324565E+04  0.12025324565E+04  0.00000000000E+00 0. -1.
         23    2    1    2    0    0 -0.10713101630E+04  0.41832677576E+03 -0.16175473969E+02  0.11538698307E+04  0.91930318730E+02 0.  0.
         11    1    3    3    0    0 -0.31082444226E+03  0.16397557981E+03 -0.19558697236E+02  0.35196927041E+03  0.00000000000E+00 0.  1.
        -11    1    3    3    0    0 -0.76048572075E+03  0.25435119595E+03  0.33832232674E+01  0.80190056026E+03  0.00000000000E+00 0. -1.
         22    1    1    2    0    0  0.10713101630E+04 -0.41832677576E+03 -0.82011117425E+02  0.11530084909E+04  0.00000000000E+00 0. -1.
<mgrwt>
<rscale>  0 0.23047878E+04</rscale>
<asrwt>0</asrwt>
<pdfrwt beam="1">  1        1 0.18500499E+00 0.23047878E+04</pdfrwt>
<pdfrwt beam="2">  1       -1 0.16989936E+00 0.23047878E+04</pdfrwt>
<totfact> 0.23697245E+00</totfact>
</mgrwt>
</event>
<event>
 6    1  0.1762360E-005  0.1173143E+04  0.7818608E-02  0.9136695E-01
          1   -1    0    0  501    0  0.00000000000E+00  0.00000000000E+00  0.40010217086E+03  0.40010217086E+03  0.00000000000E+00 0. -1.
         -1   -1    0    0    0  501 -0.00000000000E+00 -0.00000000000E+00 -0.85994513077E+03  0.85994513077E+03  0.00000000000E+00 0.  1.
         23    2    1    2    0    0  0.22147505960E+03  0.53688334404E+03 -0.17727427572E+03  0.61418354788E+03  0.92197258699E+02 0.  0.
         13    1    3    3    0    0  0.16517268465E+03  0.29937724093E+03 -0.12850925836E+03  0.36527164908E+03  0.00000000000E+00 0.  1.
        -13    1    3    3    0    0  0.56302374954E+02  0.23750610311E+03 -0.48765017362E+02  0.24891189879E+03  0.00000000000E+00 0. -1.
         22    1    1    2    0    0 -0.22147505960E+03 -0.53688334404E+03 -0.28256868418E+03  0.64586375376E+03  0.00000000000E+00 0. -1.
<mgrwt>
<rscale>  0 0.11731426E+04</rscale>
<asrwt>0</asrwt>
<pdfrwt beam="1">  1        1 0.61554180E-01 0.11731426E+04</pdfrwt>
<pdfrwt beam="2">  1       -1 0.13229925E+00 0.11731426E+04</pdfrwt>
<totfact> 0.28855103E+01</totfact>
</mgrwt>
</event>
<event>
 6    1  0.1762360E-005  0.1643263E+04  0.7818608E-02  0.8794402E-01
          2   -1    0    0  501    0  0.00000000000E+00  0.00000000000E+00  0.16176087273E+04  0.16176087273E+04  0.00000000000E+00 0. -1.
         -2   -1    0    0    0  501 -0.00000000000E+00 -0.00000000000E+00 -0.41733084838E+03  0.41733084838E+03  0.00000000000E+00 0.  1.
         23    2    1    2    0    0  0.27933432970E+03  0.76851189240E+03  0.63863272202E+03  0.10429297578E+04  0.10588923245E+03 0.  0.
         11    1    3    3    0    0  0.20232730423E+03  0.45246807754E+03  0.33740546527E+03  0.59958831478E+03  0.00000000000E+00 0.  1.
        -11    1    3    3    0    0  0.77007025469E+02  0.31604381487E+03  0.30122725675E+03  0.44334144302E+03  0.00000000000E+00 0. -1.
         22    1    1    2    0    0 -0.27933432970E+03 -0.76851189240E+03  0.56164515693E+03  0.99200981791E+03  0.00000000000E+00 0.  1.
<mgrwt>
<rscale>  0 0.16432626E+04</rscale>
<asrwt>0</asrwt>
<pdfrwt beam="1">  1        2 0.24886288E+00 0.16432626E+04</pdfrwt>
<pdfrwt beam="2">  1       -2 0.64204747E-01 0.16432626E+04</pdfrwt>
<totfact> 0.23354345E+01</totfact>
</mgrwt>
</event>
<event>
 6    1  0.1762360E-005  0.1790508E+04  0.7818608E-02  0.8711364E-01
          2   -1    0    0  501    0  0.00000000000E+00  0.00000000000E+00  0.22453569592E+04  0.22453569592E+04  0.00000000000E+00 0.  1.
         -2   -1    0    0    0  501 -0.00000000000E+00 -0.00000000000E+00 -0.35694969067E+03  0.35694969067E+03  0.00000000000E+00 0. -1.
         23    2    1    2    0    0  0.45152564710E+02 -0.78558916765E+03  0.15602057181E+04  0.17497192044E+04  0.89923951788E+02 0.  0.
         11    1    3    3    0    0  0.62053231668E+02 -0.58290088126E+03  0.12158374884E+04  0.13497721434E+04  0.00000000000E+00 0. -1.
        -11    1    3    3    0    0 -0.16900666958E+02 -0.20268828640E+03  0.34436822969E+03  0.39994706100E+03  0.00000000000E+00 0.  1.
         22    1    1    2    0    0 -0.45152564710E+02  0.78558916765E+03  0.32820155044E+03  0.85258744546E+03  0.00000000000E+00 0. -1.
<mgrwt>
<rscale>  0 0.17905077E+04</rscale>
<asrwt>0</asrwt>
<pdfrwt beam="1">  1        2 0.34543952E+00 0.17905077E+04</pdfrwt>
<pdfrwt beam="2">  1       -2 0.54915339E-01 0.17905077E+04</pdfrwt>
<totfact> 0.14352030E+01</totfact>
</mgrwt>
</event>
<event>
 6    1  0.1762360E-005  0.5088777E+04  0.7818608E-02  0.7814957E-01
          2   -1    0    0  501    0  0.00000000000E+00  0.00000000000E+00  0.25121942888E+04  0.25121942888E+04  0.00000000000E+00 0. -1.
         -2   -1    0    0    0  501 -0.00000000000E+00 -0.00000000000E+00 -0.25769947903E+04  0.25769947903E+04  0.00000000000E+00 0.  1.
         23    2    1    2    0    0  0.35637216774E+02 -0.12743116130E+04 -0.22334575783E+04  0.25735949913E+04  0.99590795402E+02 0.  0.
         13    1    3    3    0    0  0.64940147908E+02 -0.11015719566E+04 -0.19290286457E+04  0.22223477483E+04  0.00000000000E+00 0. -1.
        -13    1    3    3    0    0 -0.29302931134E+02 -0.17273965637E+03 -0.30442893265E+03  0.35124724296E+03  0.00000000000E+00 0.  1.
         22    1    1    2    0    0 -0.35637216774E+02  0.12743116130E+04  0.21686570768E+04  0.25155940879E+04  0.00000000000E+00 0. -1.
<mgrwt>
<rscale>  0 0.50887765E+04</rscale>
<asrwt>0</asrwt>
<pdfrwt beam="1">  1        2 0.38649143E+00 0.50887765E+04</pdfrwt>
<pdfrwt beam="2">  1       -2 0.39646074E+00 0.50887765E+04</pdfrwt>
<totfact> 0.19395854E-02</totfact>
</mgrwt>
</event>
<event>
 6    1  0.1762360E-005  0.4904955E+04  0.7818608E-02  0.7843338E-01
          2   -1    0    0  501    0  0.00000000000E+00  0.00000000000E+00  0.43467647597E+04  0.43467647597E+04  0.00000000000E+00 0. -1.
         -2   -1    0    0    0  501 -0.00000000000E+00 -0.00000000000E+00 -0.13837062327E+04  0.13837062327E+04  0.00000000000E+00 0.  1.
         23    2    1    2    0    0 -0.19632654882E+04 -0.27591336351E+03 -0.20199031545E+03  0.19957589906E+04  0.10823261933E+03 0.  0.
         13    1    3    3    0    0 -0.11514067830E+04 -0.16121371620E+03 -0.17197772600E+03  0.11752888073E+04  0.00000000000E+00 0. -1.
        -13    1    3    3    0    0 -0.81185870516E+03 -0.11469964730E+03 -0.30012589457E+02  0.82047018335E+03  0.00000000000E+00 0.  1.
         22    1    1    2    0    0  0.19632654882E+04  0.27591336351E+03  0.31650488424E+04  0.37347120017E+04  0.00000000000E+00 0. -1.
<mgrwt>
<rscale>  0 0.49049548E+04</rscale>
<asrwt>0</asrwt>
<pdfrwt beam="1">  1        2 0.66873303E+00 0.49049548E+04</pdfrwt>
<pdfrwt beam="2">  1       -2 0.21287788E+00 0.49049548E+04</pdfrwt>
<totfact> 0.13735945E-02</totfact>
</mgrwt>
</event>
<event>
 6    1  0.1762360E-005  0.3094102E+04  0.7818608E-02  0.8217358E-01
         -2   -1    0    0    0  501 -0.00000000000E+00  0.00000000000E+00  0.10082630816E+04  0.10082630816E+04  0.00000000000E+00 0. -1.
          2   -1    0    0  501    0  0.00000000000E+00 -0.00000000000E+00 -0.23737525426E+04  0.23737525426E+04  0.00000000000E+00 0.  1.
         23    2    1    2    0    0  0.44607340420E+03 -0.82897117923E+03 -0.20233783364E+04  0.22335416496E+04  0.92052758275E+02 0.  0.
         11    1    3    3    0    0  0.14343905479E+03 -0.35768529053E+03 -0.79311500335E+03  0.88178508608E+03  0.00000000000E+00 0. -1.
        -11    1    3    3    0    0  0.30263434941E+03 -0.47128588869E+03 -0.12302633331E+04  0.13517565635E+04  0.00000000000E+00 0.  1.
         22    1    1    2    0    0 -0.44607340420E+03  0.82897117923E+03  0.65788887544E+03  0.11484739746E+04  0.00000000000E+00 0. -1.
<mgrwt>
<rscale>  0 0.30941022E+04</rscale>
<asrwt>0</asrwt>
<pdfrwt beam="1">  1        2 0.36519270E+00 0.30941022E+04</pdfrwt>
<pdfrwt beam="2">  1       -2 0.15511740E+00 0.30941022E+04</pdfrwt>
<totfact> 0.95763306E-01</totfact>
</mgrwt>
</event>
<event>
 6    1  0.1762360E-005  0.2217037E+04  0.7818608E-02  0.8511370E-01
          1   -1    0    0  501    0  0.00000000000E+00  0.00000000000E+00  0.78857305298E+03  0.78857305298E+03  0.00000000000E+00 0. -1.
         -1   -1    0    0    0  501 -0.00000000000E+00 -0.00000000000E+00 -0.15582750165E+04  0.15582750165E+04  0.00000000000E+00 0.  1.
         23    2    1    2    0    0  0.68573641531E+03 -0.34602981930E+03  0.45784917833E+03  0.89879666397E+03  0.90766215868E+02 0.  0.
         13    1    3    3    0    0  0.42310124528E+03 -0.21050583049E+03  0.33220740658E+03  0.57765831545E+03  0.00000000000E+00 0. -1.
        -13    1    3    3    0    0  0.26263517004E+03 -0.13552398881E+03  0.12564177175E+03  0.32113834852E+03  0.00000000000E+00 0.  1.
         22    1    1    2    0    0 -0.68573641531E+03  0.34602981930E+03 -0.12275511418E+04  0.14480514055E+04  0.00000000000E+00 0.  1.
<mgrwt>
<rscale>  0 0.22170374E+04</rscale>
<asrwt>0</asrwt>
<pdfrwt beam="1">  1        1 0.12131893E+00 0.22170374E+04</pdfrwt>
<pdfrwt beam="2">  1       -1 0.23973462E+00 0.22170374E+04</pdfrwt>
<totfact> 0.16765259E+00</totfact>
</mgrwt>
</event>
<event>
 6    1  0.1762360E-005  0.5079880E+04  0.7818608E-02  0.7816302E-01
          2   -1    0    0  501    0  0.00000000000E+00  0.00000000000E+00  0.22629609890E+04  0.22629609890E+04  0.00000000000E+00 0. -1.
         -2   -1    0    0    0  501 -0.00000000000E+00 -0.00000000000E+00 -0.28508200060E+04  0.28508200060E+04  0.00000000000E+00 0.  1.
         23    2    1    2    0    0  0.20124392784E+03 -0.16770973086E+04  0.16144529350E+04  0.23382932116E+04  0.89455927897E+02 0.  0.
         11    1    3    3    0    0  0.12772118563E+03 -0.11665168829E+04  0.10662442392E+04  0.15855444229E+04  0.00000000000E+00 0. -1.
        -11    1    3    3    0    0  0.73522742213E+02 -0.51058042573E+03  0.54820869585E+03  0.75274878875E+03  0.00000000000E+00 0.  1.
         22    1    1    2    0    0 -0.20124392784E+03  0.16770973086E+04 -0.22023119520E+04  0.27754877833E+04  0.00000000000E+00 0.  1.
<mgrwt>
<rscale>  0 0.50798797E+04</rscale>
<asrwt>0</asrwt>
<pdfrwt beam="1">  1        2 0.34814785E+00 0.50798797E+04</pdfrwt>
<pdfrwt beam="2">  1       -2 0.43858769E+00 0.50798797E+04</pdfrwt>
<totfact> 0.14249804E-02</totfact>
</mgrwt>
</event>
<event>
 6    1  0.1762360E-005  0.4028238E+03  0.7818608E-02  0.1042806E+00
         -1   -1    0    0    0  501 -0.00000000000E+00  0.00000000000E+00  0.51243606566E+02  0.51243606566E+02  0.00000000000E+00 0.  1.
          1   -1    0    0  501    0  0.00000000000E+00 -0.00000000000E+00 -0.79164503268E+03  0.79164503268E+03  0.00000000000E+00 0. -1.
         23    2    1    2    0    0 -0.34938844454E+02 -0.61743792225E+02 -0.76036725272E+03  0.76918889052E+03  0.91979190967E+02 0.  0.
         11    1    3    3    0    0  0.16037128501E+02 -0.63132889368E+02 -0.43474607565E+03  0.43959879607E+03  0.00000000000E+00 0. -1.
        -11    1    3    3    0    0 -0.50975972955E+02  0.13890971430E+01 -0.32562117706E+03  0.32959009445E+03  0.00000000000E+00 0.  1.
         22    1    1    2    0    0  0.34938844454E+02  0.61743792225E+02  0.19965826601E+02  0.73699748724E+02  0.00000000000E+00 0.  1.
<mgrwt>
<rscale>  0 0.40282377E+03</rscale>
<asrwt>0</asrwt>
<pdfrwt beam="1">  1        1 0.12179153E+00 0.40282377E+03</pdfrwt>
<pdfrwt beam="2">  1       -1 0.78836325E-02 0.40282377E+03</pdfrwt>
<totfact> 0.20676138E+03</totfact>
</mgrwt>
</event>
<event>
 6    1  0.1762360E-005  0.1667356E+04  0.7818608E-02  0.8780205E-01
         -2   -1    0    0    0  501 -0.00000000000E+00  0.00000000000E+00  0.14762704320E+04  0.14762704320E+04  0.00000000000E+00 0. -1.
          2   -1    0    0  501    0  0.00000000000E+00 -0.00000000000E+00 -0.47079382984E+03  0.47079382984E+03  0.00000000000E+00 0.  1.
         23    2    1    2    0    0  0.61049979516E+03 -0.54284683342E+03  0.32572147796E+03  0.88430384043E+03  0.92228610232E+02 0.  0.
         13    1    3    3    0    0  0.14807959205E+03 -0.95230810117E+02  0.42216983259E+02  0.18104901671E+03  0.00000000000E+00 0. -1.
        -13    1    3    3    0    0  0.46242020311E+03 -0.44761602330E+03  0.28350449470E+03  0.70325482371E+03  0.00000000000E+00 0.  1.
         22    1    1    2    0    0 -0.61049979516E+03  0.54284683342E+03  0.67975512420E+03  0.10627604214E+04  0.00000000000E+00 0. -1.
<mgrwt>
<rscale>  0 0.16673560E+04</rscale>
<asrwt>0</asrwt>
<pdfrwt beam="1">  1        2 0.72429821E-01 0.16673560E+04</pdfrwt>
<pdfrwt beam="2">  1       -2 0.22711853E+00 0.16673560E+04</pdfrwt>
<totfact> 0.56111751E+00</totfact>
</mgrwt>
</event>
<event>
 6    1  0.1762360E-005  0.2041128E+04  0.7818608E-02  0.8587630E-01
          1   -1    0    0  501    0  0.00000000000E+00  0.00000000000E+00  0.87469804793E+03  0.87469804793E+03  0.00000000000E+00 0. -1.
         -1   -1    0    0    0  501 -0.00000000000E+00 -0.00000000000E+00 -0.11907547921E+04  0.11907547921E+04  0.00000000000E+00 0.  1.
         23    2    1    2    0    0 -0.29028011762E+03 -0.17864860606E+03 -0.11295012896E+04  0.11834835098E+04  0.93178235966E+02 0.  0.
         13    1    3    3    0    0 -0.56010614404E+02 -0.35988249878E+01 -0.26430703410E+03  0.27020057132E+03  0.00000000000E+00 0.  1.
        -13    1    3    3    0    0 -0.23426950322E+03 -0.17504978107E+03 -0.86519425549E+03  0.91328293849E+03  0.00000000000E+00 0. -1.
         22    1    1    2    0    0  0.29028011762E+03  0.17864860606E+03  0.81344454538E+03  0.88196933027E+03  0.00000000000E+00 0. -1.
<mgrwt>
<rscale>  0 0.20411280E+04</rscale>
<asrwt>0</asrwt>
<pdfrwt beam="1">  1        1 0.13456893E+00 0.20411280E+04</pdfrwt>
<pdfrwt beam="2">  1       -1 0.18319304E+00 0.20411280E+04</pdfrwt>
<totfact> 0.34847154E+00</totfact>
</mgrwt>
</event>
<event>
 6    1  0.1762360E-005  0.2910309E+04  0.7818608E-02  0.8269817E-01
          2   -1    0    0  501    0  0.00000000000E+00  0.00000000000E+00  0.14178566773E+04  0.14178566773E+04  0.00000000000E+00 0. -1.
         -2   -1    0    0    0  501 -0.00000000000E+00 -0.00000000000E+00 -0.14934332688E+04  0.14934332688E+04  0.00000000000E+00 0.  1.
         23    2    1    2    0    0  0.12430775328E+04  0.53941976988E+03  0.48928369240E+03  0.14432018762E+04  0.84956948731E+02 0.  0.
         11    1    3    3    0    0  0.69473435860E+03  0.34710274993E+03  0.28394203705E+03  0.82689735060E+03  0.00000000000E+00 0. -1.
        -11    1    3    3    0    0  0.54834317421E+03  0.19231701995E+03  0.20534165536E+03  0.61630452561E+03  0.00000000000E+00 0.  1.
         22    1    1    2    0    0 -0.12430775328E+04 -0.53941976988E+03 -0.56486028392E+03  0.14680880699E+04  0.00000000000E+00 0.  1.
<mgrwt>
<rscale>  0 0.29103088E+04</rscale>
<asrwt>0</asrwt>
<pdfrwt beam="1">  1        2 0.21813180E+00 0.29103088E+04</pdfrwt>
<pdfrwt beam="2">  1       -2 0.22975896E+00 0.29103088E+04</pdfrwt>
<totfact> 0.10457653E+00</totfact>
</mgrwt>
</event>
<event>
 6    1  0.1762360E-005  0.7760001E+03  0.7818608E-02  0.9595421E-01
          1   -1    0    0  501    0  0.00000000000E+00  0.00000000000E+00  0.41682521961E+03  0.41682521961E+03  0.00000000000E+00 0. -1.
         -1   -1    0    0    0  501 -0.00000000000E+00 -0.00000000000E+00 -0.36116829735E+03  0.36116829735E+03  0.00000000000E+00 0.  1.
         23    2    1    2    0    0  0.42762030398E+02  0.11743829354E+03 -0.33474691695E+03  0.36807218095E+03  0.88324899934E+02 0.  0.
         11    1    3    3    0    0  0.44420261638E+02  0.14538651997E+02 -0.14312771423E+03  0.15056584814E+03  0.00000000000E+00 0. -1.
        -11    1    3    3    0    0 -0.16582312394E+01  0.10289964155E+03 -0.19161920272E+03  0.21750633281E+03  0.00000000000E+00 0.  1.
         22    1    1    2    0    0 -0.42762030398E+02 -0.11743829354E+03  0.39040383922E+03  0.40992133600E+03  0.00000000000E+00 0. -1.
<mgrwt>
<rscale>  0 0.77600014E+03</rscale>
<asrwt>0</asrwt>
<pdfrwt beam="1">  1        1 0.64126957E-01 0.77600014E+03</pdfrwt>
<pdfrwt beam="2">  1       -1 0.55564354E-01 0.77600014E+03</pdfrwt>
<totfact> 0.18831061E+02</totfact>
</mgrwt>
</event>
<event>
 6    1  0.1762360E-005  0.1059360E+04  0.7818608E-02  0.9245734E-01
         -2   -1    0    0    0  501 -0.00000000000E+00  0.00000000000E+00  0.38469423172E+03  0.38469423172E+03  0.00000000000E+00 0.  1.
          2   -1    0    0  501    0  0.00000000000E+00 -0.00000000000E+00 -0.72930842113E+03  0.72930842113E+03  0.00000000000E+00 0. -1.
         23    2    1    2    0    0  0.42031557835E+03  0.58710382775E+02 -0.49987885558E+03  0.66209645571E+03  0.91546447076E+02 0.  0.
         13    1    3    3    0    0  0.26333258378E+03 -0.69941717016E+01 -0.31987458050E+03  0.41438232994E+03  0.00000000000E+00 0.  1.
        -13    1    3    3    0    0  0.15698299456E+03  0.65704554476E+02 -0.18000427508E+03  0.24771412577E+03  0.00000000000E+00 0. -1.
         22    1    1    2    0    0 -0.42031557835E+03 -0.58710382775E+02  0.15526466617E+03  0.45190619713E+03  0.00000000000E+00 0.  1.
<mgrwt>
<rscale>  0 0.10593597E+04</rscale>
<asrwt>0</asrwt>
<pdfrwt beam="1">  1        2 0.11220130E+00 0.10593597E+04</pdfrwt>
<pdfrwt beam="2">  1       -2 0.59183728E-01 0.10593597E+04</pdfrwt>
<totfact> 0.10320496E+02</totfact>
</mgrwt>
</event>
<event>
 6    1  0.2189468E-005  0.2441008E+04  0.7818608E-02  0.8424308E-01
         -1   -1    0    0    0  501 -0.00000000000E+00  0.00000000000E+00  0.99308772852E+03  0.99308772852E+03  0.00000000000E+00 0.  1.
          1   -1    0    0  501    0  0.00000000000E+00 -0.00000000000E+00 -0.14999981800E+04  0.14999981800E+04  0.00000000000E+00 0. -1.
         23    2    1    2    0    0 -0.10008392354E+04  0.56047030654E+03  0.16679149665E+03  0.11627925369E+04  0.91983373422E+02 0.  0.
         13    1    3    3    0    0 -0.56361141184E+03  0.26501980351E+03  0.10271906466E+03  0.63122462408E+03  0.00000000000E+00 0.  1.
        -13    1    3    3    0    0 -0.43722782353E+03  0.29545050303E+03  0.64072431987E+02  0.53156791283E+03  0.00000000000E+00 0. -1.
         22    1    1    2    0    0  0.10008392354E+04 -0.56047030654E+03 -0.67370194810E+03  0.13302933716E+04  0.00000000000E+00 0. -1.
<mgrwt>
<rscale>  0 0.24410078E+04</rscale>
<asrwt>0</asrwt>
<pdfrwt beam="1">  1        1 0.23076895E+00 0.24410078E+04</pdfrwt>
<pdfrwt beam="2">  1       -1 0.15278273E+00 0.24410078E+04</pdfrwt>
<totfact> 0.19390671E+00</totfact>
</mgrwt>
</event>
<event>
 6    1  0.1762360E-005  0.1479796E+04  0.7818608E-02  0.8898000E-01
         -1   -1    0    0    0  501 -0.00000000000E+00  0.00000000000E+00  0.53606393209E+03  0.53606393209E+03  0.00000000000E+00 0.  1.
          1   -1    0    0  501    0  0.00000000000E+00 -0.00000000000E+00 -0.10212388325E+04  0.10212388325E+04  0.00000000000E+00 0. -1.
         23    2    1    2    0    0  0.45383937218E+02  0.67702789612E+03 -0.54814399750E+03  0.87583994013E+03  0.78786323997E+02 0.  0.
         11    1    3    3    0    0 -0.43934340215E+01  0.30418001699E+02 -0.47412780410E+02  0.56502467522E+02  0.00000000000E+00 0. -1.
        -11    1    3    3    0    0  0.49777371239E+02  0.64660989442E+03 -0.50073121709E+03  0.81933747260E+03  0.00000000000E+00 0.  1.
         22    1    1    2    0    0 -0.45383937218E+02 -0.67702789612E+03  0.62969097135E+02  0.68146282442E+03  0.00000000000E+00 0.  1.
<mgrwt>
<rscale>  0 0.14797963E+04</rscale>
<asrwt>0</asrwt>
<pdfrwt beam="1">  1        1 0.15711367E+00 0.14797963E+04</pdfrwt>
<pdfrwt beam="2">  1       -1 0.82471374E-01 0.14797963E+04</pdfrwt>
<totfact> 0.20629376E+01</totfact>
</mgrwt>
</event>
<event>
 6    1  0.1762360E-005  0.2617089E+04  0.7818608E-02  0.8362420E-01
          1   -1    0    0  501    0  0.00000000000E+00  0.00000000000E+00  0.20891921765E+04  0.20891921765E+04  0.00000000000E+00 0. -1.
         -1   -1    0    0    0  501 -0.00000000000E+00 -0.00000000000E+00 -0.81959370882E+03  0.81959370882E+03  0.00000000000E+00 0.  1.
         23    2    1    2    0    0 -0.59619540513E+03 -0.53190762814E+03  0.17850327127E+04  0.19579719462E+04  0.94539254002E+02 0.  0.
         13    1    3    3    0    0 -0.45728041401E+02 -0.25874206324E+02  0.17632335193E+03  0.18398492536E+03  0.00000000000E+00 0. -1.
        -13    1    3    3    0    0 -0.55046736372E+03 -0.50603342182E+03  0.16087093608E+04  0.17739870208E+04  0.00000000000E+00 0.  1.
         22    1    1    2    0    0  0.59619540513E+03  0.53190762814E+03 -0.51543424503E+03  0.95081393917E+03  0.00000000000E+00 0.  1.
<mgrwt>
<rscale>  0 0.26170890E+04</rscale>
<asrwt>0</asrwt>
<pdfrwt beam="1">  1        1 0.32141418E+00 0.26170890E+04</pdfrwt>
<pdfrwt beam="2">  1       -1 0.12609134E+00 0.26170890E+04</pdfrwt>
<totfact> 0.12480031E+00</totfact>
</mgrwt>
</event>
<event>
 6    1  0.1762360E-005  0.1622570E+04  0.7818608E-02  0.8806801E-01
          1   -1    0    0  501    0  0.00000000000E+00  0.00000000000E+00  0.17120348900E+04  0.17120348900E+04  0.00000000000E+00 0. -1.
         -1   -1    0    0    0  501 -0.00000000000E+00 -0.00000000000E+00 -0.38444516091E+03  0.38444516091E+03  0.00000000000E+00 0.  1.
         23    2    1    2    0    0 -0.39162582307E+03  0.12739016668E+03  0.15651725777E+04  0.16210385195E+04  0.91660480893E+02 0.  0.
         13    1    3    3    0    0 -0.34316025495E+03  0.77203159810E+02  0.13312124019E+04  0.13768971448E+04  0.00000000000E+00 0. -1.
        -13    1    3    3    0    0 -0.48465568118E+02  0.50187006870E+02  0.23396017584E+03  0.24414137468E+03  0.00000000000E+00 0.  1.
         22    1    1    2    0    0  0.39162582307E+03 -0.12739016668E+03 -0.23758284861E+03  0.47544153144E+03  0.00000000000E+00 0.  1.
<mgrwt>
<rscale>  0 0.16225702E+04</rscale>
<asrwt>0</asrwt>
<pdfrwt beam="1">  1        1 0.26338998E+00 0.16225702E+04</pdfrwt>
<pdfrwt beam="2">  1       -1 0.59145411E-01 0.16225702E+04</pdfrwt>
<totfact> 0.12979143E+01</totfact>
</mgrwt>
</event>
<event>
 6    1  0.1762360E-005  0.2512054E+04  0.7818608E-02  0.8398704E-01
          2   -1    0    0  501    0  0.00000000000E+00  0.00000000000E+00  0.22420085758E+04  0.22420085758E+04  0.00000000000E+00 0. -1.
         -2   -1    0    0    0  501 -0.00000000000E+00 -0.00000000000E+00 -0.70365666750E+03  0.70365666750E+03  0.00000000000E+00 0.  1.
         23    2    1    2    0    0 -0.31321491047E+03  0.35296487712E+03  0.21330455945E+04  0.21864891339E+04  0.90351755004E+02 0.  0.
         11    1    3    3    0    0 -0.16571650443E+03  0.19176371392E+03  0.13472009773E+04  0.13708339634E+04  0.00000000000E+00 0.  1.
        -11    1    3    3    0    0 -0.14749840604E+03  0.16120116320E+03  0.78584461720E+03  0.81565517052E+03  0.00000000000E+00 0. -1.
         22    1    1    2    0    0  0.31321491047E+03 -0.35296487712E+03 -0.59469368625E+03  0.75917610940E+03  0.00000000000E+00 0.  1.
<mgrwt>
<rscale>  0 0.25120544E+04</rscale>
<asrwt>0</asrwt>
<pdfrwt beam="1">  1        2 0.34492439E+00 0.25120544E+04</pdfrwt>
<pdfrwt beam="2">  1       -2 0.10825487E+00 0.25120544E+04</pdfrwt>
<totfact> 0.29749919E+00</totfact>
</mgrwt>
</event>
<event>
 6    1  0.1762360E-005  0.5389275E+04  0.7818608E-02  0.7771111E-01
          1   -1    0    0  501    0  0.00000000000E+00  0.00000000000E+00  0.36119825521E+04  0.36119825521E+04  0.00000000000E+00 0. -1.
         -1   -1    0    0    0  501 -0.00000000000E+00 -0.00000000000E+00 -0.20102728242E+04  0.20102728242E+04  0.00000000000E+00 0.  1.
         23    2    1    2    0    0 -0.83052637178E+03 -0.21787455037E+04 -0.60639010589E+03  0.24109611045E+04  0.91205606965E+02 0.  0.
         13    1    3    3    0    0 -0.53106904337E+03 -0.12971208746E+04 -0.39398198536E+03  0.14559459801E+04  0.00000000000E+00 0. -1.
        -13    1    3    3    0    0 -0.29945732841E+03 -0.88162462909E+03 -0.21240812053E+03  0.95501512439E+03  0.00000000000E+00 0.  1.
         22    1    1    2    0    0  0.83052637178E+03  0.21787455037E+04  0.22080998338E+04  0.32112942718E+04  0.00000000000E+00 0. -1.
<mgrwt>
<rscale>  0 0.53892747E+04</rscale>
<asrwt>0</asrwt>
<pdfrwt beam="1">  1        1 0.55568962E+00 0.53892747E+04</pdfrwt>
<pdfrwt beam="2">  1       -1 0.30927274E+00 0.53892747E+04</pdfrwt>
<totfact> 0.40891842E-03</totfact>
</mgrwt>
</event>
<event>
 6    1  0.1762360E-005  0.3154303E+04  0.7818608E-02  0.8200991E-01
          2   -1    0    0  501    0  0.00000000000E+00  0.00000000000E+00  0.12347286273E+04  0.12347286273E+04  0.00000000000E+00 0. -1.
         -2   -1    0    0    0  501 -0.00000000000E+00 -0.00000000000E+00 -0.20145374582E+04  0.20145374582E+04  0.00000000000E+00 0.  1.
         23    2    1    2    0    0 -0.54944039449E+03 -0.70781532178E+03 -0.17255722409E+04  0.19464400401E+04  0.90233001094E+02 0.  0.
         11    1    3    3    0    0 -0.49892888480E+03 -0.65915713072E+03 -0.15364904958E+04  0.17447696693E+04  0.00000000000E+00 0.  1.
        -11    1    3    3    0    0 -0.50511509692E+02 -0.48658191060E+02 -0.18908174502E+03  0.20167037082E+03  0.00000000000E+00 0. -1.
         22    1    1    2    0    0  0.54944039449E+03  0.70781532178E+03  0.94576341001E+03  0.13028260454E+04  0.00000000000E+00 0.  1.
<mgrwt>
<rscale>  0 0.31543031E+04</rscale>
<asrwt>0</asrwt>
<pdfrwt beam="1">  1        2 0.18995825E+00 0.31543031E+04</pdfrwt>
<pdfrwt beam="2">  1       -2 0.30992884E+00 0.31543031E+04</pdfrwt>
<totfact> 0.42159623E-01</totfact>
</mgrwt>
</event>
<event>
 6    1  0.1762360E-005  0.1069529E+04  0.7818608E-02  0.9235410E-01
         -1   -1    0    0    0  501 -0.00000000000E+00  0.00000000000E+00  0.43512927616E+03  0.43512927616E+03  0.00000000000E+00 0.  1.
          1   -1    0    0  501    0  0.00000000000E+00 -0.00000000000E+00 -0.65721425266E+03  0.65721425266E+03  0.00000000000E+00 0. -1.
         23    2    1    2    0    0  0.15616560130E+03 -0.21809768089E+03  0.35595796674E+03  0.45509323445E+03  0.91921077632E+02 0.  0.
         11    1    3    3    0    0  0.10645612526E+03 -0.19408441175E+03  0.23902210172E+03  0.32578095494E+03  0.00000000000E+00 0. -1.
        -11    1    3    3    0    0  0.49709476039E+02 -0.24013269140E+02  0.11693586503E+03  0.12931227951E+03  0.00000000000E+00 0.  1.
         22    1    1    2    0    0 -0.15616560130E+03  0.21809768089E+03 -0.57804294324E+03  0.63725029437E+03  0.00000000000E+00 0. -1.
<mgrwt>
<rscale>  0 0.10695292E+04</rscale>
<asrwt>0</asrwt>
<pdfrwt beam="1">  1        1 0.10110989E+00 0.10695292E+04</pdfrwt>
<pdfrwt beam="2">  1       -1 0.66942965E-01 0.10695292E+04</pdfrwt>
<totfact> 0.67644528E+01</totfact>
</mgrwt>
</event>
<event>
 6    1  0.1762360E-005  0.2584975E+04  0.7818608E-02  0.8373323E-01
          1   -1    0    0  501    0  0.00000000000E+00  0.00000000000E+00  0.18990169140E+04  0.18990169140E+04  0.00000000000E+00 0. -1.
         -1   -1    0    0    0  501 -0.00000000000E+00 -0.00000000000E+00 -0.87967798003E+03  0.87967798003E+03  0.00000000000E+00 0.  1.
         23    2    1    2    0    0  0.40775838138E+03 -0.91728665349E+02  0.18231457159E+04  0.18727222740E+04  0.92451980969E+02 0.  0.
         13    1    3    3    0    0  0.21522069932E+03 -0.77583151201E+02  0.82807414397E+03  0.85909596826E+03  0.00000000000E+00 0. -1.
        -13    1    3    3    0    0  0.19253768206E+03 -0.14145514148E+02  0.99507157190E+03  0.10136263058E+04  0.00000000000E+00 0.  1.
         22    1    1    2    0    0 -0.40775838138E+03  0.91728665349E+02 -0.80380678187E+03  0.90597262001E+03  0.00000000000E+00 0.  1.
<mgrwt>
<rscale>  0 0.25849746E+04</rscale>
<asrwt>0</asrwt>
<pdfrwt beam="1">  1        1 0.29215645E+00 0.25849746E+04</pdfrwt>
<pdfrwt beam="2">  1       -1 0.13533507E+00 0.25849746E+04</pdfrwt>
<totfact> 0.14083989E+00</totfact>
</mgrwt>
</event>
<event>
 6    1  0.1762360E-005  0.1275571E+04  0.7818608E-02  0.9049165E-01
         -1   -1    0    0    0  501 -0.00000000000E+00  0.00000000000E+00  0.46256843696E+03  0.46256843696E+03  0.00000000000E+00 0.  1.
          1   -1    0    0  501    0  0.00000000000E+00 -0.00000000000E+00 -0.87937370184E+03  0.87937370184E+03  0.00000000000E+00 0. -1.
         23    2    1    2    0    0 -0.19786553876E+03 -0.55259505291E+03 -0.46298151243E+03  0.75317706700E+03  0.91715590191E+02 0.  0.
         13    1    3    3    0    0 -0.68062541758E+02 -0.23456878941E+03 -0.24730278947E+03  0.34758264662E+03  0.00000000000E+00 0. -1.
        -13    1    3    3    0    0 -0.12980299701E+03 -0.31802626350E+03 -0.21567872296E+03  0.40559442038E+03  0.00000000000E+00 0.  1.
         22    1    1    2    0    0  0.19786553876E+03  0.55259505291E+03  0.46176247544E+02  0.58876507179E+03  0.00000000000E+00 0.  1.
<mgrwt>
<rscale>  0 0.12755713E+04</rscale>
<asrwt>0</asrwt>
<pdfrwt beam="1">  1        1 0.13528826E+00 0.12755713E+04</pdfrwt>
<pdfrwt beam="2">  1       -1 0.71164376E-01 0.12755713E+04</pdfrwt>
<totfact> 0.37157724E+01</totfact>
</mgrwt>
</event>
<event>
 6    1  0.1762360E-005  0.2905986E+04  0.7818608E-02  0.8271099E-01
          1   -1    0    0  501    0  0.00000000000E+00  0.00000000000E+00  0.21928223716E+04  0.21928223716E+04  0.00000000000E+00 0. -1.
         -1   -1    0    0    0  501 -0.00000000000E+00 -0.00000000000E+00 -0.96277222472E+03  0.96277222472E+03  0.00000000000E+00 0.  1.
         23    2    1    2    0    0  0.58963320769E+03 -0.65494990397E+03  0.18677771540E+04  0.20677883489E+04  0.10261804182E+03 0.  0.
         13    1    3    3    0    0  0.15481984409E+03 -0.24269700609E+03  0.58749639447E+03  0.65423469368E+03  0.00000000000E+00 0. -1.
        -13    1    3    3    0    0  0.43481336360E+03 -0.41225289788E+03  0.12802807595E+04  0.14135536552E+04  0.00000000000E+00 0.  1.
         22    1    1    2    0    0 -0.58963320769E+03  0.65494990397E+03 -0.63772700711E+03  0.10878062474E+04  0.00000000000E+00 0.  1.
<mgrwt>
<rscale>  0 0.29059859E+04</rscale>
<asrwt>0</asrwt>
<pdfrwt beam="1">  1        1 0.33735729E+00 0.29059859E+04</pdfrwt>
<pdfrwt beam="2">  1       -1 0.14811880E+00 0.29059859E+04</pdfrwt>
<totfact> 0.68216120E-01</totfact>
</mgrwt>
</event>
<event>
 6    1  0.1762360E-005  0.3445633E+04  0.7818608E-02  0.8126796E-01
         -1   -1    0    0    0  501 -0.00000000000E+00  0.00000000000E+00  0.12789406880E+04  0.12789406880E+04  0.00000000000E+00 0.  1.
          1   -1    0    0  501    0  0.00000000000E+00 -0.00000000000E+00 -0.23207463778E+04  0.23207463778E+04  0.00000000000E+00 0. -1.
         23    2    1    2    0    0 -0.14392299789E+04  0.68716821521E+03  0.15603390036E+03  0.16050936807E+04  0.91630003725E+02 0.  0.
         13    1    3    3    0    0 -0.68470357684E+03  0.28223546993E+03  0.93970028442E+02  0.74652944676E+03  0.00000000000E+00 0. -1.
        -13    1    3    3    0    0 -0.75452640208E+03  0.40493274528E+03  0.62063871920E+02  0.85856423396E+03  0.00000000000E+00 0.  1.
         22    1    1    2    0    0  0.14392299789E+04 -0.68716821521E+03 -0.11978395901E+04  0.19945933851E+04  0.00000000000E+00 0.  1.
<mgrwt>
<rscale>  0 0.34456332E+04</rscale>
<asrwt>0</asrwt>
<pdfrwt beam="1">  1        1 0.35703790E+00 0.34456332E+04</pdfrwt>
<pdfrwt beam="2">  1       -1 0.19676011E+00 0.34456332E+04</pdfrwt>
<totfact> 0.23393856E-01</totfact>
</mgrwt>
</event>
<event>
 6    1  0.1762360E-005  0.1430313E+04  0.7818608E-02  0.8932164E-01
          2   -1    0    0  501    0  0.00000000000E+00  0.00000000000E+00  0.12348785736E+04  0.12348785736E+04  0.00000000000E+00 0. -1.
         -2   -1    0    0    0  501 -0.00000000000E+00 -0.00000000000E+00 -0.41416929328E+03  0.41416929328E+03  0.00000000000E+00 0.  1.
         23    2    1    2    0    0  0.24293459657E+03  0.89886658694E+02  0.11769511747E+04  0.12085877472E+04  0.91506532466E+02 0.  0.
         11    1    3    3    0    0  0.75557830384E+02  0.73690262268E+02  0.50543312383E+03  0.51633504931E+03  0.00000000000E+00 0.  1.
        -11    1    3    3    0    0  0.16737676618E+03  0.16196396425E+02  0.67151805088E+03  0.69225269791E+03  0.00000000000E+00 0. -1.
         22    1    1    2    0    0 -0.24293459657E+03 -0.89886658694E+02 -0.35624189443E+03  0.44046011961E+03  0.00000000000E+00 0.  1.
<mgrwt>
<rscale>  0 0.14303130E+04</rscale>
<asrwt>0</asrwt>
<pdfrwt beam="1">  1        2 0.18998132E+00 0.14303130E+04</pdfrwt>
<pdfrwt beam="2">  1       -2 0.63718353E-01 0.14303130E+04</pdfrwt>
<totfact> 0.39956268E+01</totfact>
</mgrwt>
</event>
<event>
 6    1  0.1762360E-005  0.3484012E+04  0.7818608E-02  0.8117589E-01
          2   -1    0    0  501    0  0.00000000000E+00  0.00000000000E+00  0.12485019075E+04  0.12485019075E+04  0.00000000000E+00 0. -1.
         -2   -1    0    0    0  501 -0.00000000000E+00 -0.00000000000E+00 -0.24305812828E+04  0.24305812828E+04  0.00000000000E+00 0.  1.
         23    2    1    2    0    0 -0.81041211703E+03  0.28823056996E+03 -0.21896334893E+04  0.23543153036E+04  0.91984077986E+02 0.  0.
         13    1    3    3    0    0 -0.64939784529E+03  0.21692018008E+03 -0.16406952910E+04  0.17778225344E+04  0.00000000000E+00 0. -1.
        -13    1    3    3    0    0 -0.16101427174E+03  0.71310389878E+02 -0.54893819825E+03  0.57649276917E+03  0.00000000000E+00 0.  1.
         22    1    1    2    0    0  0.81041211703E+03 -0.28823056996E+03  0.10075541140E+04  0.13247678867E+04  0.00000000000E+00 0. -1.
<mgrwt>
<rscale>  0 0.34840123E+04</rscale>
<asrwt>0</asrwt>
<pdfrwt beam="1">  1        2 0.19207722E+00 0.34840123E+04</pdfrwt>
<pdfrwt beam="2">  1       -2 0.37393558E+00 0.34840123E+04</pdfrwt>
<totfact> 0.15964318E-01</totfact>
</mgrwt>
</event>
<event>
 6    1  0.1762360E-005  0.2930331E+04  0.7818608E-02  0.8263910E-01
         -2   -1    0    0    0  501 -0.00000000000E+00  0.00000000000E+00  0.14313387144E+04  0.14313387144E+04  0.00000000000E+00 0.  1.
          2   -1    0    0  501    0  0.00000000000E+00 -0.00000000000E+00 -0.14997921520E+04  0.14997921520E+04  0.00000000000E+00 0. -1.
         23    2    1    2    0    0  0.51682983064E+03  0.47777844639E+03  0.12493217357E+04  0.14371707849E+04  0.96279529881E+02 0.  0.
         11    1    3    3    0    0  0.34738887628E+03  0.26783334317E+03  0.72105436742E+03  0.84399830086E+03  0.00000000000E+00 0.  1.
        -11    1    3    3    0    0  0.16944095436E+03  0.20994510323E+03  0.52826736832E+03  0.59317248403E+03  0.00000000000E+00 0. -1.
         22    1    1    2    0    0 -0.51682983064E+03 -0.47777844639E+03 -0.13177751734E+04  0.14939600815E+04  0.00000000000E+00 0. -1.
<mgrwt>
<rscale>  0 0.29303314E+04</rscale>
<asrwt>0</asrwt>
<pdfrwt beam="1">  1        2 0.23073725E+00 0.29303314E+04</pdfrwt>
<pdfrwt beam="2">  1       -2 0.22020596E+00 0.29303314E+04</pdfrwt>
<totfact> 0.10772340E+00</totfact>
</mgrwt>
</event>
<event>
 6    1  0.1762360E-005  0.1275000E+04  0.7818608E-02  0.9049629E-01
         -2   -1    0    0    0  501 -0.00000000000E+00  0.00000000000E+00  0.43329767921E+03  0.43329767921E+03  0.00000000000E+00 0.  1.
          2   -1    0    0  501    0  0.00000000000E+00 -0.00000000000E+00 -0.93793772907E+03  0.93793772907E+03  0.00000000000E+00 0. -1.
         23    2    1    2    0    0 -0.49272054714E+03 -0.57974957333E+02  0.17148507467E+03  0.53261760661E+03  0.90220567386E+02 0.  0.
         13    1    3    3    0    0 -0.90883680105E+02 -0.39848812976E+02  0.56803710921E+02  0.11434348595E+03  0.00000000000E+00 0.  1.
        -13    1    3    3    0    0 -0.40183686704E+03 -0.18126144358E+02  0.11468136375E+03  0.41827412066E+03  0.00000000000E+00 0. -1.
         22    1    1    2    0    0  0.49272054714E+03  0.57974957333E+02 -0.67612512453E+03  0.83861780167E+03  0.00000000000E+00 0.  1.
<mgrwt>
<rscale>  0 0.12750000E+04</rscale>
<asrwt>0</asrwt>
<pdfrwt beam="1">  1        2 0.14429811E+00 0.12750000E+04</pdfrwt>
<pdfrwt beam="2">  1       -2 0.66661182E-01 0.12750000E+04</pdfrwt>
<totfact> 0.56148738E+01</totfact>
</mgrwt>
</event>
<event>
 6    1  0.1762360E-005  0.2705467E+04  0.7818608E-02  0.8333233E-01
          2   -1    0    0  501    0  0.00000000000E+00  0.00000000000E+00  0.12978163351E+04  0.12978163351E+04  0.00000000000E+00 0. -1.
         -2   -1    0    0    0  501 -0.00000000000E+00 -0.00000000000E+00 -0.14099745546E+04  0.14099745546E+04  0.00000000000E+00 0.  1.
         23    2    1    2    0    0 -0.98679544289E+02 -0.90908091935E+03 -0.10516950275E+04  0.13967244596E+04  0.92795554617E+02 0.  0.
         13    1    3    3    0    0 -0.48918062881E+02 -0.31347350124E+03 -0.42940436206E+03  0.53389766718E+03  0.00000000000E+00 0.  1.
        -13    1    3    3    0    0 -0.49761481408E+02 -0.59560741810E+03 -0.62229066541E+03  0.86282679246E+03  0.00000000000E+00 0. -1.
         22    1    1    2    0    0  0.98679544289E+02  0.90908091935E+03  0.93953680796E+03  0.13110664300E+04  0.00000000000E+00 0. -1.
<mgrwt>
<rscale>  0 0.27054671E+04</rscale>
<asrwt>0</asrwt>
<pdfrwt beam="1">  1        2 0.19966405E+00 0.27054671E+04</pdfrwt>
<pdfrwt beam="2">  1       -2 0.21691916E+00 0.27054671E+04</pdfrwt>
<totfact> 0.15032862E+00</totfact>
</mgrwt>
</event>
<event>
 6    1  0.1762360E-005  0.2657918E+04  0.7818608E-02  0.8348790E-01
         -2   -1    0    0    0  501 -0.00000000000E+00  0.00000000000E+00  0.82266636871E+03  0.82266636871E+03  0.00000000000E+00 0.  1.
          2   -1    0    0  501    0  0.00000000000E+00 -0.00000000000E+00 -0.21468382857E+04  0.21468382857E+04  0.00000000000E+00 0. -1.
         23    2    1    2    0    0 -0.11797834375E+03 -0.23439278809E+03 -0.21166193042E+04  0.21347401785E+04  0.90440490679E+02 0.  0.
         13    1    3    3    0    0 -0.47042130357E+02 -0.53340026521E+02 -0.33041211338E+03  0.33797971112E+03  0.00000000000E+00 0. -1.
        -13    1    3    3    0    0 -0.70936213397E+02 -0.18105276157E+03 -0.17862071908E+04  0.17967604674E+04  0.00000000000E+00 0.  1.
         22    1    1    2    0    0  0.11797834375E+03  0.23439278809E+03  0.79244738719E+03  0.83476447587E+03  0.00000000000E+00 0.  1.
<mgrwt>
<rscale>  0 0.26579177E+04</rscale>
<asrwt>0</asrwt>
<pdfrwt beam="1">  1        2 0.33028281E+00 0.26579177E+04</pdfrwt>
<pdfrwt beam="2">  1       -2 0.12656406E+00 0.26579177E+04</pdfrwt>
<totfact> 0.22628523E+00</totfact>
</mgrwt>
</event>
<event>
 6    1  0.1762360E-005  0.1750269E+04  0.7818608E-02  0.8733202E-01
          1   -1    0    0  501    0  0.00000000000E+00  0.00000000000E+00  0.14715280015E+04  0.14715280015E+04  0.00000000000E+00 0. -1.
         -1   -1    0    0    0  501 -0.00000000000E+00 -0.00000000000E+00 -0.52045264834E+03  0.52045264834E+03  0.00000000000E+00 0.  1.
         23    2    1    2    0    0 -0.74454463850E+03 -0.39131784399E+03  0.74172926804E+03  0.11252037713E+04  0.91895844379E+02 0.  0.
         11    1    3    3    0    0 -0.44183570550E+03 -0.19913367684E+03  0.47212200243E+03  0.67658864688E+03  0.00000000000E+00 0. -1.
        -11    1    3    3    0    0 -0.30270893300E+03 -0.19218416715E+03  0.26960726562E+03  0.44861512446E+03  0.00000000000E+00 0.  1.
         22    1    1    2    0    0  0.74454463850E+03  0.39131784399E+03  0.20934608510E+03  0.86677687850E+03  0.00000000000E+00 0. -1.
<mgrwt>
<rscale>  0 0.17502693E+04</rscale>
<asrwt>0</asrwt>
<pdfrwt beam="1">  1        1 0.22638892E+00 0.17502693E+04</pdfrwt>
<pdfrwt beam="2">  1       -1 0.80069639E-01 0.17502693E+04</pdfrwt>
<totfact> 0.10101345E+01</totfact>
</mgrwt>
</event>
<event>
 6    1  0.1762360E-005  0.1361425E+04  0.7818608E-02  0.8982224E-01
          1   -1    0    0  501    0  0.00000000000E+00  0.00000000000E+00  0.46649504653E+03  0.46649504653E+03  0.00000000000E+00 0. -1.
         -1   -1    0    0    0  501 -0.00000000000E+00 -0.00000000000E+00 -0.99330021569E+03  0.99330021569E+03  0.00000000000E+00 0.  1.
         23    2    1    2    0    0 -0.11787376038E+03  0.66521980755E+03 -0.32179123789E+03  0.75379078083E+03  0.90770726229E+02 0.  0.
         11    1    3    3    0    0 -0.85858393867E+02  0.24042326743E+03 -0.13244527289E+03  0.28760521836E+03  0.00000000000E+00 0. -1.
        -11    1    3    3    0    0 -0.32015366509E+02  0.42479654012E+03 -0.18934596500E+03  0.46618556247E+03  0.00000000000E+00 0.  1.
         22    1    1    2    0    0  0.11787376038E+03 -0.66521980755E+03 -0.20501393127E+03  0.70600448140E+03  0.00000000000E+00 0.  1.
<mgrwt>
<rscale>  0 0.13614252E+04</rscale>
<asrwt>0</asrwt>
<pdfrwt beam="1">  1        1 0.71768469E-01 0.13614252E+04</pdfrwt>
<pdfrwt beam="2">  1       -1 0.15281542E+00 0.13614252E+04</pdfrwt>
<totfact> 0.15818742E+01</totfact>
</mgrwt>
</event>
<event>
 6    1  0.1762360E-005  0.1390586E+04  0.7818608E-02  0.8960661E-01
         -1   -1    0    0    0  501 -0.00000000000E+00  0.00000000000E+00  0.30216419767E+03  0.30216419767E+03  0.00000000000E+00 0.  1.
          1   -1    0    0  501    0  0.00000000000E+00 -0.00000000000E+00 -0.15998986545E+04  0.15998986545E+04  0.00000000000E+00 0. -1.
         23    2    1    2    0    0  0.54933889101E+03  0.30107460889E+03 -0.10545636483E+04  0.12300872727E+04  0.92688040623E+02 0.  0.
         13    1    3    3    0    0  0.36566769700E+03  0.24722843277E+03 -0.71396646749E+03  0.83939435267E+03  0.00000000000E+00 0.  1.
        -13    1    3    3    0    0  0.18367119401E+03  0.53846176117E+02 -0.34059718079E+03  0.39069292002E+03  0.00000000000E+00 0. -1.
         22    1    1    2    0    0 -0.54933889101E+03 -0.30107460889E+03 -0.24317080856E+03  0.67197557949E+03  0.00000000000E+00 0.  1.
<mgrwt>
<rscale>  0 0.13905856E+04</rscale>
<asrwt>0</asrwt>
<pdfrwt beam="1">  1        1 0.24613826E+00 0.13905856E+04</pdfrwt>
<pdfrwt beam="2">  1       -1 0.46486800E-01 0.13905856E+04</pdfrwt>
<totfact> 0.25092848E+01</totfact>
</mgrwt>
</event>
<event>
 6    1  0.1762360E-005  0.3734590E+04  0.7818608E-02  0.8060339E-01
          2   -1    0    0  501    0  0.00000000000E+00  0.00000000000E+00  0.27427982950E+04  0.27427982950E+04  0.00000000000E+00 0. -1.
         -2   -1    0    0    0  501 -0.00000000000E+00 -0.00000000000E+00 -0.12712531654E+04  0.12712531654E+04  0.00000000000E+00 0.  1.
         23    2    1    2    0    0 -0.10763880097E+03  0.67743789385E+03  0.26012853667E+04  0.26923778188E+04  0.10818756141E+03 0.  0.
         11    1    3    3    0    0  0.14301895217E+00  0.66282354801E+02  0.39292762109E+03  0.39847896611E+03  0.00000000000E+00 0.  1.
        -11    1    3    3    0    0 -0.10778181993E+03  0.61115553905E+03  0.22083577456E+04  0.22938988527E+04  0.00000000000E+00 0. -1.
         22    1    1    2    0    0  0.10763880097E+03 -0.67743789385E+03 -0.11297402372E+04  0.13216736416E+04  0.00000000000E+00 0.  1.
<mgrwt>
<rscale>  0 0.37345902E+04</rscale>
<asrwt>0</asrwt>
<pdfrwt beam="1">  1        2 0.42196897E+00 0.37345902E+04</pdfrwt>
<pdfrwt beam="2">  1       -2 0.19557741E+00 0.37345902E+04</pdfrwt>
<totfact> 0.28700793E-01</totfact>
</mgrwt>
</event>
<event>
 6    1  0.1762360E-005  0.1082411E+04  0.7818608E-02  0.9222507E-01
          2   -1    0    0  501    0  0.00000000000E+00  0.00000000000E+00  0.74114676885E+03  0.74114676885E+03  0.00000000000E+00 0. -1.
         -2   -1    0    0    0  501 -0.00000000000E+00 -0.00000000000E+00 -0.39520316250E+03  0.39520316250E+03  0.00000000000E+00 0.  1.
         23    2    1    2    0    0 -0.44592167717E+03  0.72116111303E+02 -0.12761934165E+03  0.48189692203E+03  0.10904618940E+03 0.  0.
         13    1    3    3    0    0 -0.30789167965E+03  0.39518395294E+02 -0.34720516068E+02  0.31235317222E+03  0.00000000000E+00 0.  1.
        -13    1    3    3    0    0 -0.13802999752E+03  0.32597716009E+02 -0.92898825581E+02  0.16954374981E+03  0.00000000000E+00 0. -1.
         22    1    1    2    0    0  0.44592167717E+03 -0.72116111303E+02  0.47356294800E+03  0.65445300931E+03  0.00000000000E+00 0. -1.
<mgrwt>
<rscale>  0 0.10824113E+04</rscale>
<asrwt>0</asrwt>
<pdfrwt beam="1">  1        2 0.11402258E+00 0.10824113E+04</pdfrwt>
<pdfrwt beam="2">  1       -2 0.60800486E-01 0.10824113E+04</pdfrwt>
<totfact> 0.95352598E+01</totfact>
</mgrwt>
</event>
<event>
 6    1  0.1762360E-005  0.2969511E+04  0.7818608E-02  0.8252491E-01
         -1   -1    0    0    0  501 -0.00000000000E+00  0.00000000000E+00  0.13055602806E+04  0.13055602806E+04  0.00000000000E+00 0.  1.
          1   -1    0    0  501    0  0.00000000000E+00 -0.00000000000E+00 -0.16885467805E+04  0.16885467805E+04  0.00000000000E+00 0. -1.
         23    2    1    2    0    0 -0.12146737564E+04  0.18988426950E+03 -0.10283821491E+04  0.16055740531E+04  0.93860669096E+02 0.  0.
         11    1    3    3    0    0 -0.47898081570E+03  0.11936744206E+03 -0.39427230005E+03  0.63176091571E+03  0.00000000000E+00 0. -1.
        -11    1    3    3    0    0 -0.73569294070E+03  0.70516827444E+02 -0.63410984901E+03  0.97381313739E+03  0.00000000000E+00 0.  1.
         22    1    1    2    0    0  0.12146737564E+04 -0.18988426950E+03  0.64539564913E+03  0.13885330080E+04  0.00000000000E+00 0.  1.
<mgrwt>
<rscale>  0 0.29695115E+04</rscale>
<asrwt>0</asrwt>
<pdfrwt beam="1">  1        1 0.25977643E+00 0.29695115E+04</pdfrwt>
<pdfrwt beam="2">  1       -1 0.20085543E+00 0.29695115E+04</pdfrwt>
<totfact> 0.61480498E-01</totfact>
</mgrwt>
</event>
<event>
 6    1  0.1762360E-005  0.3117602E+04  0.7818608E-02  0.8210924E-01
         -1   -1    0    0    0  501 -0.00000000000E+00  0.00000000000E+00  0.52949958023E+03  0.52949958023E+03  0.00000000000E+00 0.  1.
          1   -1    0    0  501    0  0.00000000000E+00 -0.00000000000E+00 -0.45889744323E+04  0.45889744323E+04  0.00000000000E+00 0. -1.
         23    2    1    2    0    0 -0.17738279437E+03  0.13405430829E+04 -0.32990723345E+04  0.35671093224E+04  0.10895061680E+03 0.  0.
         13    1    3    3    0    0  0.56745412443E+01  0.24126111089E+03 -0.53992340218E+03  0.59140206650E+03  0.00000000000E+00 0. -1.
        -13    1    3    3    0    0 -0.18305733562E+03  0.10992819721E+04 -0.27591489323E+04  0.29757072559E+04  0.00000000000E+00 0.  1.
         22    1    1    2    0    0  0.17738279437E+03 -0.13405430829E+04 -0.76040251759E+03  0.15513646901E+04  0.00000000000E+00 0.  1.
<mgrwt>
<rscale>  0 0.31176017E+04</rscale>
<asrwt>0</asrwt>
<pdfrwt beam="1">  1        1 0.70599607E+00 0.31176017E+04</pdfrwt>
<pdfrwt beam="2">  1       -1 0.81461473E-01 0.31176017E+04</pdfrwt>
<totfact> 0.32834615E-02</totfact>
</mgrwt>
</event>
<event>
 6    1  0.1762360E-005  0.3332403E+04  0.7818608E-02  0.8154699E-01
          1   -1    0    0  501    0  0.00000000000E+00  0.00000000000E+00  0.11741308240E+04  0.11741308240E+04  0.00000000000E+00 0. -1.
         -1   -1    0    0    0  501 -0.00000000000E+00 -0.00000000000E+00 -0.23644957123E+04  0.23644957123E+04  0.00000000000E+00 0.  1.
         23    2    1    2    0    0  0.14030879071E+03  0.16549896652E+04 -0.72221064483E+03  0.18129829624E+04  0.81496366383E+02 0.  0.
         11    1    3    3    0    0  0.28602446576E+02  0.10268855961E+03 -0.44608854971E+02  0.11555513908E+03  0.00000000000E+00 0.  1.
        -11    1    3    3    0    0  0.11170634413E+03  0.15523011056E+04 -0.67760178986E+03  0.16974278233E+04  0.00000000000E+00 0. -1.
         22    1    1    2    0    0 -0.14030879071E+03 -0.16549896652E+04 -0.46815424344E+03  0.17256435740E+04  0.00000000000E+00 0. -1.
<mgrwt>
<rscale>  0 0.33324029E+04</rscale>
<asrwt>0</asrwt>
<pdfrwt beam="1">  1        1 0.18063551E+00 0.33324029E+04</pdfrwt>
<pdfrwt beam="2">  1       -1 0.36376857E+00 0.33324029E+04</pdfrwt>
<totfact> 0.11612927E-01</totfact>
</mgrwt>
</event>
<event>
 6    1  0.1762360E-005  0.2130163E+04  0.7818608E-02  0.8548071E-01
          2   -1    0    0  501    0  0.00000000000E+00  0.00000000000E+00  0.13210773323E+04  0.13210773323E+04  0.00000000000E+00 0. -1.
         -2   -1    0    0    0  501 -0.00000000000E+00 -0.00000000000E+00 -0.85869216542E+03  0.85869216542E+03  0.00000000000E+00 0.  1.
         23    2    1    2    0    0  0.60605548219E+03  0.63136692414E+03  0.84947347510E+03  0.12228134910E+04  0.87978455026E+02 0.  0.
         11    1    3    3    0    0  0.23670514900E+03  0.28472794840E+03  0.31116704469E+03  0.48365717390E+03  0.00000000000E+00 0. -1.
        -11    1    3    3    0    0  0.36935033319E+03  0.34663897575E+03  0.53830643042E+03  0.73915631714E+03  0.00000000000E+00 0.  1.
         22    1    1    2    0    0 -0.60605548219E+03 -0.63136692414E+03 -0.38708830821E+03  0.95695600670E+03  0.00000000000E+00 0.  1.
<mgrwt>
<rscale>  0 0.21301631E+04</rscale>
<asrwt>0</asrwt>
<pdfrwt beam="1">  1        2 0.20324267E+00 0.21301631E+04</pdfrwt>
<pdfrwt beam="2">  1       -2 0.13210649E+00 0.21301631E+04</pdfrwt>
<totfact> 0.61605401E+00</totfact>
</mgrwt>
</event>
<event>
 6    1  0.1762360E-005  0.3373613E+04  0.7818608E-02  0.8144413E-01
          2   -1    0    0  501    0  0.00000000000E+00  0.00000000000E+00  0.20678116182E+04  0.20678116182E+04  0.00000000000E+00 0. -1.
         -2   -1    0    0    0  501 -0.00000000000E+00 -0.00000000000E+00 -0.13760035984E+04  0.13760035984E+04  0.00000000000E+00 0.  1.
         23    2    1    2    0    0 -0.45364049919E+03 -0.15643816665E+04  0.78889972809E+03  0.18120963374E+04  0.90833111252E+02 0.  0.
         11    1    3    3    0    0 -0.35724840382E+03 -0.12368590622E+04  0.66390460609E+03  0.14485220356E+04  0.00000000000E+00 0. -1.
        -11    1    3    3    0    0 -0.96392095374E+02 -0.32752260432E+03  0.12499512200E+03  0.36357430178E+03  0.00000000000E+00 0.  1.
         22    1    1    2    0    0  0.45364049919E+03  0.15643816665E+04 -0.97091708274E+02  0.16317188792E+04  0.00000000000E+00 0.  1.
<mgrwt>
<rscale>  0 0.33736130E+04</rscale>
<asrwt>0</asrwt>
<pdfrwt beam="1">  1        2 0.31812486E+00 0.33736130E+04</pdfrwt>
<pdfrwt beam="2">  1       -2 0.21169286E+00 0.33736130E+04</pdfrwt>
<totfact> 0.56783036E-01</totfact>
</mgrwt>
</event>
<event>
 6    1  0.1762360E-005  0.1196749E+04  0.7818608E-02  0.9115707E-01
          1   -1    0    0  501    0  0.00000000000E+00  0.00000000000E+00  0.17752386285E+04  0.17752386285E+04  0.00000000000E+00 0. -1.
         -1   -1    0    0    0  501 -0.00000000000E+00 -0.00000000000E+00 -0.20169226955E+03  0.20169226955E+03  0.00000000000E+00 0.  1.
         23    2    1    2    0    0 -0.11679772958E+03 -0.55628748750E+03  0.50126809279E+03  0.76330898062E+03  0.90958345748E+02 0.  0.
         13    1    3    3    0    0 -0.76909882017E+00 -0.21718695017E+03  0.19441677487E+03  0.29149381673E+03  0.00000000000E+00 0.  1.
        -13    1    3    3    0    0 -0.11602863076E+03 -0.33910053733E+03  0.30685131792E+03  0.47181516389E+03  0.00000000000E+00 0. -1.
         22    1    1    2    0    0  0.11679772958E+03  0.55628748750E+03  0.10722782661E+04  0.12136219174E+04  0.00000000000E+00 0. -1.
<mgrwt>
<rscale>  0 0.11967488E+04</rscale>
<asrwt>0</asrwt>
<pdfrwt beam="1">  1        1 0.27311363E+00 0.11967488E+04</pdfrwt>
<pdfrwt beam="2">  1       -1 0.31029581E-01 0.11967488E+04</pdfrwt>
<totfact> 0.40338094E+01</totfact>
</mgrwt>
</event>
<event>
 6    1  0.1762360E-005  0.3506031E+04  0.7818608E-02  0.8112362E-01
          1   -1    0    0  501    0  0.00000000000E+00  0.00000000000E+00  0.24115321672E+04  0.24115321672E+04  0.00000000000E+00 0. -1.
         -1   -1    0    0    0  501 -0.00000000000E+00 -0.00000000000E+00 -0.12743201849E+04  0.12743201849E+04  0.00000000000E+00 0.  1.
         23    2    1    2    0    0  0.99788481341E+03  0.49494525848E+03 -0.85306906788E+03  0.14050710018E+04  0.75847054697E+02 0.  0.
         13    1    3    3    0    0  0.64590460961E+03  0.35795353699E+03 -0.57991289509E+03  0.93894753062E+03  0.00000000000E+00 0. -1.
        -13    1    3    3    0    0  0.35198020380E+03  0.13699172149E+03 -0.27315617278E+03  0.46612347115E+03  0.00000000000E+00 0.  1.
         22    1    1    2    0    0 -0.99788481341E+03 -0.49494525848E+03  0.19902810501E+04  0.22807813503E+04  0.00000000000E+00 0. -1.
<mgrwt>
<rscale>  0 0.35060314E+04</rscale>
<asrwt>0</asrwt>
<pdfrwt beam="1">  1        1 0.37100495E+00 0.35060314E+04</pdfrwt>
<pdfrwt beam="2">  1       -1 0.19604926E+00 0.35060314E+04</pdfrwt>
<totfact> 0.20387527E-01</totfact>
</mgrwt>
</event>
<event>
 6    1  0.1762360E-005  0.2561623E+04  0.7818608E-02  0.8381355E-01
         -1   -1    0    0    0  501 -0.00000000000E+00  0.00000000000E+00  0.12332218729E+04  0.12332218729E+04  0.00000000000E+00 0. -1.
          1   -1    0    0  501    0  0.00000000000E+00 -0.00000000000E+00 -0.13302377566E+04  0.13302377566E+04  0.00000000000E+00 0.  1.
         23    2    1    2    0    0 -0.67850121596E+02 -0.30556648532E+03  0.11926989636E+04  0.12363051911E+04  0.89135806594E+02 0.  0.
         13    1    3    3    0    0 -0.45167253766E+02 -0.28697212564E+03  0.99842243411E+03  0.10398271196E+04  0.00000000000E+00 0. -1.
        -13    1    3    3    0    0 -0.22682867829E+02 -0.18594359684E+02  0.19427652944E+03  0.19647807154E+03  0.00000000000E+00 0.  1.
         22    1    1    2    0    0  0.67850121596E+02  0.30556648532E+03 -0.12897148473E+04  0.13271544384E+04  0.00000000000E+00 0.  1.
<mgrwt>
<rscale>  0 0.25616232E+04</rscale>
<asrwt>0</asrwt>
<pdfrwt beam="1">  1        1 0.20465196E+00 0.25616232E+04</pdfrwt>
<pdfrwt beam="2">  1       -1 0.18972644E+00 0.25616232E+04</pdfrwt>
<totfact> 0.13499971E+00</totfact>
</mgrwt>
</event>
<event>
 6    1  0.1762360E-005  0.4959231E+04  0.7818608E-02  0.7834827E-01
          2   -1    0    0  501    0  0.00000000000E+00  0.00000000000E+00  0.28004473116E+04  0.28004473116E+04  0.00000000000E+00 0. -1.
         -2   -1    0    0    0  501 -0.00000000000E+00 -0.00000000000E+00 -0.21955395209E+04  0.21955395209E+04  0.00000000000E+00 0.  1.
         23    2    1    2    0    0  0.22998416156E+03  0.22647297739E+04  0.12908333723E+04  0.26185117924E+04  0.91975803838E+02 0.  0.
         11    1    3    3    0    0  0.97895422194E+01  0.18565072112E+02  0.78945750702E+01  0.22423678443E+02  0.00000000000E+00 0. -1.
        -11    1    3    3    0    0  0.22019461934E+03  0.22461647017E+04  0.12829387973E+04  0.25960881139E+04  0.00000000000E+00 0.  1.
         22    1    1    2    0    0 -0.22998416156E+03 -0.22647297739E+04 -0.68592558165E+03  0.23774750402E+04  0.00000000000E+00 0.  1.
<mgrwt>
<rscale>  0 0.49592309E+04</rscale>
<asrwt>0</asrwt>
<pdfrwt beam="1">  1        2 0.43083805E+00 0.49592309E+04</pdfrwt>
<pdfrwt beam="2">  1       -2 0.33777531E+00 0.49592309E+04</pdfrwt>
<totfact> 0.31333471E-02</totfact>
</mgrwt>
</event>
<event>
 6    1  0.1762360E-005  0.2280027E+04  0.7818608E-02  0.8485838E-01
         -2   -1    0    0    0  501 -0.00000000000E+00  0.00000000000E+00  0.15875500200E+04  0.15875500200E+04  0.00000000000E+00 0.  1.
          2   -1    0    0  501    0  0.00000000000E+00 -0.00000000000E+00 -0.81863925120E+03  0.81863925120E+03  0.00000000000E+00 0. -1.
         23    2    1    2    0    0 -0.47292807585E+03  0.84182860514E+03 -0.25093391955E+03  0.10017607206E+04  0.90666112964E+02 0.  0.
         13    1    3    3    0    0 -0.35844441983E+03  0.60771504767E+03 -0.14414478411E+03  0.72012339224E+03  0.00000000000E+00 0. -1.
        -13    1    3    3    0    0 -0.11448365601E+03  0.23411355748E+03 -0.10678913544E+03  0.28163732838E+03  0.00000000000E+00 0.  1.
         22    1    1    2    0    0  0.47292807585E+03 -0.84182860514E+03  0.10198446884E+04  0.14044285506E+04  0.00000000000E+00 0.  1.
<mgrwt>
<rscale>  0 0.22800270E+04</rscale>
<asrwt>0</asrwt>
<pdfrwt beam="1">  1        2 0.12594450E+00 0.22800270E+04</pdfrwt>
<pdfrwt beam="2">  1       -2 0.24423847E+00 0.22800270E+04</pdfrwt>
<totfact> 0.21146507E+00</totfact>
</mgrwt>
</event>
<event>
 6    1  0.1762360E-005  0.8942374E+03  0.7818608E-02  0.9432814E-01
         -2   -1    0    0    0  501 -0.00000000000E+00  0.00000000000E+00  0.13423753304E+03  0.13423753304E+03  0.00000000000E+00 0.  1.
          2   -1    0    0  501    0  0.00000000000E+00 -0.00000000000E+00 -0.14892641207E+04  0.14892641207E+04  0.00000000000E+00 0. -1.
         23    2    1    2    0    0  0.73370531684E+02 -0.42521367307E+03 -0.86096738744E+03  0.96754098724E+03  0.93170902447E+02 0.  0.
         13    1    3    3    0    0  0.23512594906E+01 -0.22841335154E+03 -0.51227487274E+03  0.56089547406E+03  0.00000000000E+00 0. -1.
        -13    1    3    3    0    0  0.71019272193E+02 -0.19680032153E+03 -0.34869251470E+03  0.40664551317E+03  0.00000000000E+00 0.  1.
         22    1    1    2    0    0 -0.73370531684E+02  0.42521367307E+03 -0.49405920026E+03  0.65596066654E+03  0.00000000000E+00 0. -1.
<mgrwt>
<rscale>  0 0.89423742E+03</rscale>
<asrwt>0</asrwt>
<pdfrwt beam="1">  1        2 0.22911755E+00 0.89423742E+03</pdfrwt>
<pdfrwt beam="2">  1       -2 0.20651929E-01 0.89423742E+03</pdfrwt>
<totfact> 0.26075269E+02</totfact>
</mgrwt>
</event>
<event>
 6    1  0.1762360E-005  0.6649857E+04  0.7818608E-02  0.7614665E-01
          2   -1    0    0  501    0  0.00000000000E+00  0.00000000000E+00  0.30871894047E+04  0.30871894047E+04  0.00000000000E+00 0.  1.
         -2   -1    0    0    0  501 -0.00000000000E+00 -0.00000000000E+00 -0.35809757238E+04  0.35809757238E+04  0.00000000000E+00 0. -1.
         23    2    1    2    0    0  0.20544914433E+04 -0.17377846771E+04  0.17103510820E+04  0.31897959191E+04  0.93094079210E+02 0.  0.
         11    1    3    3    0    0  0.16686873403E+04 -0.13688418238E+04  0.13499118453E+04  0.25456840669E+04  0.00000000000E+00 0.  1.
        -11    1    3    3    0    0  0.38580410298E+03 -0.36894285326E+03  0.36043923662E+03  0.64411185220E+03  0.00000000000E+00 0. -1.
         22    1    1    2    0    0 -0.20544914433E+04  0.17377846771E+04 -0.22041374010E+04  0.34783692094E+04  0.00000000000E+00 0. -1.
<mgrwt>
<rscale>  0 0.66498572E+04</rscale>
<asrwt>0</asrwt>
<pdfrwt beam="1">  1        2 0.47495222E+00 0.66498572E+04</pdfrwt>
<pdfrwt beam="2">  1       -2 0.55091934E+00 0.66498572E+04</pdfrwt>
<totfact> 0.84755247E-04</totfact>
</mgrwt>
</event>
<event>
 6    1  0.1762360E-005  0.2012050E+04  0.7818608E-02  0.8601007E-01
         -2   -1    0    0    0  501 -0.00000000000E+00  0.00000000000E+00  0.66410956776E+03  0.66410956776E+03  0.00000000000E+00 0.  1.
          2   -1    0    0  501    0  0.00000000000E+00 -0.00000000000E+00 -0.15239750787E+04  0.15239750787E+04  0.00000000000E+00 0. -1.
         23    2    1    2    0    0  0.35177757904E+03  0.21208875451E+03 -0.14270932182E+04  0.14877444600E+04  0.89774271971E+02 0.  0.
         13    1    3    3    0    0  0.28388830753E+03  0.20571228916E+03 -0.11415186489E+04  0.11941419274E+04  0.00000000000E+00 0.  1.
        -13    1    3    3    0    0  0.67889271510E+02  0.63764653471E+01 -0.28557456928E+03  0.29360253255E+03  0.00000000000E+00 0. -1.
         22    1    1    2    0    0 -0.35177757904E+03 -0.21208875451E+03  0.56722770725E+03  0.70034018646E+03  0.00000000000E+00 0.  1.
<mgrwt>
<rscale>  0 0.20120501E+04</rscale>
<asrwt>0</asrwt>
<pdfrwt beam="1">  1        2 0.23445770E+00 0.20120501E+04</pdfrwt>
<pdfrwt beam="2">  1       -2 0.10217070E+00 0.20120501E+04</pdfrwt>
<totfact> 0.89636942E+00</totfact>
</mgrwt>
</event>
<event>
 6    1  0.1762360E-005  0.3759573E+04  0.7818608E-02  0.8054886E-01
         -1   -1    0    0    0  501 -0.00000000000E+00  0.00000000000E+00  0.15561969597E+04  0.15561969597E+04  0.00000000000E+00 0.  1.
          1   -1    0    0  501    0  0.00000000000E+00 -0.00000000000E+00 -0.22706624392E+04  0.22706624392E+04  0.00000000000E+00 0. -1.
         23    2    1    2    0    0  0.26528110578E+03  0.17737547996E+04 -0.92659558168E+03  0.20208750870E+04  0.93683462636E+02 0.  0.
         11    1    3    3    0    0  0.23150647248E+03  0.12747559475E+04 -0.68131335604E+03  0.14638257621E+04  0.00000000000E+00 0.  1.
        -11    1    3    3    0    0  0.33774633305E+02  0.49899885210E+03 -0.24528222564E+03  0.55704932499E+03  0.00000000000E+00 0. -1.
         22    1    1    2    0    0 -0.26528110578E+03 -0.17737547996E+04  0.21213010222E+03  0.18059843118E+04  0.00000000000E+00 0.  1.
<mgrwt>
<rscale>  0 0.37595734E+04</rscale>
<asrwt>0</asrwt>
<pdfrwt beam="1">  1        1 0.34933268E+00 0.37595734E+04</pdfrwt>
<pdfrwt beam="2">  1       -1 0.23941492E+00 0.37595734E+04</pdfrwt>
<totfact> 0.12730051E-01</totfact>
</mgrwt>
</event>
<event>
 6    1  0.1762360E-005  0.2468212E+04  0.7818608E-02  0.8414398E-01
          2   -1    0    0  501    0  0.00000000000E+00  0.00000000000E+00  0.17317907918E+04  0.17317907918E+04  0.00000000000E+00 0. -1.
         -2   -1    0    0    0  501 -0.00000000000E+00 -0.00000000000E+00 -0.87944695614E+03  0.87944695614E+03  0.00000000000E+00 0.  1.
         23    2    1    2    0    0 -0.67126334280E+03  0.55452655094E+03  0.13493815433E+04  0.16086707157E+04  0.94322590952E+02 0.  0.
         13    1    3    3    0    0 -0.10571653990E+03  0.13108308884E+03  0.23218322771E+03  0.28682366398E+03  0.00000000000E+00 0.  1.
        -13    1    3    3    0    0 -0.56554680290E+03  0.42344346210E+03  0.11171983156E+04  0.13218470518E+04  0.00000000000E+00 0. -1.
         22    1    1    2    0    0  0.67126334280E+03 -0.55452655094E+03 -0.49703770769E+03  0.10025670322E+04  0.00000000000E+00 0.  1.
<mgrwt>
<rscale>  0 0.24682124E+04</rscale>
<asrwt>0</asrwt>
<pdfrwt beam="1">  1        2 0.26642935E+00 0.24682124E+04</pdfrwt>
<pdfrwt beam="2">  1       -2 0.13529953E+00 0.24682124E+04</pdfrwt>
<totfact> 0.33032763E+00</totfact>
</mgrwt>
</event>
<event>
 6    1  0.1762360E-005  0.4082007E+04  0.7818608E-02  0.7988204E-01
         -1   -1    0    0    0  501 -0.00000000000E+00  0.00000000000E+00  0.19215760147E+04  0.19215760147E+04  0.00000000000E+00 0.  1.
          1   -1    0    0  501    0  0.00000000000E+00 -0.00000000000E+00 -0.21678538996E+04  0.21678538996E+04  0.00000000000E+00 0. -1.
         23    2    1    2    0    0  0.87241392468E+03 -0.65814374669E+03 -0.18486543131E+04  0.21498759798E+04  0.10091933249E+03 0.  0.
         13    1    3    3    0    0  0.34351855936E+03 -0.26023569082E+03 -0.82729843897E+03  0.93281848316E+03  0.00000000000E+00 0. -1.
        -13    1    3    3    0    0  0.52889536533E+03 -0.39790805586E+03 -0.10213558741E+04  0.12170574966E+04  0.00000000000E+00 0.  1.
         22    1    1    2    0    0 -0.87241392468E+03  0.65814374669E+03  0.16023764282E+04  0.19395539346E+04  0.00000000000E+00 0.  1.
<mgrwt>
<rscale>  0 0.40820074E+04</rscale>
<asrwt>0</asrwt>
<pdfrwt beam="1">  1        1 0.33351598E+00 0.40820074E+04</pdfrwt>
<pdfrwt beam="2">  1       -1 0.29562708E+00 0.40820074E+04</pdfrwt>
<totfact> 0.62798157E-02</totfact>
</mgrwt>
</event>
<event>
 6    1  0.1762360E-005  0.1925890E+04  0.7818608E-02  0.8642076E-01
         -1   -1    0    0    0  501 -0.00000000000E+00  0.00000000000E+00  0.78991426990E+03  0.78991426990E+03  0.00000000000E+00 0.  1.
          1   -1    0    0  501    0  0.00000000000E+00 -0.00000000000E+00 -0.11738775915E+04  0.11738775915E+04  0.00000000000E+00 0. -1.
         23    2    1    2    0    0  0.46698929071E+03 -0.20273241122E+03 -0.10232858756E+04  0.11465325658E+04  0.90793793628E+02 0.  0.
         13    1    3    3    0    0  0.22473565737E+03 -0.12344532048E+03 -0.59890806124E+03  0.65148732041E+03  0.00000000000E+00 0. -1.
        -13    1    3    3    0    0  0.24225363335E+03 -0.79287090743E+02 -0.42437781439E+03  0.49504524538E+03  0.00000000000E+00 0.  1.
         22    1    1    2    0    0 -0.46698929071E+03  0.20273241122E+03  0.63932255402E+03  0.81725929562E+03  0.00000000000E+00 0.  1.
<mgrwt>
<rscale>  0 0.19258896E+04</rscale>
<asrwt>0</asrwt>
<pdfrwt beam="1">  1        1 0.18059655E+00 0.19258896E+04</pdfrwt>
<pdfrwt beam="2">  1       -1 0.12152527E+00 0.19258896E+04</pdfrwt>
<totfact> 0.62580373E+00</totfact>
</mgrwt>
</event>
<event>
 6    1  0.1762360E-005  0.3328055E+04  0.7818608E-02  0.8155793E-01
          1   -1    0    0  501    0  0.00000000000E+00  0.00000000000E+00  0.12459662239E+04  0.12459662239E+04  0.00000000000E+00 0. -1.
         -1   -1    0    0    0  501 -0.00000000000E+00 -0.00000000000E+00 -0.22223618965E+04  0.22223618965E+04  0.00000000000E+00 0.  1.
         23    2    1    2    0    0  0.76357375251E+03  0.13191088370E+04  0.20414895260E+03  0.15404332552E+04  0.90359390195E+02 0.  0.
         11    1    3    3    0    0  0.16341597037E+03  0.35916867021E+03  0.43709291493E+02  0.39701059834E+03  0.00000000000E+00 0. -1.
        -11    1    3    3    0    0  0.60015778214E+03  0.95994016677E+03  0.16043966111E+03  0.11434226568E+04  0.00000000000E+00 0.  1.
         22    1    1    2    0    0 -0.76357375251E+03 -0.13191088370E+04 -0.11805446252E+04  0.19278948652E+04  0.00000000000E+00 0.  1.
<mgrwt>
<rscale>  0 0.33280552E+04</rscale>
<asrwt>0</asrwt>
<pdfrwt beam="1">  1        1 0.19168711E+00 0.33280552E+04</pdfrwt>
<pdfrwt beam="2">  1       -1 0.34190183E+00 0.33280552E+04</pdfrwt>
<totfact> 0.14388125E-01</totfact>
</mgrwt>
</event>
<event>
 6    1  0.1762360E-005  0.4692537E+04  0.7818608E-02  0.7877770E-01
         -2   -1    0    0    0  501 -0.00000000000E+00  0.00000000000E+00  0.37178271347E+04  0.37178271347E+04  0.00000000000E+00 0.  1.
          2   -1    0    0  501    0  0.00000000000E+00 -0.00000000000E+00 -0.14806969766E+04  0.14806969766E+04  0.00000000000E+00 0. -1.
         23    2    1    2    0    0  0.75767806434E+03 -0.83299998273E+03  0.33982613433E+04  0.35810598459E+04  0.88568852469E+02 0.  0.
         11    1    3    3    0    0  0.46109908095E+03 -0.45702925462E+03  0.18660384112E+04  0.19757498460E+04  0.00000000000E+00 0.  1.
        -11    1    3    3    0    0  0.29657898339E+03 -0.37597072811E+03  0.15322229321E+04  0.16053099998E+04  0.00000000000E+00 0. -1.
         22    1    1    2    0    0 -0.75767806434E+03  0.83299998273E+03 -0.11611311853E+04  0.16174642654E+04  0.00000000000E+00 0. -1.
<mgrwt>
<rscale>  0 0.46925368E+04</rscale>
<asrwt>0</asrwt>
<pdfrwt beam="1">  1        2 0.22779954E+00 0.46925368E+04</pdfrwt>
<pdfrwt beam="2">  1       -2 0.57197340E+00 0.46925368E+04</pdfrwt>
<totfact> 0.65306791E-03</totfact>
</mgrwt>
</event>
<event>
 6    1  0.1762360E-005  0.9880175E+03  0.7818608E-02  0.9321786E-01
         -2   -1    0    0    0  501 -0.00000000000E+00  0.00000000000E+00  0.39319194336E+03  0.39319194336E+03  0.00000000000E+00 0.  1.
          2   -1    0    0  501    0  0.00000000000E+00 -0.00000000000E+00 -0.62067554844E+03  0.62067554844E+03  0.00000000000E+00 0. -1.
         23    2    1    2    0    0  0.41052754400E+03  0.26702480943E+03 -0.12350945425E+03  0.51322217096E+03  0.91144381286E+02 0.  0.
         11    1    3    3    0    0  0.17372756914E+03  0.89137644533E+02 -0.90506569578E+02  0.21521669798E+03  0.00000000000E+00 0. -1.
        -11    1    3    3    0    0  0.23679997486E+03  0.17788716489E+03 -0.33002884669E+02  0.29800547298E+03  0.00000000000E+00 0.  1.
         22    1    1    2    0    0 -0.41052754400E+03 -0.26702480943E+03 -0.10397415083E+03  0.50064532084E+03  0.00000000000E+00 0.  1.
<mgrwt>
<rscale>  0 0.98801746E+03</rscale>
<asrwt>0</asrwt>
<pdfrwt beam="1">  1        2 0.95488546E-01 0.98801746E+03</pdfrwt>
<pdfrwt beam="2">  1       -2 0.60491068E-01 0.98801746E+03</pdfrwt>
<totfact> 0.12110373E+02</totfact>
</mgrwt>
</event>
<event>
 6    1  0.1762360E-005  0.2173630E+04  0.7818608E-02  0.8529485E-01
          2   -1    0    0  501    0  0.00000000000E+00  0.00000000000E+00  0.93062238926E+03  0.93062238926E+03  0.00000000000E+00 0. -1.
         -2   -1    0    0    0  501 -0.00000000000E+00 -0.00000000000E+00 -0.12692220064E+04  0.12692220064E+04  0.00000000000E+00 0.  1.
         23    2    1    2    0    0  0.70683826901E+03 -0.23581360264E+03  0.62816567693E+03  0.97924473665E+03  0.95392572348E+02 0.  0.
         13    1    3    3    0    0  0.52515145722E+03 -0.15841965573E+03  0.40895334219E+03  0.68419564193E+03  0.00000000000E+00 0.  1.
        -13    1    3    3    0    0  0.18168681179E+03 -0.77393946902E+02  0.21921233474E+03  0.29504909473E+03  0.00000000000E+00 0. -1.
         22    1    1    2    0    0 -0.70683826901E+03  0.23581360264E+03 -0.96676529406E+03  0.12205996590E+04  0.00000000000E+00 0.  1.
<mgrwt>
<rscale>  0 0.21736296E+04</rscale>
<asrwt>0</asrwt>
<pdfrwt beam="1">  1        2 0.14317268E+00 0.21736296E+04</pdfrwt>
<pdfrwt beam="2">  1       -2 0.19526492E+00 0.21736296E+04</pdfrwt>
<totfact> 0.36603690E+00</totfact>
</mgrwt>
</event>
<event>
 6    1  0.1762360E-005  0.1005750E+04  0.7818608E-02  0.9302260E-01
         -2   -1    0    0    0  501 -0.00000000000E+00  0.00000000000E+00  0.38705123845E+03  0.38705123845E+03  0.00000000000E+00 0.  1.
          2   -1    0    0  501    0  0.00000000000E+00 -0.00000000000E+00 -0.65335908198E+03  0.65335908198E+03  0.00000000000E+00 0. -1.
         23    2    1    2    0    0 -0.19414242833E+03  0.40983953320E+03  0.80070423868E+02  0.46976364377E+03  0.92773286982E+02 0.  0.
         11    1    3    3    0    0 -0.73818225746E+02  0.80823049333E+02  0.42521544984E+02  0.11742903194E+03  0.00000000000E+00 0.  1.
        -11    1    3    3    0    0 -0.12032420258E+03  0.32901648387E+03  0.37548878884E+02  0.35233461183E+03  0.00000000000E+00 0. -1.
         22    1    1    2    0    0  0.19414242833E+03 -0.40983953320E+03 -0.34637826739E+03  0.57064667665E+03  0.00000000000E+00 0. -1.
<mgrwt>
<rscale>  0 0.10057504E+04</rscale>
<asrwt>0</asrwt>
<pdfrwt beam="1">  1        2 0.10051678E+00 0.10057504E+04</pdfrwt>
<pdfrwt beam="2">  1       -2 0.59546345E-01 0.10057504E+04</pdfrwt>
<totfact> 0.11742076E+02</totfact>
</mgrwt>
</event>
<event>
 6    1  0.1762360E-005  0.1435754E+04  0.7818608E-02  0.8928337E-01
          2   -1    0    0  501    0  0.00000000000E+00  0.00000000000E+00  0.34804082562E+03  0.34804082562E+03  0.00000000000E+00 0. -1.
         -2   -1    0    0    0  501 -0.00000000000E+00 -0.00000000000E+00 -0.14807098934E+04  0.14807098934E+04  0.00000000000E+00 0.  1.
         23    2    1    2    0    0  0.49533913695E+03  0.42613969407E+03 -0.19883991903E+03  0.68901707535E+03  0.90836761661E+02 0.  0.
         13    1    3    3    0    0  0.21230323305E+03  0.24051588067E+03 -0.84549942070E+02  0.33176685236E+03  0.00000000000E+00 0. -1.
        -13    1    3    3    0    0  0.28303590390E+03  0.18562381340E+03 -0.11428997696E+03  0.35725022300E+03  0.00000000000E+00 0.  1.
         22    1    1    2    0    0 -0.49533913695E+03 -0.42613969407E+03 -0.93382914872E+03  0.11397336437E+04  0.00000000000E+00 0.  1.
<mgrwt>
<rscale>  0 0.14357541E+04</rscale>
<asrwt>0</asrwt>
<pdfrwt beam="1">  1        2 0.53544742E-01 0.14357541E+04</pdfrwt>
<pdfrwt beam="2">  1       -2 0.22780152E+00 0.14357541E+04</pdfrwt>
<totfact> 0.79659384E+00</totfact>
</mgrwt>
</event>
<event>
 6    1  0.1762360E-005  0.3624451E+04  0.7818608E-02  0.8084914E-01
          2   -1    0    0  501    0  0.00000000000E+00  0.00000000000E+00  0.28797700677E+04  0.28797700677E+04  0.00000000000E+00 0. -1.
         -2   -1    0    0    0  501 -0.00000000000E+00 -0.00000000000E+00 -0.11404249209E+04  0.11404249209E+04  0.00000000000E+00 0.  1.
         23    2    1    2    0    0  0.61245239468E+02 -0.95722526516E+03 -0.83362841725E+03  0.12742481302E+04  0.93492093716E+02 0.  0.
         13    1    3    3    0    0  0.32873380143E+02 -0.75152691583E+03 -0.69827464554E+03  0.10263824068E+04  0.00000000000E+00 0. -1.
        -13    1    3    3    0    0  0.28371859325E+02 -0.20569834932E+03 -0.13535377171E+03  0.24786572339E+03  0.00000000000E+00 0.  1.
         22    1    1    2    0    0 -0.61245239468E+02  0.95722526516E+03  0.25729735641E+04  0.27459468584E+04  0.00000000000E+00 0. -1.
<mgrwt>
<rscale>  0 0.36244512E+04</rscale>
<asrwt>0</asrwt>
<pdfrwt beam="1">  1        2 0.44304155E+00 0.36244512E+04</pdfrwt>
<pdfrwt beam="2">  1       -2 0.17544999E+00 0.36244512E+04</pdfrwt>
<totfact> 0.32785421E-01</totfact>
</mgrwt>
</event>
<event>
 6    1  0.1762360E-005  0.5360545E+04  0.7818608E-02  0.7775175E-01
          2   -1    0    0  501    0  0.00000000000E+00  0.00000000000E+00  0.19523139434E+04  0.19523139434E+04  0.00000000000E+00 0. -1.
         -2   -1    0    0    0  501 -0.00000000000E+00 -0.00000000000E+00 -0.36796652540E+04  0.36796652540E+04  0.00000000000E+00 0.  1.
         23    2    1    2    0    0  0.10688684312E+04 -0.21646322360E+04 -0.20854247142E+04  0.31914200396E+04  0.89739567997E+02 0.  0.
         11    1    3    3    0    0  0.42401599060E+03 -0.78815845469E+03 -0.73331762617E+03  0.11570384829E+04  0.00000000000E+00 0. -1.
        -11    1    3    3    0    0  0.64485244064E+03 -0.13764737814E+04 -0.13521070880E+04  0.20343815567E+04  0.00000000000E+00 0.  1.
         22    1    1    2    0    0 -0.10688684312E+04  0.21646322360E+04  0.35807340358E+03  0.24405591579E+04  0.00000000000E+00 0. -1.
<mgrwt>
<rscale>  0 0.53605454E+04</rscale>
<asrwt>0</asrwt>
<pdfrwt beam="1">  1        2 0.30035599E+00 0.53605454E+04</pdfrwt>
<pdfrwt beam="2">  1       -2 0.56610235E+00 0.53605454E+04</pdfrwt>
<totfact> 0.36224136E-03</totfact>
</mgrwt>
</event>
<event>
 6    1  0.1762360E-005  0.1286966E+04  0.7818608E-02  0.9039966E-01
          2   -1    0    0  501    0  0.00000000000E+00  0.00000000000E+00  0.73485923514E+03  0.73485923514E+03  0.00000000000E+00 0. -1.
         -2   -1    0    0    0  501 -0.00000000000E+00 -0.00000000000E+00 -0.56346899284E+03  0.56346899284E+03  0.00000000000E+00 0.  1.
         23    2    1    2    0    0  0.50865544632E+03 -0.89190738065E+02 -0.29590880964E+03  0.60187022151E+03  0.89444894196E+02 0.  0.
         11    1    3    3    0    0  0.35004359146E+03 -0.69530802292E+02 -0.15611484709E+03  0.38953420116E+03  0.00000000000E+00 0.  1.
        -11    1    3    3    0    0  0.15861185486E+03 -0.19659935773E+02 -0.13979396254E+03  0.21233602035E+03  0.00000000000E+00 0. -1.
         22    1    1    2    0    0 -0.50865544632E+03  0.89190738065E+02  0.46729905194E+03  0.69645800647E+03  0.00000000000E+00 0. -1.
<mgrwt>
<rscale>  0 0.12869660E+04</rscale>
<asrwt>0</asrwt>
<pdfrwt beam="1">  1        2 0.11305527E+00 0.12869660E+04</pdfrwt>
<pdfrwt beam="2">  1       -2 0.86687538E-01 0.12869660E+04</pdfrwt>
<totfact> 0.43533039E+01</totfact>
</mgrwt>
</event>
<event>
 6    1  0.1762360E-005  0.3342917E+04  0.7818608E-02  0.8152060E-01
         -2   -1    0    0    0  501 -0.00000000000E+00  0.00000000000E+00  0.75683668601E+03  0.75683668601E+03  0.00000000000E+00 0.  1.
          2   -1    0    0  501    0  0.00000000000E+00 -0.00000000000E+00 -0.36913829946E+04  0.36913829946E+04  0.00000000000E+00 0. -1.
         23    2    1    2    0    0 -0.11698742216E+04 -0.34084449241E+03 -0.29885172310E+04  0.32285092548E+04  0.85182780798E+02 0.  0.
         13    1    3    3    0    0 -0.78441665539E+03 -0.26959408132E+03 -0.20430579029E+04  0.22050115765E+04  0.00000000000E+00 0.  1.
        -13    1    3    3    0    0 -0.38545756626E+03 -0.71250411096E+02 -0.94545932811E+03  0.10234976783E+04  0.00000000000E+00 0. -1.
         22    1    1    2    0    0  0.11698742216E+04  0.34084449241E+03  0.53970922330E+02  0.12197104259E+04  0.00000000000E+00 0.  1.
<mgrwt>
<rscale>  0 0.33429173E+04</rscale>
<asrwt>0</asrwt>
<pdfrwt beam="1">  1        2 0.56790509E+00 0.33429173E+04</pdfrwt>
<pdfrwt beam="2">  1       -2 0.11643641E+00 0.33429173E+04</pdfrwt>
<totfact> 0.28149591E-01</totfact>
</mgrwt>
</event>
<event>
 6    1  0.1762360E-005  0.3397480E+04  0.7818608E-02  0.8138525E-01
          2   -1    0    0  501    0  0.00000000000E+00  0.00000000000E+00  0.28758199746E+04  0.28758199746E+04  0.00000000000E+00 0. -1.
         -2   -1    0    0    0  501 -0.00000000000E+00 -0.00000000000E+00 -0.10034418691E+04  0.10034418691E+04  0.00000000000E+00 0.  1.
         23    2    1    2    0    0 -0.44552873733E+03 -0.11364283986E+04  0.22838160505E+04  0.25911444020E+04  0.90819591079E+02 0.  0.
         11    1    3    3    0    0 -0.92586489903E+02 -0.33853363742E+03  0.61957211576E+03  0.71207224943E+03  0.00000000000E+00 0. -1.
        -11    1    3    3    0    0 -0.35294224742E+03 -0.79789476121E+03  0.16642439348E+04  0.18790721525E+04  0.00000000000E+00 0.  1.
         22    1    1    2    0    0  0.44552873733E+03  0.11364283986E+04 -0.41143794503E+03  0.12881174417E+04  0.00000000000E+00 0.  1.
<mgrwt>
<rscale>  0 0.33974803E+04</rscale>
<asrwt>0</asrwt>
<pdfrwt beam="1">  1        2 0.44243384E+00 0.33974803E+04</pdfrwt>
<pdfrwt beam="2">  1       -2 0.15437567E+00 0.33974803E+04</pdfrwt>
<totfact> 0.47779928E-01</totfact>
</mgrwt>
</event>
<event>
 6    1  0.2403992E-005  0.2711021E+04  0.7818608E-02  0.8331438E-01
         -1   -1    0    0    0  501 -0.00000000000E+00  0.00000000000E+00  0.95545860307E+03  0.95545860307E+03  0.00000000000E+00 0.  1.
          1   -1    0    0  501    0  0.00000000000E+00 -0.00000000000E+00 -0.19230644234E+04  0.19230644234E+04  0.00000000000E+00 0. -1.
         23    2    1    2    0    0 -0.10175256888E+04  0.87601388400E+03 -0.29594921341E+03  0.13772297674E+04  0.80106447444E+02 0.  0.
         13    1    3    3    0    0 -0.52124377628E+03  0.49136423027E+03 -0.13358786285E+03  0.72868346914E+03  0.00000000000E+00 0. -1.
        -13    1    3    3    0    0 -0.49628191249E+03  0.38464965373E+03 -0.16236135057E+03  0.64854629822E+03  0.00000000000E+00 0.  1.
         22    1    1    2    0    0  0.10175256888E+04 -0.87601388400E+03 -0.67165660691E+03  0.15012932591E+04  0.00000000000E+00 0.  1.
<mgrwt>
<rscale>  0 0.27110208E+04</rscale>
<asrwt>0</asrwt>
<pdfrwt beam="1">  1        1 0.29585607E+00 0.27110208E+04</pdfrwt>
<pdfrwt beam="2">  1       -1 0.14699363E+00 0.27110208E+04</pdfrwt>
<totfact> 0.10799815E+00</totfact>
</mgrwt>
</event>
<event>
 6    1  0.1762360E-005  0.1338783E+04  0.7818608E-02  0.8999363E-01
          2   -1    0    0  501    0  0.00000000000E+00  0.00000000000E+00  0.69132745846E+03  0.69132745846E+03  0.00000000000E+00 0. -1.
         -2   -1    0    0    0  501 -0.00000000000E+00 -0.00000000000E+00 -0.64815147053E+03  0.64815147053E+03  0.00000000000E+00 0.  1.
         23    2    1    2    0    0  0.32526162855E+03  0.26436079986E+03 -0.49556090866E+03  0.65689618437E+03  0.10124338665E+03 0.  0.
         13    1    3    3    0    0  0.14303021203E+03  0.12740543616E+03 -0.30312599717E+03  0.35857378164E+03  0.00000000000E+00 0. -1.
        -13    1    3    3    0    0  0.18223141652E+03  0.13695536370E+03 -0.19243491149E+03  0.29832240273E+03  0.00000000000E+00 0.  1.
         22    1    1    2    0    0 -0.32526162855E+03 -0.26436079986E+03  0.53873689659E+03  0.68258274462E+03  0.00000000000E+00 0. -1.
<mgrwt>
<rscale>  0 0.13387829E+04</rscale>
<asrwt>0</asrwt>
<pdfrwt beam="1">  1        2 0.10635807E+00 0.13387829E+04</pdfrwt>
<pdfrwt beam="2">  1       -2 0.99715610E-01 0.13387829E+04</pdfrwt>
<totfact> 0.33846340E+01</totfact>
</mgrwt>
</event>
<event>
 6    1  0.1762360E-005  0.1447877E+04  0.7818608E-02  0.8919874E-01
         -2   -1    0    0    0  501 -0.00000000000E+00  0.00000000000E+00  0.69552066002E+03  0.69552066002E+03  0.00000000000E+00 0.  1.
          2   -1    0    0  501    0  0.00000000000E+00 -0.00000000000E+00 -0.75351700573E+03  0.75351700573E+03  0.00000000000E+00 0. -1.
         23    2    1    2    0    0 -0.35687077944E+03  0.59619533056E+03  0.15832237955E+03  0.72130185085E+03  0.11137665272E+03 0.  0.
         11    1    3    3    0    0 -0.25439546630E+03  0.33516778056E+03  0.65063838222E+02  0.42577904768E+03  0.00000000000E+00 0. -1.
        -11    1    3    3    0    0 -0.10247531314E+03  0.26102754999E+03  0.93258541331E+02  0.29552280316E+03  0.00000000000E+00 0.  1.
         22    1    1    2    0    0  0.35687077944E+03 -0.59619533056E+03 -0.21631872527E+03  0.72773581491E+03  0.00000000000E+00 0. -1.
<mgrwt>
<rscale>  0 0.14478766E+04</rscale>
<asrwt>0</asrwt>
<pdfrwt beam="1">  1        2 0.11592569E+00 0.14478766E+04</pdfrwt>
<pdfrwt beam="2">  1       -2 0.10700318E+00 0.14478766E+04</pdfrwt>
<totfact> 0.25395869E+01</totfact>
</mgrwt>
</event>
<event>
 6    1  0.1762360E-005  0.6955864E+03  0.7818608E-02  0.9724810E-01
         -2   -1    0    0    0  501 -0.00000000000E+00  0.00000000000E+00  0.11194619627E+03  0.11194619627E+03  0.00000000000E+00 0.  1.
          2   -1    0    0  501    0  0.00000000000E+00 -0.00000000000E+00 -0.10805201336E+04  0.10805201336E+04  0.00000000000E+00 0. -1.
         23    2    1    2    0    0  0.24163113419E+03 -0.28340206041E+02 -0.90435173754E+03  0.94084506041E+03  0.90269542057E+02 0.  0.
         13    1    3    3    0    0  0.18283185453E+03 -0.60357886093E+02 -0.66823416034E+03  0.69541890576E+03  0.00000000000E+00 0.  1.
        -13    1    3    3    0    0  0.58799279656E+02  0.32017680051E+02 -0.23611757720E+03  0.24542615465E+03  0.00000000000E+00 0. -1.
         22    1    1    2    0    0 -0.24163113419E+03  0.28340206041E+02 -0.64222199753E+02  0.25162126943E+03  0.00000000000E+00 0.  1.
<mgrwt>
<rscale>  0 0.69558643E+03</rscale>
<asrwt>0</asrwt>
<pdfrwt beam="1">  1        2 0.16623387E+00 0.69558643E+03</pdfrwt>
<pdfrwt beam="2">  1       -2 0.17222491E-01 0.69558643E+03</pdfrwt>
<totfact> 0.62483762E+02</totfact>
</mgrwt>
</event>
<event>
 6    1  0.1762360E-005  0.1844722E+04  0.7818608E-02  0.8682872E-01
         -1   -1    0    0    0  501 -0.00000000000E+00  0.00000000000E+00  0.46560422769E+03  0.46560422769E+03  0.00000000000E+00 0.  1.
          1   -1    0    0  501    0  0.00000000000E+00 -0.00000000000E+00 -0.18271959087E+04  0.18271959087E+04  0.00000000000E+00 0. -1.
         23    2    1    2    0    0 -0.69224832028E+03 -0.25058810418E+03 -0.13684099065E+04  0.15565606216E+04  0.91286152835E+02 0.  0.
         11    1    3    3    0    0 -0.35162208814E+02 -0.33444986233E+02 -0.11448232627E+03  0.12434287700E+03  0.00000000000E+00 0.  1.
        -11    1    3    3    0    0 -0.65708611147E+03 -0.21714311795E+03 -0.12539275802E+04  0.14322177446E+04  0.00000000000E+00 0. -1.
         22    1    1    2    0    0  0.69224832028E+03  0.25058810418E+03  0.68182255013E+01  0.73623951476E+03  0.00000000000E+00 0.  1.
<mgrwt>
<rscale>  0 0.18447224E+04</rscale>
<asrwt>0</asrwt>
<pdfrwt beam="1">  1        1 0.28110706E+00 0.18447224E+04</pdfrwt>
<pdfrwt beam="2">  1       -1 0.71631420E-01 0.18447224E+04</pdfrwt>
<totfact> 0.72201368E+00</totfact>
</mgrwt>
</event>
<event>
 6    1  0.1762360E-005  0.3113198E+04  0.7818608E-02  0.8212125E-01
          1   -1    0    0  501    0  0.00000000000E+00  0.00000000000E+00  0.28309874329E+04  0.28309874329E+04  0.00000000000E+00 0. -1.
         -1   -1    0    0    0  501 -0.00000000000E+00 -0.00000000000E+00 -0.85588514385E+03  0.85588514385E+03  0.00000000000E+00 0.  1.
         23    2    1    2    0    0 -0.27838619089E+03  0.13115086069E+04  0.19218885036E+04  0.23450881663E+04  0.90715985786E+02 0.  0.
         11    1    3    3    0    0 -0.19550245883E+03  0.91260324177E+03  0.12633681941E+04  0.15707211981E+04  0.00000000000E+00 0. -1.
        -11    1    3    3    0    0 -0.82883732059E+02  0.39890536510E+03  0.65852030955E+03  0.77436696820E+03  0.00000000000E+00 0.  1.
         22    1    1    2    0    0  0.27838619089E+03 -0.13115086069E+04  0.53213785396E+02  0.13417844105E+04  0.00000000000E+00 0.  1.
<mgrwt>
<rscale>  0 0.31131978E+04</rscale>
<asrwt>0</asrwt>
<pdfrwt beam="1">  1        1 0.43553652E+00 0.31131978E+04</pdfrwt>
<pdfrwt beam="2">  1       -1 0.13167464E+00 0.31131978E+04</pdfrwt>
<totfact> 0.32749879E-01</totfact>
</mgrwt>
</event>
<event>
 6    1  0.1762360E-005  0.2099205E+04  0.7818608E-02  0.8561594E-01
          2   -1    0    0  501    0  0.00000000000E+00  0.00000000000E+00  0.20863247680E+04  0.20863247680E+04  0.00000000000E+00 0.  1.
         -2   -1    0    0    0  501 -0.00000000000E+00 -0.00000000000E+00 -0.52804122315E+03  0.52804122315E+03  0.00000000000E+00 0. -1.
         23    2    1    2    0    0 -0.51230954920E+03 -0.85051748237E+02  0.19137562923E+04  0.19850363890E+04  0.90617026280E+02 0.  0.
         13    1    3    3    0    0 -0.22586360269E+03 -0.83190921241E+02  0.88224970371E+03  0.91449419686E+03  0.00000000000E+00 0. -1.
        -13    1    3    3    0    0 -0.28644594652E+03 -0.18608269956E+01  0.10315065885E+04  0.10705421921E+04  0.00000000000E+00 0.  1.
         22    1    1    2    0    0  0.51230954920E+03  0.85051748237E+02 -0.35547274735E+03  0.62932960219E+03  0.00000000000E+00 0. -1.
<mgrwt>
<rscale>  0 0.20992051E+04</rscale>
<asrwt>0</asrwt>
<pdfrwt beam="1">  1        2 0.32097304E+00 0.20992051E+04</pdfrwt>
<pdfrwt beam="2">  1       -2 0.81237112E-01 0.20992051E+04</pdfrwt>
<totfact> 0.73586203E+00</totfact>
</mgrwt>
</event>
<event>
 6    1  0.1762360E-005  0.1586042E+04  0.7818608E-02  0.8829169E-01
          1   -1    0    0  501    0  0.00000000000E+00  0.00000000000E+00  0.77281489006E+03  0.77281489006E+03  0.00000000000E+00 0. -1.
         -1   -1    0    0    0  501 -0.00000000000E+00 -0.00000000000E+00 -0.81375582799E+03  0.81375582799E+03  0.00000000000E+00 0.  1.
         23    2    1    2    0    0  0.17838242763E+03  0.76765340942E+03  0.39670264569E+02  0.79435217910E+03  0.91157046130E+02 0.  0.
         13    1    3    3    0    0  0.68800430018E+02  0.28611881928E+03  0.58988790172E+02  0.30012856459E+03  0.00000000000E+00 0. -1.
        -13    1    3    3    0    0  0.10958199761E+03  0.48153459015E+03 -0.19318525603E+02  0.49422361451E+03  0.00000000000E+00 0.  1.
         22    1    1    2    0    0 -0.17838242763E+03 -0.76765340942E+03 -0.80611202504E+02  0.79221853895E+03  0.00000000000E+00 0.  1.
<mgrwt>
<rscale>  0 0.15860424E+04</rscale>
<asrwt>0</asrwt>
<pdfrwt beam="1">  1        1 0.11889460E+00 0.15860424E+04</pdfrwt>
<pdfrwt beam="2">  1       -1 0.12519320E+00 0.15860424E+04</pdfrwt>
<totfact> 0.12515433E+01</totfact>
</mgrwt>
</event>
<event>
 6    1  0.1762360E-005  0.1914155E+04  0.7818608E-02  0.8647842E-01
          2   -1    0    0  501    0  0.00000000000E+00  0.00000000000E+00  0.11140642533E+04  0.11140642533E+04  0.00000000000E+00 0. -1.
         -2   -1    0    0    0  501 -0.00000000000E+00 -0.00000000000E+00 -0.82221250997E+03  0.82221250997E+03  0.00000000000E+00 0.  1.
         23    2    1    2    0    0 -0.21304418856E+03 -0.65475664477E+03  0.81552817172E+03  0.10712154406E+04  0.91226264034E+02 0.  0.
         13    1    3    3    0    0 -0.13581308850E+03 -0.39655437150E+03  0.56285371934E+03  0.70178691491E+03  0.00000000000E+00 0.  1.
        -13    1    3    3    0    0 -0.77231100053E+02 -0.25820227328E+03  0.25267445238E+03  0.36942852573E+03  0.00000000000E+00 0. -1.
         22    1    1    2    0    0  0.21304418856E+03  0.65475664477E+03 -0.52367642843E+03  0.86506132259E+03  0.00000000000E+00 0.  1.
<mgrwt>
<rscale>  0 0.19141552E+04</rscale>
<asrwt>0</asrwt>
<pdfrwt beam="1">  1        2 0.17139450E+00 0.19141552E+04</pdfrwt>
<pdfrwt beam="2">  1       -2 0.12649423E+00 0.19141552E+04</pdfrwt>
<totfact> 0.92980516E+00</totfact>
</mgrwt>
</event>
<event>
 6    1  0.1762360E-005  0.1466567E+04  0.7818608E-02  0.8906995E-01
         -2   -1    0    0    0  501 -0.00000000000E+00  0.00000000000E+00  0.35932896970E+03  0.35932896970E+03  0.00000000000E+00 0.  1.
          2   -1    0    0  501    0  0.00000000000E+00 -0.00000000000E+00 -0.14964125679E+04  0.14964125679E+04  0.00000000000E+00 0. -1.
         23    2    1    2    0    0 -0.14127501462E+02 -0.66148318694E+03 -0.17928019087E+03  0.69163374191E+03  0.91957888261E+02 0.  0.
         13    1    3    3    0    0 -0.14979280649E+02 -0.52873004738E+03 -0.10416786215E+03  0.53910183208E+03  0.00000000000E+00 0.  1.
        -13    1    3    3    0    0  0.85177918693E+00 -0.13275313956E+03 -0.75112328718E+02  0.15253190983E+03  0.00000000000E+00 0. -1.
         22    1    1    2    0    0  0.14127501462E+02  0.66148318694E+03 -0.95780340736E+03  0.11641077957E+04  0.00000000000E+00 0. -1.
<mgrwt>
<rscale>  0 0.14665666E+04</rscale>
<asrwt>0</asrwt>
<pdfrwt beam="1">  1        2 0.23021731E+00 0.14665666E+04</pdfrwt>
<pdfrwt beam="2">  1       -2 0.55281381E-01 0.14665666E+04</pdfrwt>
<totfact> 0.37991973E+01</totfact>
</mgrwt>
</event>
<event>
 6    1  0.1762360E-005  0.2327997E+04  0.7818608E-02  0.8466963E-01
         -1   -1    0    0    0  501 -0.00000000000E+00  0.00000000000E+00  0.55336659010E+03  0.55336659010E+03  0.00000000000E+00 0.  1.
          1   -1    0    0  501    0  0.00000000000E+00 -0.00000000000E+00 -0.24484540291E+04  0.24484540291E+04  0.00000000000E+00 0. -1.
         23    2    1    2    0    0 -0.76414312048E+03  0.58492256529E+03 -0.10862925797E+03  0.97266267844E+03  0.90682161270E+02 0.  0.
         11    1    3    3    0    0 -0.35778485591E+03  0.27662863784E+03 -0.55885519525E+01  0.45228822482E+03  0.00000000000E+00 0.  1.
        -11    1    3    3    0    0 -0.40635826457E+03  0.30829392745E+03 -0.10304070601E+03  0.52037445362E+03  0.00000000000E+00 0. -1.
         22    1    1    2    0    0  0.76414312048E+03 -0.58492256529E+03 -0.17864581810E+04  0.20291579408E+04  0.00000000000E+00 0. -1.
<mgrwt>
<rscale>  0 0.23279971E+04</rscale>
<asrwt>0</asrwt>
<pdfrwt beam="1">  1        1 0.37668523E+00 0.23279971E+04</pdfrwt>
<pdfrwt beam="2">  1       -1 0.85133323E-01 0.23279971E+04</pdfrwt>
<totfact> 0.18093524E+00</totfact>
</mgrwt>
</event>
<event>
 6    1  0.1762360E-005  0.2538288E+04  0.7818608E-02  0.8389471E-01
          2   -1    0    0  501    0  0.00000000000E+00  0.00000000000E+00  0.93206028539E+03  0.93206028539E+03  0.00000000000E+00 0. -1.
         -2   -1    0    0    0  501 -0.00000000000E+00 -0.00000000000E+00 -0.17281359303E+04  0.17281359303E+04  0.00000000000E+00 0.  1.
         23    2    1    2    0    0 -0.16790354996E+03 -0.11027553517E+04  0.23268802178E+03  0.11427590177E+04  0.86564942674E+02 0.  0.
         13    1    3    3    0    0 -0.12966363812E+02 -0.13477500509E+03  0.56678238718E+02  0.14678164508E+03  0.00000000000E+00 0. -1.
        -13    1    3    3    0    0 -0.15493718615E+03 -0.96798034663E+03  0.17600978306E+03  0.99597737266E+03  0.00000000000E+00 0.  1.
         22    1    1    2    0    0  0.16790354996E+03  0.11027553517E+04 -0.10287636667E+04  0.15174371980E+04  0.00000000000E+00 0. -1.
<mgrwt>
<rscale>  0 0.25382883E+04</rscale>
<asrwt>0</asrwt>
<pdfrwt beam="1">  1        2 0.14339389E+00 0.25382883E+04</pdfrwt>
<pdfrwt beam="2">  1       -2 0.26586707E+00 0.25382883E+04</pdfrwt>
<totfact> 0.12742967E+00</totfact>
</mgrwt>
</event>
<event>
 6    1  0.1762360E-005  0.4574843E+04  0.7818608E-02  0.7897663E-01
         -2   -1    0    0    0  501 -0.00000000000E+00  0.00000000000E+00  0.12362245514E+04  0.12362245514E+04  0.00000000000E+00 0.  1.
          2   -1    0    0  501    0  0.00000000000E+00 -0.00000000000E+00 -0.42324816368E+04  0.42324816368E+04  0.00000000000E+00 0. -1.
         23    2    1    2    0    0  0.85156086050E+03  0.11503252972E+04  0.63288531973E+03  0.15675424151E+04  0.90781091882E+02 0.  0.
         11    1    3    3    0    0  0.59594033075E+03  0.73446431929E+03  0.42763337703E+03  0.10380043445E+04  0.00000000000E+00 0.  1.
        -11    1    3    3    0    0  0.25562052974E+03  0.41586097790E+03  0.20525194271E+03  0.52953807054E+03  0.00000000000E+00 0. -1.
         22    1    1    2    0    0 -0.85156086050E+03 -0.11503252972E+04 -0.36291424051E+04  0.39011637732E+04  0.00000000000E+00 0.  1.
<mgrwt>
<rscale>  0 0.45748433E+04</rscale>
<asrwt>0</asrwt>
<pdfrwt beam="1">  1        2 0.65115101E+00 0.45748433E+04</pdfrwt>
<pdfrwt beam="2">  1       -2 0.19018840E+00 0.45748433E+04</pdfrwt>
<totfact> 0.25200924E-02</totfact>
</mgrwt>
</event>
<event>
 6    1  0.1762360E-005  0.1335902E+04  0.7818608E-02  0.9001569E-01
         -2   -1    0    0    0  501 -0.00000000000E+00  0.00000000000E+00  0.18249264647E+03  0.18249264647E+03  0.00000000000E+00 0.  1.
          2   -1    0    0  501    0  0.00000000000E+00 -0.00000000000E+00 -0.24448039085E+04  0.24448039085E+04  0.00000000000E+00 0. -1.
         23    2    1    2    0    0 -0.32462422502E+03 -0.11583915743E+03 -0.22545807174E+04  0.22825366977E+04  0.89665862325E+02 0.  0.
         13    1    3    3    0    0 -0.29830420974E+03 -0.12304608212E+03 -0.19279236717E+04  0.19547417793E+04  0.00000000000E+00 0. -1.
        -13    1    3    3    0    0 -0.26320015278E+02  0.72069246908E+01 -0.32665704574E+03  0.32779491836E+03  0.00000000000E+00 0.  1.
         22    1    1    2    0    0  0.32462422502E+03  0.11583915743E+03 -0.77305445588E+01  0.34475985727E+03  0.00000000000E+00 0.  1.
<mgrwt>
<rscale>  0 0.13359023E+04</rscale>
<asrwt>0</asrwt>
<pdfrwt beam="1">  1        2 0.37612366E+00 0.13359023E+04</pdfrwt>
<pdfrwt beam="2">  1       -2 0.28075793E-01 0.13359023E+04</pdfrwt>
<totfact> 0.42651868E+01</totfact>
</mgrwt>
</event>
<event>
 6    1  0.1762360E-005  0.4412632E+04  0.7818608E-02  0.7926113E-01
         -1   -1    0    0    0  501 -0.00000000000E+00  0.00000000000E+00  0.17080178501E+04  0.17080178501E+04  0.00000000000E+00 0.  1.
          1   -1    0    0  501    0  0.00000000000E+00 -0.00000000000E+00 -0.28499879800E+04  0.28499879800E+04  0.00000000000E+00 0. -1.
         23    2    1    2    0    0 -0.96421633342E+03  0.13324216368E+04 -0.20890995922E+04  0.26600820239E+04  0.81478291537E+02 0.  0.
         13    1    3    3    0    0 -0.88865732246E+03  0.12037220597E+04 -0.18682789236E+04  0.23935590175E+04  0.00000000000E+00 0. -1.
        -13    1    3    3    0    0 -0.75559010961E+02  0.12869957711E+03 -0.22082066856E+03  0.26652300642E+03  0.00000000000E+00 0.  1.
         22    1    1    2    0    0  0.96421633342E+03 -0.13324216368E+04  0.94712946229E+03  0.18979238062E+04  0.00000000000E+00 0.  1.
<mgrwt>
<rscale>  0 0.44126320E+04</rscale>
<asrwt>0</asrwt>
<pdfrwt beam="1">  1        1 0.43845968E+00 0.44126320E+04</pdfrwt>
<pdfrwt beam="2">  1       -1 0.26277198E+00 0.44126320E+04</pdfrwt>
<totfact> 0.33431373E-02</totfact>
</mgrwt>
</event>
<event>
 6    1  0.1762360E-005  0.5681333E+04  0.7818608E-02  0.7731219E-01
         -2   -1    0    0    0  501 -0.00000000000E+00  0.00000000000E+00  0.21779185284E+04  0.21779185284E+04  0.00000000000E+00 0.  1.
          2   -1    0    0  501    0  0.00000000000E+00 -0.00000000000E+00 -0.37050912712E+04  0.37050912712E+04  0.00000000000E+00 0. -1.
         23    2    1    2    0    0 -0.25021594127E+03 -0.88477126965E+03 -0.35461627958E+04  0.36645082668E+04  0.89005877772E+02 0.  0.
         13    1    3    3    0    0 -0.10435184351E+03 -0.33562856233E+03 -0.15267705271E+04  0.15667048483E+04  0.00000000000E+00 0. -1.
        -13    1    3    3    0    0 -0.14586409775E+03 -0.54914270731E+03 -0.20193922687E+04  0.20978034185E+04  0.00000000000E+00 0.  1.
         22    1    1    2    0    0  0.25021594127E+03  0.88477126965E+03  0.20189900530E+04  0.22185015328E+04  0.00000000000E+00 0.  1.
<mgrwt>
<rscale>  0 0.56813333E+04</rscale>
<asrwt>0</asrwt>
<pdfrwt beam="1">  1        2 0.57001404E+00 0.56813333E+04</pdfrwt>
<pdfrwt beam="2">  1       -2 0.33506439E+00 0.56813333E+04</pdfrwt>
<totfact> 0.76822729E-03</totfact>
</mgrwt>
</event>
<event>
 6    1  0.1762360E-005  0.1343252E+04  0.7818608E-02  0.8995952E-01
         -2   -1    0    0    0  501 -0.00000000000E+00  0.00000000000E+00  0.10804581388E+04  0.10804581388E+04  0.00000000000E+00 0.  1.
          2   -1    0    0  501    0  0.00000000000E+00 -0.00000000000E+00 -0.41749076282E+03  0.41749076282E+03  0.00000000000E+00 0. -1.
         23    2    1    2    0    0 -0.50183088447E+03 -0.30369397321E+03  0.69078648022E+03  0.91071967166E+03  0.90333233839E+02 0.  0.
         11    1    3    3    0    0 -0.36948559459E+03 -0.20946663942E+03  0.43708463207E+03  0.60945783549E+03  0.00000000000E+00 0. -1.
        -11    1    3    3    0    0 -0.13234528987E+03 -0.94227333790E+02  0.25370184814E+03  0.30126183618E+03  0.00000000000E+00 0.  1.
         22    1    1    2    0    0  0.50183088447E+03  0.30369397321E+03 -0.27819104217E+02  0.58722922997E+03  0.00000000000E+00 0. -1.
<mgrwt>
<rscale>  0 0.13432517E+04</rscale>
<asrwt>0</asrwt>
<pdfrwt beam="1">  1        2 0.64229349E-01 0.13432517E+04</pdfrwt>
<pdfrwt beam="2">  1       -2 0.16622433E+00 0.13432517E+04</pdfrwt>
<totfact> 0.16774075E+01</totfact>
</mgrwt>
</event>
<event>
 6    1  0.1762360E-005  0.5594396E+04  0.7818608E-02  0.7742832E-01
          2   -1    0    0  501    0  0.00000000000E+00  0.00000000000E+00  0.28544708704E+04  0.28544708704E+04  0.00000000000E+00 0. -1.
         -2   -1    0    0    0  501 -0.00000000000E+00 -0.00000000000E+00 -0.27410741125E+04  0.27410741125E+04  0.00000000000E+00 0.  1.
         23    2    1    2    0    0 -0.15203509137E+04  0.17326802069E+04  0.16399076254E+04  0.28307876647E+04  0.10204990381E+03 0.  0.
         13    1    3    3    0    0 -0.90230988705E+03  0.10273282702E+04  0.10339334215E+04  0.17142300975E+04  0.00000000000E+00 0.  1.
        -13    1    3    3    0    0 -0.61804102665E+03  0.70535193663E+03  0.60597420390E+03  0.11165575672E+04  0.00000000000E+00 0. -1.
         22    1    1    2    0    0  0.15203509137E+04 -0.17326802069E+04 -0.15265108674E+04  0.27647573182E+04  0.00000000000E+00 0.  1.
<mgrwt>
<rscale>  0 0.55943958E+04</rscale>
<asrwt>0</asrwt>
<pdfrwt beam="1">  1        2 0.43914937E+00 0.55943958E+04</pdfrwt>
<pdfrwt beam="2">  1       -2 0.42170371E+00 0.55943958E+04</pdfrwt>
<totfact> 0.79659588E-03</totfact>
</mgrwt>
</event>
<event>
 6    1  0.1762360E-005  0.2597259E+04  0.7818608E-02  0.8369133E-01
          2   -1    0    0  501    0  0.00000000000E+00  0.00000000000E+00  0.11758792974E+04  0.11758792974E+04  0.00000000000E+00 0. -1.
         -2   -1    0    0    0  501 -0.00000000000E+00 -0.00000000000E+00 -0.14341932211E+04  0.14341932211E+04  0.00000000000E+00 0.  1.
         23    2    1    2    0    0 -0.11788431872E+04 -0.38374711639E+03  0.25329632731E+03  0.12689244439E+04  0.95273845007E+02 0.  0.
         13    1    3    3    0    0 -0.46784195721E+03 -0.12519221954E+03  0.13844717290E+03  0.50370309553E+03  0.00000000000E+00 0.  1.
        -13    1    3    3    0    0 -0.71100122996E+03 -0.25855489684E+03  0.11484915442E+03  0.76522134834E+03  0.00000000000E+00 0. -1.
         22    1    1    2    0    0  0.11788431872E+04  0.38374711639E+03 -0.51161025093E+03  0.13411480746E+04  0.00000000000E+00 0.  1.
<mgrwt>
<rscale>  0 0.25972586E+04</rscale>
<asrwt>0</asrwt>
<pdfrwt beam="1">  1        2 0.18090451E+00 0.25972586E+04</pdfrwt>
<pdfrwt beam="2">  1       -2 0.22064511E+00 0.25972586E+04</pdfrwt>
<totfact> 0.16963527E+00</totfact>
</mgrwt>
</event>
<event>
 6    1  0.1762360E-005  0.3485853E+04  0.7818608E-02  0.8117151E-01
          1   -1    0    0  501    0  0.00000000000E+00  0.00000000000E+00  0.36305154166E+04  0.36305154166E+04  0.00000000000E+00 0. -1.
         -1   -1    0    0    0  501 -0.00000000000E+00 -0.00000000000E+00 -0.83673875735E+03  0.83673875735E+03  0.00000000000E+00 0.  1.
         23    2    1    2    0    0 -0.90368839091E+03  0.14689253911E+04  0.17094729011E+04  0.24300725049E+04  0.92521712069E+02 0.  0.
         13    1    3    3    0    0 -0.90334411138E+02  0.20057389771E+03  0.23568135388E+03  0.32239090378E+03  0.00000000000E+00 0.  1.
        -13    1    3    3    0    0 -0.81335397978E+03  0.12683514934E+04  0.14737915472E+04  0.21076816012E+04  0.00000000000E+00 0. -1.
         22    1    1    2    0    0  0.90368839091E+03 -0.14689253911E+04  0.10843037581E+04  0.20371816690E+04  0.00000000000E+00 0.  1.
<mgrwt>
<rscale>  0 0.34858531E+04</rscale>
<asrwt>0</asrwt>
<pdfrwt beam="1">  1        1 0.55854083E+00 0.34858531E+04</pdfrwt>
<pdfrwt beam="2">  1       -1 0.12872904E+00 0.34858531E+04</pdfrwt>
<totfact> 0.83321418E-02</totfact>
</mgrwt>
</event>
<event>
 6    1  0.1762360E-005  0.4559352E+04  0.7818608E-02  0.7900328E-01
         -2   -1    0    0    0  501 -0.00000000000E+00  0.00000000000E+00  0.51399472492E+04  0.51399472492E+04  0.00000000000E+00 0.  1.
          2   -1    0    0  501    0  0.00000000000E+00 -0.00000000000E+00 -0.10110847929E+04  0.10110847929E+04  0.00000000000E+00 0. -1.
         23    2    1    2    0    0  0.13855891373E+04 -0.85459333621E+03 -0.85965617522E+02  0.16327400285E+04  0.90900415688E+02 0.  0.
         11    1    3    3    0    0  0.64579916768E+03 -0.35112240018E+03 -0.17941706530E+02  0.73529953741E+03  0.00000000000E+00 0. -1.
        -11    1    3    3    0    0  0.73978996960E+03 -0.50347093603E+03 -0.68023910991E+02  0.89744049107E+03  0.00000000000E+00 0.  1.
         22    1    1    2    0    0 -0.13855891373E+04  0.85459333621E+03  0.42148280739E+04  0.45182920136E+04  0.00000000000E+00 0.  1.
<mgrwt>
<rscale>  0 0.45593519E+04</rscale>
<asrwt>0</asrwt>
<pdfrwt beam="1">  1        2 0.15555151E+00 0.45593519E+04</pdfrwt>
<pdfrwt beam="2">  1       -2 0.79076110E+00 0.45593519E+04</pdfrwt>
<totfact> 0.16626717E-03</totfact>
</mgrwt>
</event>
<event>
 6    1  0.1762360E-005  0.1463273E+04  0.7818608E-02  0.8909250E-01
         -2   -1    0    0    0  501 -0.00000000000E+00  0.00000000000E+00  0.18815264041E+03  0.18815264041E+03  0.00000000000E+00 0.  1.
          2   -1    0    0  501    0  0.00000000000E+00 -0.00000000000E+00 -0.28449887640E+04  0.28449887640E+04  0.00000000000E+00 0. -1.
         23    2    1    2    0    0 -0.35653301288E+03  0.61684932392E+03 -0.16517273194E+04  0.18011257446E+04  0.90729998183E+02 0.  0.
         11    1    3    3    0    0 -0.33425957597E+03  0.60821899492E+03 -0.16057971821E+04  0.17493554241E+04  0.00000000000E+00 0. -1.
        -11    1    3    3    0    0 -0.22273436908E+02  0.86303290034E+01 -0.45930137309E+02  0.51770320490E+02  0.00000000000E+00 0.  1.
         22    1    1    2    0    0  0.35653301288E+03 -0.61684932392E+03 -0.10051088042E+04  0.12320156598E+04  0.00000000000E+00 0.  1.
<mgrwt>
<rscale>  0 0.14632732E+04</rscale>
<asrwt>0</asrwt>
<pdfrwt beam="1">  1        2 0.43769057E+00 0.14632732E+04</pdfrwt>
<pdfrwt beam="2">  1       -2 0.28946561E-01 0.14632732E+04</pdfrwt>
<totfact> 0.23200610E+01</totfact>
</mgrwt>
</event>
<event>
 6    1  0.1762360E-005  0.5063873E+04  0.7818608E-02  0.7818729E-01
         -2   -1    0    0    0  501 -0.00000000000E+00  0.00000000000E+00  0.17620259568E+04  0.17620259568E+04  0.00000000000E+00 0. -1.
          2   -1    0    0  501    0  0.00000000000E+00 -0.00000000000E+00 -0.36382572289E+04  0.36382572289E+04  0.00000000000E+00 0.  1.
         23    2    1    2    0    0  0.21270892433E+04 -0.56396553984E+03 -0.22720451384E+04  0.31643864090E+04  0.92663128286E+02 0.  0.
         11    1    3    3    0    0  0.54560062336E+03 -0.18604660033E+03 -0.60561657269E+03  0.83610095731E+03  0.00000000000E+00 0.  1.
        -11    1    3    3    0    0  0.15814886200E+04 -0.37791893951E+03 -0.16664285657E+04  0.23282854517E+04  0.00000000000E+00 0. -1.
         22    1    1    2    0    0 -0.21270892433E+04  0.56396553984E+03  0.39581386636E+03  0.22358967767E+04  0.00000000000E+00 0.  1.
<mgrwt>
<rscale>  0 0.50638735E+04</rscale>
<asrwt>0</asrwt>
<pdfrwt beam="1">  1        2 0.55973188E+00 0.50638735E+04</pdfrwt>
<pdfrwt beam="2">  1       -2 0.27108092E+00 0.50638735E+04</pdfrwt>
<totfact> 0.22340860E-02</totfact>
</mgrwt>
</event>
<event>
 6    1  0.1762360E-005  0.2138409E+04  0.7818608E-02  0.8544510E-01
         -1   -1    0    0    0  501 -0.00000000000E+00  0.00000000000E+00  0.10946579229E+04  0.10946579229E+04  0.00000000000E+00 0.  1.
          1   -1    0    0  501    0  0.00000000000E+00 -0.00000000000E+00 -0.10443424969E+04  0.10443424969E+04  0.00000000000E+00 0. -1.
         23    2    1    2    0    0 -0.24410061429E+03 -0.82757771403E+03 -0.60313227465E+03  0.10566585699E+04  0.91042901828E+02 0.  0.
         11    1    3    3    0    0 -0.22466179488E+03 -0.65899430879E+03 -0.45811460177E+03  0.83343590602E+03  0.00000000000E+00 0. -1.
        -11    1    3    3    0    0 -0.19438819408E+02 -0.16858340525E+03 -0.14501767288E+03  0.22322266388E+03  0.00000000000E+00 0.  1.
         22    1    1    2    0    0  0.24410061429E+03  0.82757771403E+03  0.65344770058E+03  0.10823418499E+04  0.00000000000E+00 0.  1.
<mgrwt>
<rscale>  0 0.21384086E+04</rscale>
<asrwt>0</asrwt>
<pdfrwt beam="1">  1        1 0.16066808E+00 0.21384086E+04</pdfrwt>
<pdfrwt beam="2">  1       -1 0.16840891E+00 0.21384086E+04</pdfrwt>
<totfact> 0.32393011E+00</totfact>
</mgrwt>
</event>
<event>
 6    1  0.1762360E-005  0.3505263E+04  0.7818608E-02  0.8112544E-01
          2   -1    0    0  501    0  0.00000000000E+00  0.00000000000E+00  0.19998179178E+04  0.19998179178E+04  0.00000000000E+00 0. -1.
         -2   -1    0    0    0  501 -0.00000000000E+00 -0.00000000000E+00 -0.15359984150E+04  0.15359984150E+04  0.00000000000E+00 0.  1.
         23    2    1    2    0    0 -0.10449963136E+04  0.12359109178E+03 -0.11801841012E+04  0.15838839817E+04  0.92530543623E+02 0.  0.
         11    1    3    3    0    0 -0.52898233943E+03  0.25107549387E+02 -0.55121081896E+03  0.76438607483E+03  0.00000000000E+00 0. -1.
        -11    1    3    3    0    0 -0.51601397420E+03  0.98483542396E+02 -0.62897328220E+03  0.81949790690E+03  0.00000000000E+00 0.  1.
         22    1    1    2    0    0  0.10449963136E+04 -0.12359109178E+03  0.16440036040E+04  0.19519323511E+04  0.00000000000E+00 0. -1.
<mgrwt>
<rscale>  0 0.35052630E+04</rscale>
<asrwt>0</asrwt>
<pdfrwt beam="1">  1        2 0.30766429E+00 0.35052630E+04</pdfrwt>
<pdfrwt beam="2">  1       -2 0.23630745E+00 0.35052630E+04</pdfrwt>
<totfact> 0.42866145E-01</totfact>
</mgrwt>
</event>
<event>
 6    1  0.1762360E-005  0.1646578E+04  0.7818608E-02  0.8792433E-01
          1   -1    0    0  501    0  0.00000000000E+00  0.00000000000E+00  0.11047672362E+04  0.11047672362E+04  0.00000000000E+00 0. -1.
         -1   -1    0    0    0  501 -0.00000000000E+00 -0.00000000000E+00 -0.61352728895E+03  0.61352728895E+03  0.00000000000E+00 0.  1.
         23    2    1    2    0    0 -0.37143158844E+03 -0.38142983308E+03 -0.40550251432E+03  0.67541524889E+03  0.91122592482E+02 0.  0.
         13    1    3    3    0    0 -0.27855864951E+03 -0.29139636583E+03 -0.35294427811E+03  0.53579513500E+03  0.00000000000E+00 0. -1.
        -13    1    3    3    0    0 -0.92872938931E+02 -0.90033467240E+02 -0.52558236211E+02  0.13962011389E+03  0.00000000000E+00 0.  1.
         22    1    1    2    0    0  0.37143158844E+03  0.38142983308E+03  0.89674246158E+03  0.10428792763E+04  0.00000000000E+00 0. -1.
<mgrwt>
<rscale>  0 0.16465781E+04</rscale>
<asrwt>0</asrwt>
<pdfrwt beam="1">  1        1 0.16996419E+00 0.16465781E+04</pdfrwt>
<pdfrwt beam="2">  1       -1 0.94388814E-01 0.16465781E+04</pdfrwt>
<totfact> 0.13059866E+01</totfact>
</mgrwt>
</event>
<event>
 6    1  0.1762360E-005  0.7696175E+04  0.7818608E-02  0.7509611E-01
          2   -1    0    0  501    0  0.00000000000E+00  0.00000000000E+00  0.33511592052E+04  0.33511592052E+04  0.00000000000E+00 0.  1.
         -2   -1    0    0    0  501 -0.00000000000E+00 -0.00000000000E+00 -0.44187025695E+04  0.44187025695E+04  0.00000000000E+00 0. -1.
         23    2    1    2    0    0 -0.12202966686E+04  0.29828327032E+03  0.31372514869E+04  0.33814228030E+04  0.11651785959E+03 0.  0.
         11    1    3    3    0    0 -0.21425434286E+03  0.59409520159E+02  0.44552514182E+03  0.49792275156E+03  0.00000000000E+00 0. -1.
        -11    1    3    3    0    0 -0.10060423257E+04  0.23887375016E+03  0.26917263451E+04  0.28835000514E+04  0.00000000000E+00 0.  1.
         22    1    1    2    0    0  0.12202966686E+04 -0.29828327032E+03 -0.42047948512E+04  0.43884389718E+04  0.00000000000E+00 0. -1.
<mgrwt>
<rscale>  0 0.76961746E+04</rscale>
<asrwt>0</asrwt>
<pdfrwt beam="1">  1        2 0.51556296E+00 0.76961746E+04</pdfrwt>
<pdfrwt beam="2">  1       -2 0.67980039E+00 0.76961746E+04</pdfrwt>
<totfact> 0.16795919E-04</totfact>
</mgrwt>
</event>
<event>
 6    1  0.1762360E-005  0.2306018E+04  0.7818608E-02  0.8475552E-01
         -1   -1    0    0    0  501 -0.00000000000E+00  0.00000000000E+00  0.11480759397E+04  0.11480759397E+04  0.00000000000E+00 0.  1.
          1   -1    0    0  501    0  0.00000000000E+00 -0.00000000000E+00 -0.11579627609E+04  0.11579627609E+04  0.00000000000E+00 0. -1.
         23    2    1    2    0    0 -0.97678365612E+03  0.26364417887E+00 -0.61418995768E+03  0.11574357835E+04  0.91224495368E+02 0.  0.
         13    1    3    3    0    0 -0.24957997216E+03 -0.32344345647E+02 -0.18556053717E+03  0.31268039938E+03  0.00000000000E+00 0. -1.
        -13    1    3    3    0    0 -0.72720368396E+03  0.32607989826E+02 -0.42862942051E+03  0.84475538417E+03  0.00000000000E+00 0.  1.
         22    1    1    2    0    0  0.97678365612E+03 -0.26364417887E+00  0.60430313640E+03  0.11486029170E+04  0.00000000000E+00 0.  1.
<mgrwt>
<rscale>  0 0.23060175E+04</rscale>
<asrwt>0</asrwt>
<pdfrwt beam="1">  1        1 0.17814812E+00 0.23060175E+04</pdfrwt>
<pdfrwt beam="2">  1       -1 0.17662707E+00 0.23060175E+04</pdfrwt>
<totfact> 0.22820181E+00</totfact>
</mgrwt>
</event>
<event>
 6    1  0.1762360E-005  0.1334866E+04  0.7818608E-02  0.9002364E-01
         -1   -1    0    0    0  501 -0.00000000000E+00  0.00000000000E+00  0.49484731443E+03  0.49484731443E+03  0.00000000000E+00 0.  1.
          1   -1    0    0  501    0  0.00000000000E+00 -0.00000000000E+00 -0.90021084196E+03  0.90021084196E+03  0.00000000000E+00 0. -1.
         23    2    1    2    0    0 -0.41380320021E+03 -0.17758044252E+03  0.30660643329E+03  0.55263953885E+03  0.92924985292E+02 0.  0.
         13    1    3    3    0    0 -0.29005043689E+03 -0.16774851582E+03  0.21123752691E+03  0.39609356632E+03  0.00000000000E+00 0. -1.
        -13    1    3    3    0    0 -0.12375276332E+03 -0.98319266977E+01  0.95368906378E+02  0.15654597253E+03  0.00000000000E+00 0.  1.
         22    1    1    2    0    0  0.41380320021E+03  0.17758044252E+03 -0.71196996082E+03  0.84241861754E+03  0.00000000000E+00 0. -1.
<mgrwt>
<rscale>  0 0.13348662E+04</rscale>
<asrwt>0</asrwt>
<pdfrwt beam="1">  1        1 0.13849397E+00 0.13348662E+04</pdfrwt>
<pdfrwt beam="2">  1       -1 0.76130357E-01 0.13348662E+04</pdfrwt>
<totfact> 0.30892848E+01</totfact>
</mgrwt>
</event>
<event>
 6    1  0.1762360E-005  0.6969595E+03  0.7818608E-02  0.9722446E-01
         -2   -1    0    0    0  501 -0.00000000000E+00  0.00000000000E+00  0.66757935999E+03  0.66757935999E+03  0.00000000000E+00 0.  1.
          2   -1    0    0  501    0  0.00000000000E+00 -0.00000000000E+00 -0.18190813878E+03  0.18190813878E+03  0.00000000000E+00 0. -1.
         23    2    1    2    0    0  0.37845079471E+02 -0.29359482783E+03  0.37053043056E+02  0.31200406392E+03  0.91342404892E+02 0.  0.
         11    1    3    3    0    0  0.35645660731E+02 -0.15804349878E+03 -0.23167473953E+02  0.16366151803E+03  0.00000000000E+00 0. -1.
        -11    1    3    3    0    0  0.21994187396E+01 -0.13555132905E+03  0.60220517010E+02  0.14834254589E+03  0.00000000000E+00 0.  1.
         22    1    1    2    0    0 -0.37845079471E+02  0.29359482783E+03  0.44861817815E+03  0.53748343485E+03  0.00000000000E+00 0.  1.
<mgrwt>
<rscale>  0 0.69695945E+03</rscale>
<asrwt>0</asrwt>
<pdfrwt beam="1">  1        2 0.27985868E-01 0.69695945E+03</pdfrwt>
<pdfrwt beam="2">  1       -2 0.10270452E+00 0.69695945E+03</pdfrwt>
<totfact> 0.15083801E+02</totfact>
</mgrwt>
</event>
<event>
 6    1  0.1762360E-005  0.3021181E+04  0.7818608E-02  0.8237708E-01
         -2   -1    0    0    0  501 -0.00000000000E+00  0.00000000000E+00  0.89980946512E+03  0.89980946512E+03  0.00000000000E+00 0.  1.
          2   -1    0    0  501    0  0.00000000000E+00 -0.00000000000E+00 -0.25359631325E+04  0.25359631325E+04  0.00000000000E+00 0. -1.
         23    2    1    2    0    0 -0.56191743849E+03  0.13936282055E+04 -0.65872692657E+03  0.16432007534E+04  0.90756649647E+02 0.  0.
         11    1    3    3    0    0 -0.46554400317E+03  0.12104445183E+04 -0.59299651950E+03  0.14260266558E+04  0.00000000000E+00 0. -1.
        -11    1    3    3    0    0 -0.96373435314E+02  0.18318368721E+03 -0.65730407064E+02  0.21717409769E+03  0.00000000000E+00 0.  1.
         22    1    1    2    0    0  0.56191743849E+03 -0.13936282055E+04 -0.97742674086E+03  0.17925718442E+04  0.00000000000E+00 0. -1.
<mgrwt>
<rscale>  0 0.30211810E+04</rscale>
<asrwt>0</asrwt>
<pdfrwt beam="1">  1        2 0.39014817E+00 0.30211810E+04</pdfrwt>
<pdfrwt beam="2">  1       -2 0.13843223E+00 0.30211810E+04</pdfrwt>
<totfact> 0.10481493E+00</totfact>
</mgrwt>
</event>
<event>
 6    1  0.1762360E-005  0.5678970E+04  0.7818608E-02  0.7731532E-01
          2   -1    0    0  501    0  0.00000000000E+00  0.00000000000E+00  0.35403111192E+04  0.35403111192E+04  0.00000000000E+00 0. -1.
         -2   -1    0    0    0  501 -0.00000000000E+00 -0.00000000000E+00 -0.22773915788E+04  0.22773915788E+04  0.00000000000E+00 0.  1.
         23    2    1    2    0    0  0.17561708784E+04  0.22246727156E+04  0.79360434778E+03  0.29448014474E+04  0.93503251216E+02 0.  0.
         13    1    3    3    0    0  0.59461584333E+03  0.77187132936E+03  0.22839784640E+03  0.10007591751E+04  0.00000000000E+00 0.  1.
        -13    1    3    3    0    0  0.11615550350E+04  0.14528013863E+04  0.56520650138E+03  0.19440422723E+04  0.00000000000E+00 0. -1.
         22    1    1    2    0    0 -0.17561708784E+04 -0.22246727156E+04  0.46931519269E+03  0.28729012506E+04  0.00000000000E+00 0. -1.
<mgrwt>
<rscale>  0 0.56789699E+04</rscale>
<asrwt>0</asrwt>
<pdfrwt beam="1">  1        2 0.54466325E+00 0.56789699E+04</pdfrwt>
<pdfrwt beam="2">  1       -2 0.35036793E+00 0.56789699E+04</pdfrwt>
<totfact> 0.81141498E-03</totfact>
</mgrwt>
</event>
<event>
 6    1  0.1762360E-005  0.1773337E+04  0.7818608E-02  0.8720609E-01
          1   -1    0    0  501    0  0.00000000000E+00  0.00000000000E+00  0.32011635028E+03  0.32011635028E+03  0.00000000000E+00 0. -1.
         -1   -1    0    0    0  501 -0.00000000000E+00 -0.00000000000E+00 -0.24559223739E+04  0.24559223739E+04  0.00000000000E+00 0.  1.
         23    2    1    2    0    0  0.19129097410E+03 -0.44386181640E+03  0.88580894416E+02  0.49974728635E+03  0.91078134191E+02 0.  0.
         11    1    3    3    0    0  0.17022260255E+03 -0.38040913185E+03  0.43306710503E+02  0.41900156705E+03  0.00000000000E+00 0. -1.
        -11    1    3    3    0    0  0.21068371548E+02 -0.63452684544E+02  0.45274183913E+02  0.80745719295E+02  0.00000000000E+00 0.  1.
         22    1    1    2    0    0 -0.19129097410E+03  0.44386181640E+03 -0.22243869180E+04  0.22762914378E+04  0.00000000000E+00 0.  1.
<mgrwt>
<rscale>  0 0.17733369E+04</rscale>
<asrwt>0</asrwt>
<pdfrwt beam="1">  1        1 0.49248667E-01 0.17733369E+04</pdfrwt>
<pdfrwt beam="2">  1       -1 0.37783423E+00 0.17733369E+04</pdfrwt>
<totfact> 0.77322771E-01</totfact>
</mgrwt>
</event>
<event>
 6    1  0.1762360E-005  0.2318683E+04  0.7818608E-02  0.8470591E-01
         -1   -1    0    0    0  501 -0.00000000000E+00  0.00000000000E+00  0.77583488401E+03  0.77583488401E+03  0.00000000000E+00 0.  1.
          1   -1    0    0  501    0  0.00000000000E+00 -0.00000000000E+00 -0.17324216081E+04  0.17324216081E+04  0.00000000000E+00 0. -1.
         23    2    1    2    0    0  0.95508009522E+03 -0.39116543098E+03 -0.10460226110E+04  0.14723090221E+04  0.91335487442E+02 0.  0.
         11    1    3    3    0    0  0.19204572157E+03 -0.69327823913E+02 -0.25953480412E+03  0.33022147249E+03  0.00000000000E+00 0.  1.
        -11    1    3    3    0    0  0.76303437365E+03 -0.32183760707E+03 -0.78648780684E+03  0.11420875496E+04  0.00000000000E+00 0. -1.
         22    1    1    2    0    0 -0.95508009522E+03  0.39116543098E+03  0.89435886894E+02  0.10359474700E+04  0.00000000000E+00 0. -1.
<mgrwt>
<rscale>  0 0.23186833E+04</rscale>
<asrwt>0</asrwt>
<pdfrwt beam="1">  1        1 0.26652640E+00 0.23186833E+04</pdfrwt>
<pdfrwt beam="2">  1       -1 0.11935921E+00 0.23186833E+04</pdfrwt>
<totfact> 0.25636725E+00</totfact>
</mgrwt>
</event>
<event>
 6    1  0.1762360E-005  0.3398242E+04  0.7818608E-02  0.8138338E-01
         -1   -1    0    0    0  501 -0.00000000000E+00  0.00000000000E+00  0.35571966567E+04  0.35571966567E+04  0.00000000000E+00 0.  1.
          1   -1    0    0  501    0  0.00000000000E+00 -0.00000000000E+00 -0.81159777595E+03  0.81159777595E+03  0.00000000000E+00 0. -1.
         23    2    1    2    0    0 -0.13739149471E+04 -0.32539275897E+03  0.16140095038E+03  0.14240360940E+04  0.91136165890E+02 0.  0.
         11    1    3    3    0    0 -0.29314270160E+03 -0.66070019763E+02  0.71978915982E+02  0.30899652969E+03  0.00000000000E+00 0.  1.
        -11    1    3    3    0    0 -0.10807722455E+04 -0.25932273921E+03  0.89422034396E+02  0.11150395643E+04  0.00000000000E+00 0. -1.
         22    1    1    2    0    0  0.13739149471E+04  0.32539275897E+03  0.25841979304E+04  0.29447583386E+04  0.00000000000E+00 0.  1.
<mgrwt>
<rscale>  0 0.33982424E+04</rscale>
<asrwt>0</asrwt>
<pdfrwt beam="1">  1        1 0.12486120E+00 0.33982424E+04</pdfrwt>
<pdfrwt beam="2">  1       -1 0.54726102E+00 0.33982424E+04</pdfrwt>
<totfact> 0.13760247E-02</totfact>
</mgrwt>
</event>
<event>
 6    1  0.1762360E-005  0.4054875E+04  0.7818608E-02  0.7993567E-01
          1   -1    0    0  501    0  0.00000000000E+00  0.00000000000E+00  0.16976343524E+04  0.16976343524E+04  0.00000000000E+00 0. -1.
         -1   -1    0    0    0  501 -0.00000000000E+00 -0.00000000000E+00 -0.24213117082E+04  0.24213117082E+04  0.00000000000E+00 0.  1.
         23    2    1    2    0    0  0.87853887877E+03  0.13534291321E+04  0.88303789597E+03  0.18418569369E+04  0.95289417532E+02 0.  0.
         13    1    3    3    0    0  0.56883296123E+03  0.87202631698E+03  0.62122239641E+03  0.12124017903E+04  0.00000000000E+00 0. -1.
        -13    1    3    3    0    0  0.30970591754E+03  0.48140281516E+03  0.26181549956E+03  0.62945514663E+03  0.00000000000E+00 0.  1.
         22    1    1    2    0    0 -0.87853887877E+03 -0.13534291321E+04 -0.16067152518E+04  0.22770891237E+04  0.00000000000E+00 0. -1.
<mgrwt>
<rscale>  0 0.40548746E+04</rscale>
<asrwt>0</asrwt>
<pdfrwt beam="1">  1        1 0.26117452E+00 0.40548746E+04</pdfrwt>
<pdfrwt beam="2">  1       -1 0.37250949E+00 0.40548746E+04</pdfrwt>
<totfact> 0.40945072E-02</totfact>
</mgrwt>
</event>
<event>
 6    1  0.1762360E-005  0.1803668E+04  0.7818608E-02  0.8704351E-01
         -2   -1    0    0    0  501 -0.00000000000E+00  0.00000000000E+00  0.48513651702E+03  0.48513651702E+03  0.00000000000E+00 0.  1.
          2   -1    0    0  501    0  0.00000000000E+00 -0.00000000000E+00 -0.16764442547E+04  0.16764442547E+04  0.00000000000E+00 0. -1.
         23    2    1    2    0    0  0.12068972567E+03 -0.80694163141E+03 -0.10510787421E+04  0.13337009631E+04  0.90944655205E+02 0.  0.
         11    1    3    3    0    0  0.70198375819E+02 -0.37913815710E+03 -0.42627148760E+03  0.57478773063E+03  0.00000000000E+00 0. -1.
        -11    1    3    3    0    0  0.50491349847E+02 -0.42780347430E+03 -0.62480725453E+03  0.75891323243E+03  0.00000000000E+00 0.  1.
         22    1    1    2    0    0 -0.12068972567E+03  0.80694163141E+03 -0.14022899554E+03  0.82787980865E+03  0.00000000000E+00 0.  1.
<mgrwt>
<rscale>  0 0.18036677E+04</rscale>
<asrwt>0</asrwt>
<pdfrwt beam="1">  1        2 0.25791450E+00 0.18036677E+04</pdfrwt>
<pdfrwt beam="2">  1       -2 0.74636387E-01 0.18036677E+04</pdfrwt>
<totfact> 0.15396642E+01</totfact>
</mgrwt>
</event>
<event>
 6    1  0.1762360E-005  0.2206849E+04  0.7818608E-02  0.8515583E-01
         -1   -1    0    0    0  501 -0.00000000000E+00  0.00000000000E+00  0.87244243312E+03  0.87244243312E+03  0.00000000000E+00 0.  1.
          1   -1    0    0  501    0  0.00000000000E+00 -0.00000000000E+00 -0.13955593684E+04  0.13955593684E+04  0.00000000000E+00 0. -1.
         23    2    1    2    0    0 -0.68371030568E+03 -0.84047482134E+03 -0.46605747298E+03  0.11830531900E+04  0.92453094988E+02 0.  0.
         13    1    3    3    0    0 -0.52990164140E+03 -0.66089310610E+03 -0.40452935565E+03  0.93873289429E+03  0.00000000000E+00 0. -1.
        -13    1    3    3    0    0 -0.15380866428E+03 -0.17958171524E+03 -0.61528117338E+02  0.24432029567E+03  0.00000000000E+00 0.  1.
         22    1    1    2    0    0  0.68371030568E+03  0.84047482134E+03 -0.57059462246E+02  0.10849486115E+04  0.00000000000E+00 0.  1.
<mgrwt>
<rscale>  0 0.22068486E+04</rscale>
<asrwt>0</asrwt>
<pdfrwt beam="1">  1        1 0.21470144E+00 0.22068486E+04</pdfrwt>
<pdfrwt beam="2">  1       -1 0.13422191E+00 0.22068486E+04</pdfrwt>
<totfact> 0.32966415E+00</totfact>
</mgrwt>
</event>
<event>
 6    1  0.1762360E-005  0.1781058E+04  0.7818608E-02  0.8716438E-01
          1   -1    0    0  501    0  0.00000000000E+00  0.00000000000E+00  0.10169372356E+04  0.10169372356E+04  0.00000000000E+00 0. -1.
         -1   -1    0    0    0  501 -0.00000000000E+00 -0.00000000000E+00 -0.77983334444E+03  0.77983334444E+03  0.00000000000E+00 0.  1.
         23    2    1    2    0    0  0.15010796531E+03 -0.87251753814E+03  0.47674218331E+02  0.89139615112E+03  0.92168386728E+02 0.  0.
         11    1    3    3    0    0  0.14841349405E+03 -0.62007267481E+03  0.39643903992E+02  0.63881791333E+03  0.00000000000E+00 0. -1.
        -11    1    3    3    0    0  0.16944712573E+01 -0.25244486333E+03  0.80303143385E+01  0.25257823779E+03  0.00000000000E+00 0.  1.
         22    1    1    2    0    0 -0.15010796531E+03  0.87251753814E+03  0.18942967284E+03  0.90537442894E+03  0.00000000000E+00 0.  1.
<mgrwt>
<rscale>  0 0.17810576E+04</rscale>
<asrwt>0</asrwt>
<pdfrwt beam="1">  1        1 0.15645188E+00 0.17810576E+04</pdfrwt>
<pdfrwt beam="2">  1       -1 0.11997436E+00 0.17810576E+04</pdfrwt>
<totfact> 0.85940031E+00</totfact>
</mgrwt>
</event>
<event>
 6    1  0.1762360E-005  0.1241565E+04  0.7818608E-02  0.9077233E-01
          2   -1    0    0  501    0  0.00000000000E+00  0.00000000000E+00  0.15961936052E+04  0.15961936052E+04  0.00000000000E+00 0. -1.
         -2   -1    0    0    0  501 -0.00000000000E+00 -0.00000000000E+00 -0.24143127308E+03  0.24143127308E+03  0.00000000000E+00 0.  1.
         23    2    1    2    0    0  0.21059720807E+03  0.24598355487E+03  0.14590955465E+04  0.14974124256E+04  0.91788154787E+02 0.  0.
         11    1    3    3    0    0  0.15516758160E+03  0.16057593435E+03  0.80322629847E+03  0.83368704897E+03  0.00000000000E+00 0.  1.
        -11    1    3    3    0    0  0.55429626476E+02  0.85407620522E+02  0.65586924800E+03  0.66372537665E+03  0.00000000000E+00 0. -1.
         22    1    1    2    0    0 -0.21059720807E+03 -0.24598355487E+03 -0.10433321436E+03  0.34021245265E+03  0.00000000000E+00 0.  1.
<mgrwt>
<rscale>  0 0.12415652E+04</rscale>
<asrwt>0</asrwt>
<pdfrwt beam="1">  1        2 0.24556824E+00 0.12415652E+04</pdfrwt>
<pdfrwt beam="2">  1       -2 0.37143274E-01 0.12415652E+04</pdfrwt>
<totfact> 0.75319916E+01</totfact>
</mgrwt>
</event>
<event>
 6    1  0.1762360E-005  0.2102153E+04  0.7818608E-02  0.8560295E-01
         -1   -1    0    0    0  501 -0.00000000000E+00  0.00000000000E+00  0.10186723178E+04  0.10186723178E+04  0.00000000000E+00 0.  1.
          1   -1    0    0  501    0  0.00000000000E+00 -0.00000000000E+00 -0.10845116385E+04  0.10845116385E+04  0.00000000000E+00 0. -1.
         23    2    1    2    0    0 -0.31000978921E+03 -0.86194675047E+03  0.47897689129E+03  0.10374058485E+04  0.87941810985E+02 0.  0.
         13    1    3    3    0    0 -0.57474133188E+02 -0.12662756876E+03  0.40641447687E+02  0.14487768781E+03  0.00000000000E+00 0.  1.
        -13    1    3    3    0    0 -0.25253565603E+03 -0.73531918171E+03  0.43833544360E+03  0.89252816072E+03  0.00000000000E+00 0. -1.
         22    1    1    2    0    0  0.31000978921E+03  0.86194675047E+03 -0.54481621198E+03  0.10657781077E+04  0.00000000000E+00 0. -1.
<mgrwt>
<rscale>  0 0.21021532E+04</rscale>
<asrwt>0</asrwt>
<pdfrwt beam="1">  1        1 0.16684794E+00 0.21021532E+04</pdfrwt>
<pdfrwt beam="2">  1       -1 0.15671882E+00 0.21021532E+04</pdfrwt>
<totfact> 0.37079022E+00</totfact>
</mgrwt>
</event>
<event>
 6    1  0.1762360E-005  0.1134725E+04  0.7818608E-02  0.9171992E-01
         -1   -1    0    0    0  501 -0.00000000000E+00  0.00000000000E+00  0.20073878828E+03  0.20073878828E+03  0.00000000000E+00 0.  1.
          1   -1    0    0  501    0  0.00000000000E+00 -0.00000000000E+00 -0.16035783526E+04  0.16035783526E+04  0.00000000000E+00 0. -1.
         23    2    1    2    0    0  0.30379378582E+03  0.43081402853E+03 -0.10231251548E+04  0.11546445893E+04  0.92345296344E+02 0.  0.
         13    1    3    3    0    0  0.74263935596E+02  0.12865133211E+03 -0.37882544106E+03  0.40690909572E+03  0.00000000000E+00 0.  1.
        -13    1    3    3    0    0  0.22952985023E+03  0.30216269642E+03 -0.64429971375E+03  0.74773549361E+03  0.00000000000E+00 0. -1.
         22    1    1    2    0    0 -0.30379378582E+03 -0.43081402853E+03 -0.37971440954E+03  0.64967255160E+03  0.00000000000E+00 0.  1.
<mgrwt>
<rscale>  0 0.11347253E+04</rscale>
<asrwt>0</asrwt>
<pdfrwt beam="1">  1        1 0.24670435E+00 0.11347253E+04</pdfrwt>
<pdfrwt beam="2">  1       -1 0.30882891E-01 0.11347253E+04</pdfrwt>
<totfact> 0.53490380E+01</totfact>
</mgrwt>
</event>
<event>
 6    1  0.1762360E-005  0.3342705E+04  0.7818608E-02  0.8152113E-01
         -2   -1    0    0    0  501 -0.00000000000E+00  0.00000000000E+00  0.15036143758E+04  0.15036143758E+04  0.00000000000E+00 0.  1.
          2   -1    0    0  501    0  0.00000000000E+00 -0.00000000000E+00 -0.18578032487E+04  0.18578032487E+04  0.00000000000E+00 0. -1.
         23    2    1    2    0    0 -0.78256446137E+03  0.11138283460E+04  0.79582926337E+03  0.15794068405E+04  0.90338424168E+02 0.  0.
         13    1    3    3    0    0 -0.42948060611E+03  0.60673301522E+03  0.48640675250E+03  0.88835244788E+03  0.00000000000E+00 0. -1.
        -13    1    3    3    0    0 -0.35308385526E+03  0.50709533077E+03  0.30942251087E+03  0.69105439262E+03  0.00000000000E+00 0.  1.
         22    1    1    2    0    0  0.78256446137E+03 -0.11138283460E+04 -0.11500181363E+04  0.17820107840E+04  0.00000000000E+00 0. -1.
<mgrwt>
<rscale>  0 0.33427053E+04</rscale>
<asrwt>0</asrwt>
<pdfrwt beam="1">  1        2 0.28581588E+00 0.33427053E+04</pdfrwt>
<pdfrwt beam="2">  1       -2 0.23132529E+00 0.33427053E+04</pdfrwt>
<totfact> 0.55955866E-01</totfact>
</mgrwt>
</event>
<event>
 6    1  0.1762360E-005  0.2673861E+04  0.7818608E-02  0.8343536E-01
          1   -1    0    0  501    0  0.00000000000E+00  0.00000000000E+00  0.73328216974E+03  0.73328216974E+03  0.00000000000E+00 0. -1.
         -1   -1    0    0    0  501 -0.00000000000E+00 -0.00000000000E+00 -0.24375100140E+04  0.24375100140E+04  0.00000000000E+00 0.  1.
         23    2    1    2    0    0 -0.31618587231E+03  0.12278538309E+04 -0.13503107903E+04  0.18544123688E+04  0.88923940407E+02 0.  0.
         13    1    3    3    0    0 -0.24291673706E+03  0.77673595553E+03 -0.87884579197E+03  0.11977884671E+04  0.00000000000E+00 0.  1.
        -13    1    3    3    0    0 -0.73269135244E+02  0.45111787541E+03 -0.47146499837E+03  0.65662390178E+03  0.00000000000E+00 0. -1.
         22    1    1    2    0    0  0.31618587231E+03 -0.12278538309E+04 -0.35391705390E+03  0.13163798149E+04  0.00000000000E+00 0.  1.
<mgrwt>
<rscale>  0 0.26738606E+04</rscale>
<asrwt>0</asrwt>
<pdfrwt beam="1">  1        1 0.11281264E+00 0.26738606E+04</pdfrwt>
<pdfrwt beam="2">  1       -1 0.37500154E+00 0.26738606E+04</pdfrwt>
<totfact> 0.23472564E-01</totfact>
</mgrwt>
</event>
<event>
 6    1  0.1762360E-005  0.1349341E+04  0.7818608E-02  0.8991327E-01
         -2   -1    0    0    0  501 -0.00000000000E+00  0.00000000000E+00  0.82795435661E+03  0.82795435661E+03  0.00000000000E+00 0.  1.
          2   -1    0    0  501    0  0.00000000000E+00 -0.00000000000E+00 -0.54976502169E+03  0.54976502169E+03  0.00000000000E+00 0. -1.
         23    2    1    2    0    0 -0.52032217120E+02  0.16220591089E+03  0.80304263076E+03  0.82591407631E+03  0.90766103145E+02 0.  0.
         11    1    3    3    0    0  0.62957390775E+01  0.68924490892E+02  0.47253599410E+03  0.47757772928E+03  0.00000000000E+00 0.  1.
        -11    1    3    3    0    0 -0.58327956198E+02  0.93281420000E+02  0.33050663666E+03  0.34833634704E+03  0.00000000000E+00 0. -1.
         22    1    1    2    0    0  0.52032217120E+02 -0.16220591089E+03 -0.52485329584E+03  0.55180530199E+03  0.00000000000E+00 0. -1.
<mgrwt>
<rscale>  0 0.13493411E+04</rscale>
<asrwt>0</asrwt>
<pdfrwt beam="1">  1        2 0.84579234E-01 0.13493411E+04</pdfrwt>
<pdfrwt beam="2">  1       -2 0.12737759E+00 0.13493411E+04</pdfrwt>
<totfact> 0.24592207E+01</totfact>
</mgrwt>
</event>
<event>
 6    1  0.1762360E-005  0.2056907E+04  0.7818608E-02  0.8580468E-01
         -1   -1    0    0    0  501 -0.00000000000E+00  0.00000000000E+00  0.96577969537E+03  0.96577969537E+03  0.00000000000E+00 0.  1.
          1   -1    0    0  501    0  0.00000000000E+00 -0.00000000000E+00 -0.10951940291E+04  0.10951940291E+04  0.00000000000E+00 0. -1.
         23    2    1    2    0    0 -0.64248667041E+03 -0.19669751453E+03 -0.84269460313E+03  0.10810513925E+04  0.84017171703E+02 0.  0.
         11    1    3    3    0    0 -0.51311643559E+03 -0.17286591783E+03 -0.62725311349E+03  0.82862390165E+03  0.00000000000E+00 0.  1.
        -11    1    3    3    0    0 -0.12937023483E+03 -0.23831596704E+02 -0.21544148965E+03  0.25242749082E+03  0.00000000000E+00 0. -1.
         22    1    1    2    0    0  0.64248667041E+03  0.19669751453E+03  0.71328026944E+03  0.97992233195E+03  0.00000000000E+00 0.  1.
<mgrwt>
<rscale>  0 0.20569066E+04</rscale>
<asrwt>0</asrwt>
<pdfrwt beam="1">  1        1 0.16849139E+00 0.20569066E+04</pdfrwt>
<pdfrwt beam="2">  1       -1 0.14858149E+00 0.20569066E+04</pdfrwt>
<totfact> 0.42248794E+00</totfact>
</mgrwt>
</event>
<event>
 6    1  0.1762360E-005  0.8908399E+03  0.7818608E-02  0.9437105E-01
         -1   -1    0    0    0  501 -0.00000000000E+00  0.00000000000E+00  0.25865318014E+03  0.25865318014E+03  0.00000000000E+00 0.  1.
          1   -1    0    0  501    0  0.00000000000E+00 -0.00000000000E+00 -0.76704616723E+03  0.76704616723E+03  0.00000000000E+00 0. -1.
         23    2    1    2    0    0 -0.14249226250E+03 -0.15626160259E+03 -0.70206381846E+03  0.73894139326E+03  0.91755349507E+02 0.  0.
         13    1    3    3    0    0 -0.13305881182E+03 -0.10861849724E+03 -0.43850777379E+03  0.47094765422E+03  0.00000000000E+00 0.  1.
        -13    1    3    3    0    0 -0.94334506820E+01 -0.47643105348E+02 -0.26355604468E+03  0.26799373904E+03  0.00000000000E+00 0. -1.
         22    1    1    2    0    0  0.14249226250E+03  0.15626160259E+03  0.19367083137E+03  0.28675795410E+03  0.00000000000E+00 0.  1.
<mgrwt>
<rscale>  0 0.89083990E+03</rscale>
<asrwt>0</asrwt>
<pdfrwt beam="1">  1        1 0.11800710E+00 0.89083990E+03</pdfrwt>
<pdfrwt beam="2">  1       -1 0.39792797E-01 0.89083990E+03</pdfrwt>
<totfact> 0.14642281E+02</totfact>
</mgrwt>
</event>
<event>
 6    1  0.1762360E-005  0.1841322E+04  0.7818608E-02  0.8684629E-01
         -2   -1    0    0    0  501 -0.00000000000E+00  0.00000000000E+00  0.72130363629E+03  0.72130363629E+03  0.00000000000E+00 0.  1.
          2   -1    0    0  501    0  0.00000000000E+00 -0.00000000000E+00 -0.11751171978E+04  0.11751171978E+04  0.00000000000E+00 0. -1.
         23    2    1    2    0    0  0.74346004086E+03 -0.10606783112E+02  0.32770696253E+03  0.81770879387E+03  0.91708680490E+02 0.  0.
         11    1    3    3    0    0  0.43433145492E+03 -0.31604796412E+02  0.23199805229E+03  0.49342250876E+03  0.00000000000E+00 0. -1.
        -11    1    3    3    0    0  0.30912858594E+03  0.20998013299E+02  0.95708910239E+02  0.32428628510E+03  0.00000000000E+00 0.  1.
         22    1    1    2    0    0 -0.74346004086E+03  0.10606783112E+02 -0.78152052400E+03  0.10787120402E+04  0.00000000000E+00 0. -1.
<mgrwt>
<rscale>  0 0.18413216E+04</rscale>
<asrwt>0</asrwt>
<pdfrwt beam="1">  1        2 0.18078726E+00 0.18413216E+04</pdfrwt>
<pdfrwt beam="2">  1       -2 0.11096979E+00 0.18413216E+04</pdfrwt>
<totfact> 0.11866450E+01</totfact>
</mgrwt>
</event>
<event>
 6    1  0.1762360E-005  0.4097222E+04  0.7818608E-02  0.7985216E-01
          2   -1    0    0  501    0  0.00000000000E+00  0.00000000000E+00  0.13426400990E+04  0.13426400990E+04  0.00000000000E+00 0. -1.
         -2   -1    0    0    0  501 -0.00000000000E+00 -0.00000000000E+00 -0.31257863244E+04  0.31257863244E+04  0.00000000000E+00 0.  1.
         23    2    1    2    0    0  0.13115649523E+04  0.11694112921E+04 -0.20383404617E+04  0.26927999164E+04  0.92812488009E+02 0.  0.
         13    1    3    3    0    0  0.11548395232E+04  0.10293838264E+04 -0.18385649940E+04  0.24028330412E+04  0.00000000000E+00 0.  1.
        -13    1    3    3    0    0  0.15672542908E+03  0.14002746564E+03 -0.19977546769E+03  0.28996687525E+03  0.00000000000E+00 0. -1.
         22    1    1    2    0    0 -0.13115649523E+04 -0.11694112921E+04  0.25519423622E+03  0.17756265070E+04  0.00000000000E+00 0. -1.
<mgrwt>
<rscale>  0 0.40972215E+04</rscale>
<asrwt>0</asrwt>
<pdfrwt beam="1">  1        2 0.20656002E+00 0.40972215E+04</pdfrwt>
<pdfrwt beam="2">  1       -2 0.48089020E+00 0.40972215E+04</pdfrwt>
<totfact> 0.26664206E-02</totfact>
</mgrwt>
</event>
<event>
 6    1  0.1762360E-005  0.5322720E+04  0.7818608E-02  0.7780565E-01
          1   -1    0    0  501    0  0.00000000000E+00  0.00000000000E+00  0.31737180231E+04  0.31737180231E+04  0.00000000000E+00 0. -1.
         -1   -1    0    0    0  501 -0.00000000000E+00 -0.00000000000E+00 -0.22317161269E+04  0.22317161269E+04  0.00000000000E+00 0.  1.
         23    2    1    2    0    0  0.19486645137E+03 -0.26130766287E+04  0.36712823684E+01  0.26221614824E+04  0.97851723404E+02 0.  0.
         13    1    3    3    0    0  0.10059959973E+03 -0.19187463983E+04 -0.61997178300E+01  0.19213918021E+04  0.00000000000E+00 0.  1.
        -13    1    3    3    0    0  0.94266851636E+02 -0.69433023039E+03  0.98710001983E+01  0.70076968028E+03  0.00000000000E+00 0. -1.
         22    1    1    2    0    0 -0.19486645137E+03  0.26130766287E+04  0.93833061390E+03  0.27832726676E+04  0.00000000000E+00 0.  1.
<mgrwt>
<rscale>  0 0.53227202E+04</rscale>
<asrwt>0</asrwt>
<pdfrwt beam="1">  1        1 0.48826431E+00 0.53227202E+04</pdfrwt>
<pdfrwt beam="2">  1       -1 0.34334094E+00 0.53227202E+04</pdfrwt>
<totfact> 0.53827692E-03</totfact>
</mgrwt>
</event>
<event>
 6    1  0.1762360E-005  0.1007275E+04  0.7818608E-02  0.9300601E-01
          1   -1    0    0  501    0  0.00000000000E+00  0.00000000000E+00  0.13973663620E+04  0.13973663620E+04  0.00000000000E+00 0. -1.
         -1   -1    0    0    0  501 -0.00000000000E+00 -0.00000000000E+00 -0.18152066965E+03  0.18152066965E+03  0.00000000000E+00 0.  1.
         23    2    1    2    0    0  0.25262455392E+02  0.49169667795E+03  0.48321960041E+03  0.69619523642E+03  0.93716648611E+02 0.  0.
         11    1    3    3    0    0  0.13547680255E+02  0.28214189926E+03  0.34037551802E+03  0.44231559347E+03  0.00000000000E+00 0.  1.
        -11    1    3    3    0    0  0.11714775137E+02  0.20955477869E+03  0.14284408238E+03  0.25387964294E+03  0.00000000000E+00 0. -1.
         22    1    1    2    0    0 -0.25262455392E+02 -0.49169667795E+03  0.73262609191E+03  0.88269179520E+03  0.00000000000E+00 0.  1.
<mgrwt>
<rscale>  0 0.10072753E+04</rscale>
<asrwt>0</asrwt>
<pdfrwt beam="1">  1        1 0.21497943E+00 0.10072753E+04</pdfrwt>
<pdfrwt beam="2">  1       -1 0.27926258E-01 0.10072753E+04</pdfrwt>
<totfact> 0.89390858E+01</totfact>
</mgrwt>
</event>
<event>
 6    1  0.1762360E-005  0.9168870E+03  0.7818608E-02  0.9404715E-01
          2   -1    0    0  501    0  0.00000000000E+00  0.00000000000E+00  0.87580135406E+03  0.87580135406E+03  0.00000000000E+00 0. -1.
         -2   -1    0    0    0  501 -0.00000000000E+00 -0.00000000000E+00 -0.23997503011E+03  0.23997503011E+03  0.00000000000E+00 0.  1.
         23    2    1    2    0    0 -0.20268380016E+03 -0.40449573253E+03  0.27552731634E+03  0.53740548642E+03  0.90508752666E+02 0.  0.
         13    1    3    3    0    0 -0.24482218193E+02 -0.12905316004E+03  0.10179362835E+03  0.16618074466E+03  0.00000000000E+00 0.  1.
        -13    1    3    3    0    0 -0.17820158196E+03 -0.27544257248E+03  0.17373368800E+03  0.37122474176E+03  0.00000000000E+00 0. -1.
         22    1    1    2    0    0  0.20268380016E+03  0.40449573253E+03  0.36029900761E+03  0.57837089775E+03  0.00000000000E+00 0.  1.
<mgrwt>
<rscale>  0 0.91688703E+03</rscale>
<asrwt>0</asrwt>
<pdfrwt beam="1">  1        2 0.13473867E+00 0.91688703E+03</pdfrwt>
<pdfrwt beam="2">  1       -2 0.36919236E-01 0.91688703E+03</pdfrwt>
<totfact> 0.21079723E+02</totfact>
</mgrwt>
</event>
<event>
 6    1  0.1762360E-005  0.1251128E+04  0.7818608E-02  0.9069245E-01
         -2   -1    0    0    0  501 -0.00000000000E+00  0.00000000000E+00  0.50804997778E+03  0.50804997778E+03  0.00000000000E+00 0.  1.
          2   -1    0    0  501    0  0.00000000000E+00 -0.00000000000E+00 -0.77025968686E+03  0.77025968686E+03  0.00000000000E+00 0. -1.
         23    2    1    2    0    0  0.45142786837E+03  0.39816608638E+03  0.28407261610E+02  0.60989244737E+03  0.94013148913E+02 0.  0.
         11    1    3    3    0    0  0.29551226507E+03  0.20347166361E+03 -0.54222212720E+00  0.35878755650E+03  0.00000000000E+00 0.  1.
        -11    1    3    3    0    0  0.15591560330E+03  0.19469442277E+03  0.28949483737E+02  0.25110489087E+03  0.00000000000E+00 0. -1.
         22    1    1    2    0    0 -0.45142786837E+03 -0.39816608638E+03 -0.29061697069E+03  0.66841721726E+03  0.00000000000E+00 0.  1.
<mgrwt>
<rscale>  0 0.12511282E+04</rscale>
<asrwt>0</asrwt>
<pdfrwt beam="1">  1        2 0.11850149E+00 0.12511282E+04</pdfrwt>
<pdfrwt beam="2">  1       -2 0.78161535E-01 0.12511282E+04</pdfrwt>
<totfact> 0.51894915E+01</totfact>
</mgrwt>
</event>
<event>
 6    1  0.1762360E-005  0.5466125E+04  0.7818608E-02  0.7760368E-01
         -1   -1    0    0    0  501 -0.00000000000E+00  0.00000000000E+00  0.30485998988E+04  0.30485998988E+04  0.00000000000E+00 0.  1.
          1   -1    0    0  501    0  0.00000000000E+00 -0.00000000000E+00 -0.24501840235E+04  0.24501840235E+04  0.00000000000E+00 0. -1.
         23    2    1    2    0    0 -0.15533000889E+04  0.13838007252E+04 -0.14827177174E+04  0.25562063712E+04  0.89964268278E+02 0.  0.
         11    1    3    3    0    0 -0.52841640349E+03  0.42762757457E+03 -0.51790073159E+03  0.85458200648E+03  0.00000000000E+00 0. -1.
        -11    1    3    3    0    0 -0.10248836854E+04  0.95617315065E+03 -0.96481698579E+03  0.17016243647E+04  0.00000000000E+00 0.  1.
         22    1    1    2    0    0  0.15533000889E+04 -0.13838007252E+04  0.20811335927E+04  0.29425775511E+04  0.00000000000E+00 0.  1.
<mgrwt>
<rscale>  0 0.54661251E+04</rscale>
<asrwt>0</asrwt>
<pdfrwt beam="1">  1        1 0.37695139E+00 0.54661251E+04</pdfrwt>
<pdfrwt beam="2">  1       -1 0.46901537E+00 0.54661251E+04</pdfrwt>
<totfact> 0.24586164E-03</totfact>
</mgrwt>
</event>
<event>
 6    1  0.1762360E-005  0.2017698E+04  0.7818608E-02  0.8598391E-01
          1   -1    0    0  501    0  0.00000000000E+00  0.00000000000E+00  0.34243699869E+03  0.34243699869E+03  0.00000000000E+00 0. -1.
         -1   -1    0    0    0  501 -0.00000000000E+00 -0.00000000000E+00 -0.29721560773E+04  0.29721560773E+04  0.00000000000E+00 0.  1.
         23    2    1    2    0    0  0.34725050404E+02 -0.91583635791E+03 -0.63306500525E+03  0.11176430192E+04  0.91610882497E+02 0.  0.
         13    1    3    3    0    0  0.23356084504E+02 -0.55301139774E+03 -0.43597923091E+03  0.70458853418E+03  0.00000000000E+00 0.  1.
        -13    1    3    3    0    0  0.11368965900E+02 -0.36282496017E+03 -0.19708577434E+03  0.41305448497E+03  0.00000000000E+00 0. -1.
         22    1    1    2    0    0 -0.34725050404E+02  0.91583635791E+03 -0.19966540733E+04  0.21969500568E+04  0.00000000000E+00 0.  1.
<mgrwt>
<rscale>  0 0.20176979E+04</rscale>
<asrwt>0</asrwt>
<pdfrwt beam="1">  1        1 0.52682615E-01 0.20176979E+04</pdfrwt>
<pdfrwt beam="2">  1       -1 0.45725478E+00 0.20176979E+04</pdfrwt>
<totfact> 0.19695373E-01</totfact>
</mgrwt>
</event>
<event>
 6    1  0.1762360E-005  0.2966566E+04  0.7818608E-02  0.8253343E-01
         -2   -1    0    0    0  501 -0.00000000000E+00  0.00000000000E+00  0.23180537528E+04  0.23180537528E+04  0.00000000000E+00 0. -1.
          2   -1    0    0  501    0  0.00000000000E+00 -0.00000000000E+00 -0.94912770621E+03  0.94912770621E+03  0.00000000000E+00 0.  1.
         23    2    1    2    0    0 -0.86252932723E+03 -0.11998725079E+04  0.56257896746E+03  0.15837782133E+04  0.90595025932E+02 0.  0.
         11    1    3    3    0    0 -0.67736067739E+03 -0.97462321716E+03  0.48403760268E+03  0.12817957339E+04  0.00000000000E+00 0. -1.
        -11    1    3    3    0    0 -0.18516864984E+03 -0.22524929078E+03  0.78541364774E+02  0.30198247940E+03  0.00000000000E+00 0.  1.
         22    1    1    2    0    0  0.86252932723E+03  0.11998725079E+04  0.80634707916E+03  0.16834032457E+04  0.00000000000E+00 0. -1.
<mgrwt>
<rscale>  0 0.29665664E+04</rscale>
<asrwt>0</asrwt>
<pdfrwt beam="1">  1        2 0.14601965E+00 0.29665664E+04</pdfrwt>
<pdfrwt beam="2">  1       -2 0.35662365E+00 0.29665664E+04</pdfrwt>
<totfact> 0.32959471E-01</totfact>
</mgrwt>
</event>
<event>
 6    1  0.1762360E-005  0.2371865E+04  0.7818608E-02  0.8450113E-01
         -2   -1    0    0    0  501 -0.00000000000E+00  0.00000000000E+00  0.17490510979E+04  0.17490510979E+04  0.00000000000E+00 0.  1.
          2   -1    0    0  501    0  0.00000000000E+00 -0.00000000000E+00 -0.80411353031E+03  0.80411353031E+03  0.00000000000E+00 0. -1.
         23    2    1    2    0    0  0.10703662949E+04  0.27134981618E+03  0.12663637016E+02  0.11080177811E+04  0.90710018486E+02 0.  0.
         11    1    3    3    0    0  0.71684762516E+03  0.15308958809E+03  0.41073775736E+02  0.73416210385E+03  0.00000000000E+00 0. -1.
        -11    1    3    3    0    0  0.35351866978E+03  0.11826022809E+03 -0.28410138720E+02  0.37385567725E+03  0.00000000000E+00 0.  1.
         22    1    1    2    0    0 -0.10703662949E+04 -0.27134981618E+03  0.93227393055E+03  0.14451468471E+04  0.00000000000E+00 0.  1.
<mgrwt>
<rscale>  0 0.23718648E+04</rscale>
<asrwt>0</asrwt>
<pdfrwt beam="1">  1        2 0.12370977E+00 0.23718648E+04</pdfrwt>
<pdfrwt beam="2">  1       -2 0.26908478E+00 0.23718648E+04</pdfrwt>
<totfact> 0.15137926E+00</totfact>
</mgrwt>
</event>
<event>
 6    1  0.1762360E-005  0.2537134E+04  0.7818608E-02  0.8389874E-01
         -2   -1    0    0    0  501 -0.00000000000E+00  0.00000000000E+00  0.15830529951E+04  0.15830529951E+04  0.00000000000E+00 0.  1.
          2   -1    0    0  501    0  0.00000000000E+00 -0.00000000000E+00 -0.10165563170E+04  0.10165563170E+04  0.00000000000E+00 0. -1.
         23    2    1    2    0    0 -0.12085041372E+04  0.35151270195E+03  0.43229046803E+03  0.13338863029E+04  0.91291790170E+02 0.  0.
         13    1    3    3    0    0 -0.50555543279E+03  0.19285079422E+03  0.17446311349E+03  0.56852009853E+03  0.00000000000E+00 0.  1.
        -13    1    3    3    0    0 -0.70294870444E+03  0.15866190773E+03  0.25782735454E+03  0.76536620437E+03  0.00000000000E+00 0. -1.
         22    1    1    2    0    0  0.12085041372E+04 -0.35151270195E+03  0.13420621004E+03  0.12657230093E+04  0.00000000000E+00 0. -1.
<mgrwt>
<rscale>  0 0.25371342E+04</rscale>
<asrwt>0</asrwt>
<pdfrwt beam="1">  1        2 0.15639328E+00 0.25371342E+04</pdfrwt>
<pdfrwt beam="2">  1       -2 0.24354662E+00 0.25371342E+04</pdfrwt>
<totfact> 0.15390365E+00</totfact>
</mgrwt>
</event>
<event>
 6    1  0.1762360E-005  0.1626903E+04  0.7818608E-02  0.8804189E-01
         -2   -1    0    0    0  501 -0.00000000000E+00  0.00000000000E+00  0.55800233121E+03  0.55800233121E+03  0.00000000000E+00 0. -1.
          2   -1    0    0  501    0  0.00000000000E+00 -0.00000000000E+00 -0.11858432368E+04  0.11858432368E+04  0.00000000000E+00 0.  1.
         23    2    1    2    0    0  0.94114457672E+02  0.47283998677E+03 -0.10137303300E+04  0.11263135186E+04  0.92183381298E+02 0.  0.
         13    1    3    3    0    0  0.47483829524E+02  0.27904070127E+03 -0.69444936855E+03  0.74991889729E+03  0.00000000000E+00 0. -1.
        -13    1    3    3    0    0  0.46630628148E+02  0.19379928551E+03 -0.31928096149E+03  0.37639462126E+03  0.00000000000E+00 0.  1.
         22    1    1    2    0    0 -0.94114457672E+02 -0.47283998677E+03  0.38588942444E+03  0.61753204947E+03  0.00000000000E+00 0. -1.
<mgrwt>
<rscale>  0 0.16269029E+04</rscale>
<asrwt>0</asrwt>
<pdfrwt beam="1">  1        2 0.18243742E+00 0.16269029E+04</pdfrwt>
<pdfrwt beam="2">  1       -2 0.85846514E-01 0.16269029E+04</pdfrwt>
<totfact> 0.21776244E+01</totfact>
</mgrwt>
</event>
<event>
 6    1  0.1762360E-005  0.1833958E+04  0.7818608E-02  0.8688447E-01
          2   -1    0    0  501    0  0.00000000000E+00  0.00000000000E+00  0.15782983566E+04  0.15782983566E+04  0.00000000000E+00 0. -1.
         -2   -1    0    0    0  501 -0.00000000000E+00 -0.00000000000E+00 -0.53275744686E+03  0.53275744686E+03  0.00000000000E+00 0.  1.
         23    2    1    2    0    0 -0.63619864142E+02 -0.66415774068E+03 -0.19644935661E+03  0.70120020329E+03  0.89086383687E+02 0.  0.
         13    1    3    3    0    0 -0.72857855215E+02 -0.46061824545E+03 -0.10579926814E+03  0.47819548330E+03  0.00000000000E+00 0. -1.
        -13    1    3    3    0    0  0.92379910729E+01 -0.20353949523E+03 -0.90650088468E+02  0.22300471998E+03  0.00000000000E+00 0.  1.
         22    1    1    2    0    0  0.63619864142E+02  0.66415774068E+03  0.12419902663E+04  0.14098556001E+04  0.00000000000E+00 0. -1.
<mgrwt>
<rscale>  0 0.18339577E+04</rscale>
<asrwt>0</asrwt>
<pdfrwt beam="1">  1        2 0.24281513E+00 0.18339577E+04</pdfrwt>
<pdfrwt beam="2">  1       -2 0.81962685E-01 0.18339577E+04</pdfrwt>
<totfact> 0.14130833E+01</totfact>
</mgrwt>
</event>
<event>
 6    1  0.1762360E-005  0.3277606E+04  0.7818608E-02  0.8168617E-01
         -2   -1    0    0    0  501 -0.00000000000E+00  0.00000000000E+00  0.15977358557E+04  0.15977358557E+04  0.00000000000E+00 0.  1.
          2   -1    0    0  501    0  0.00000000000E+00 -0.00000000000E+00 -0.16809252873E+04  0.16809252873E+04  0.00000000000E+00 0. -1.
         23    2    1    2    0    0 -0.53258271567E+02  0.50897503949E+03  0.15143269591E+04  0.16011777145E+04  0.93230360559E+02 0.  0.
         13    1    3    3    0    0 -0.64421794605E+02  0.32372928611E+03  0.86451809494E+03  0.92538767810E+03  0.00000000000E+00 0. -1.
        -13    1    3    3    0    0  0.11163523037E+02  0.18524575339E+03  0.64980886415E+03  0.67579003642E+03  0.00000000000E+00 0.  1.
         22    1    1    2    0    0  0.53258271567E+02 -0.50897503949E+03 -0.15975163907E+04  0.16774834285E+04  0.00000000000E+00 0. -1.
<mgrwt>
<rscale>  0 0.32776056E+04</rscale>
<asrwt>0</asrwt>
<pdfrwt beam="1">  1        2 0.25860389E+00 0.32776056E+04</pdfrwt>
<pdfrwt beam="2">  1       -2 0.24580551E+00 0.32776056E+04</pdfrwt>
<totfact> 0.57353664E-01</totfact>
</mgrwt>
</event>
<event>
 6    1  0.1762360E-005  0.1404847E+04  0.7818608E-02  0.8950318E-01
         -2   -1    0    0    0  501 -0.00000000000E+00  0.00000000000E+00  0.26004514980E+03  0.26004514980E+03  0.00000000000E+00 0.  1.
          2   -1    0    0  501    0  0.00000000000E+00 -0.00000000000E+00 -0.18973574424E+04  0.18973574424E+04  0.00000000000E+00 0. -1.
         23    2    1    2    0    0  0.83355508040E+01 -0.30944774266E+03 -0.17853336260E+04  0.18142733134E+04  0.91346114322E+02 0.  0.
         11    1    3    3    0    0 -0.35303363040E+02 -0.95148777963E+02 -0.46458471274E+03  0.47554029556E+03  0.00000000000E+00 0. -1.
        -11    1    3    3    0    0  0.43638913844E+02 -0.21429896470E+03 -0.13207489133E+04  0.13387330178E+04  0.00000000000E+00 0.  1.
         22    1    1    2    0    0 -0.83355508040E+01  0.30944774266E+03  0.14802133341E+03  0.34312927883E+03  0.00000000000E+00 0.  1.
<mgrwt>
<rscale>  0 0.14048468E+04</rscale>
<asrwt>0</asrwt>
<pdfrwt beam="1">  1        2 0.29190114E+00 0.14048468E+04</pdfrwt>
<pdfrwt beam="2">  1       -2 0.40006947E-01 0.14048468E+04</pdfrwt>
<totfact> 0.43840232E+01</totfact>
</mgrwt>
</event>
<event>
 6    1  0.1762360E-005  0.4293026E+04  0.7818608E-02  0.7947909E-01
         -2   -1    0    0    0  501 -0.00000000000E+00  0.00000000000E+00  0.14720361599E+04  0.14720361599E+04  0.00000000000E+00 0.  1.
          2   -1    0    0  501    0  0.00000000000E+00 -0.00000000000E+00 -0.31300298847E+04  0.31300298847E+04  0.00000000000E+00 0. -1.
         23    2    1    2    0    0 -0.11540454150E+03  0.10835749274E+04  0.11518766916E+04  0.15882935601E+04  0.91671637274E+02 0.  0.
         13    1    3    3    0    0 -0.17056422427E+02  0.34606135263E+03  0.42215888759E+03  0.54613872570E+03  0.00000000000E+00 0.  1.
        -13    1    3    3    0    0 -0.98348119072E+02  0.73751357478E+03  0.72971780398E+03  0.10421548344E+04  0.00000000000E+00 0. -1.
         22    1    1    2    0    0  0.11540454150E+03 -0.10835749274E+04 -0.28098704163E+04  0.30137724845E+04  0.00000000000E+00 0. -1.
<mgrwt>
<rscale>  0 0.42930256E+04</rscale>
<asrwt>0</asrwt>
<pdfrwt beam="1">  1        2 0.48154305E+00 0.42930256E+04</pdfrwt>
<pdfrwt beam="2">  1       -2 0.22646711E+00 0.42930256E+04</pdfrwt>
<totfact> 0.99708458E-02</totfact>
</mgrwt>
</event>
<event>
 6    1  0.1762360E-005  0.2456701E+04  0.7818608E-02  0.8418575E-01
          2   -1    0    0  501    0  0.00000000000E+00  0.00000000000E+00  0.11073871429E+04  0.11073871429E+04  0.00000000000E+00 0. -1.
         -2   -1    0    0    0  501 -0.00000000000E+00 -0.00000000000E+00 -0.13625272190E+04  0.13625272190E+04  0.00000000000E+00 0.  1.
         23    2    1    2    0    0 -0.81989667409E+03 -0.76727919759E+03  0.36823084715E+03  0.11855704705E+04  0.95055039735E+02 0.  0.
         11    1    3    3    0    0 -0.27144076219E+03 -0.22457611539E+03  0.75281489106E+02  0.36025244147E+03  0.00000000000E+00 0.  1.
        -11    1    3    3    0    0 -0.54845591190E+03 -0.54270308220E+03  0.29294935805E+03  0.82531802907E+03  0.00000000000E+00 0. -1.
         22    1    1    2    0    0  0.81989667409E+03  0.76727919759E+03 -0.62337092323E+03  0.12843438913E+04  0.00000000000E+00 0.  1.
<mgrwt>
<rscale>  0 0.24567011E+04</rscale>
<asrwt>0</asrwt>
<pdfrwt beam="1">  1        2 0.17036725E+00 0.24567011E+04</pdfrwt>
<pdfrwt beam="2">  1       -2 0.20961957E+00 0.24567011E+04</pdfrwt>
<totfact> 0.22218510E+00</totfact>
</mgrwt>
</event>
<event>
 6    1  0.1762360E-005  0.2376989E+04  0.7818608E-02  0.8448169E-01
         -2   -1    0    0    0  501 -0.00000000000E+00  0.00000000000E+00  0.45417032380E+03  0.45417032380E+03  0.00000000000E+00 0.  1.
          2   -1    0    0  501    0  0.00000000000E+00 -0.00000000000E+00 -0.31101080113E+04  0.31101080113E+04  0.00000000000E+00 0. -1.
         23    2    1    2    0    0 -0.70415253849E+03  0.79064303930E+03 -0.52590854750E+03  0.11856292752E+04  0.90497319052E+02 0.  0.
         13    1    3    3    0    0 -0.15725904926E+03  0.12385022082E+03 -0.94503586358E+02  0.22135991870E+03  0.00000000000E+00 0. -1.
        -13    1    3    3    0    0 -0.54689348923E+03  0.66679281848E+03 -0.43140496114E+03  0.96426935647E+03  0.00000000000E+00 0.  1.
         22    1    1    2    0    0  0.70415253849E+03 -0.79064303930E+03 -0.21300291401E+04  0.23786490600E+04  0.00000000000E+00 0. -1.
<mgrwt>
<rscale>  0 0.23769887E+04</rscale>
<asrwt>0</asrwt>
<pdfrwt beam="1">  1        2 0.47847814E+00 0.23769887E+04</pdfrwt>
<pdfrwt beam="2">  1       -2 0.69872359E-01 0.23769887E+04</pdfrwt>
<totfact> 0.24948887E+00</totfact>
</mgrwt>
</event>
<event>
 6    1  0.1762360E-005  0.1587068E+04  0.7818608E-02  0.8828532E-01
          1   -1    0    0  501    0  0.00000000000E+00  0.00000000000E+00  0.51134253754E+03  0.51134253754E+03  0.00000000000E+00 0. -1.
         -1   -1    0    0    0  501 -0.00000000000E+00 -0.00000000000E+00 -0.12314566981E+04  0.12314566981E+04  0.00000000000E+00 0.  1.
         23    2    1    2    0    0 -0.18947740701E+03  0.69242537750E+03 -0.72591952377E+03  0.10248937451E+04  0.89963562459E+02 0.  0.
         11    1    3    3    0    0 -0.18585819880E+03  0.61307389195E+03 -0.67464291214E+03  0.93034720721E+03  0.00000000000E+00 0. -1.
        -11    1    3    3    0    0 -0.36192082142E+01  0.79351485544E+02 -0.51276611628E+02  0.94546537886E+02  0.00000000000E+00 0.  1.
         22    1    1    2    0    0  0.18947740701E+03 -0.69242537750E+03  0.58053631748E+01  0.71790549059E+03  0.00000000000E+00 0. -1.
<mgrwt>
<rscale>  0 0.15870680E+04</rscale>
<asrwt>0</asrwt>
<pdfrwt beam="1">  1        1 0.78668084E-01 0.15870680E+04</pdfrwt>
<pdfrwt beam="2">  1       -1 0.18945487E+00 0.15870680E+04</pdfrwt>
<totfact> 0.73556166E+00</totfact>
</mgrwt>
</event>
<event>
 6    1  0.1762360E-005  0.2799290E+04  0.7818608E-02  0.8303489E-01
         -1   -1    0    0    0  501 -0.00000000000E+00  0.00000000000E+00  0.13256641666E+04  0.13256641666E+04  0.00000000000E+00 0.  1.
          1   -1    0    0  501    0  0.00000000000E+00 -0.00000000000E+00 -0.14777539834E+04  0.14777539834E+04  0.00000000000E+00 0. -1.
         23    2    1    2    0    0 -0.23273096843E+03 -0.12285476040E+04 -0.70253291764E+03  0.14372261700E+04  0.92593977095E+02 0.  0.
         11    1    3    3    0    0 -0.64559359360E+02 -0.22626571380E+03 -0.99321972225E+02  0.25539956595E+03  0.00000000000E+00 0. -1.
        -11    1    3    3    0    0 -0.16817160907E+03 -0.10022818902E+04 -0.60321094542E+03  0.11818266041E+04  0.00000000000E+00 0.  1.
         22    1    1    2    0    0  0.23273096843E+03  0.12285476040E+04  0.55044310088E+03  0.13661919800E+04  0.00000000000E+00 0. -1.
<mgrwt>
<rscale>  0 0.27992896E+04</rscale>
<asrwt>0</asrwt>
<pdfrwt beam="1">  1        1 0.22734677E+00 0.27992896E+04</pdfrwt>
<pdfrwt beam="2">  1       -1 0.20394833E+00 0.27992896E+04</pdfrwt>
<totfact> 0.82976801E-01</totfact>
</mgrwt>
</event>
<event>
 6    1  0.1762360E-005  0.4604157E+04  0.7818608E-02  0.7892652E-01
          2   -1    0    0  501    0  0.00000000000E+00  0.00000000000E+00  0.30895670045E+04  0.30895670045E+04  0.00000000000E+00 0. -1.
         -2   -1    0    0    0  501 -0.00000000000E+00 -0.00000000000E+00 -0.17153098109E+04  0.17153098109E+04  0.00000000000E+00 0.  1.
         23    2    1    2    0    0 -0.10528143275E+04  0.55996987769E+03 -0.13665445936E+04  0.18159006179E+04  0.89814562359E+02 0.  0.
         11    1    3    3    0    0 -0.81630631745E+03  0.46770676489E+03 -0.11083828095E+04  0.14538287637E+04  0.00000000000E+00 0. -1.
        -11    1    3    3    0    0 -0.23650801007E+03  0.92263112792E+02 -0.25816178408E+03  0.36207185415E+03  0.00000000000E+00 0.  1.
         22    1    1    2    0    0  0.10528143275E+04 -0.55996987769E+03  0.27408017873E+04  0.29889761975E+04  0.00000000000E+00 0. -1.
<mgrwt>
<rscale>  0 0.46041566E+04</rscale>
<asrwt>0</asrwt>
<pdfrwt beam="1">  1        2 0.47531800E+00 0.46041566E+04</pdfrwt>
<pdfrwt beam="2">  1       -2 0.26389382E+00 0.46041566E+04</pdfrwt>
<totfact> 0.60599355E-02</totfact>
</mgrwt>
</event>
<event>
 6    1  0.1762360E-005  0.1276522E+04  0.7818608E-02  0.9048394E-01
         -1   -1    0    0    0  501 -0.00000000000E+00  0.00000000000E+00  0.30596013966E+03  0.30596013966E+03  0.00000000000E+00 0.  1.
          1   -1    0    0  501    0  0.00000000000E+00 -0.00000000000E+00 -0.13314707515E+04  0.13314707515E+04  0.00000000000E+00 0. -1.
         23    2    1    2    0    0 -0.57058595062E+02  0.61978665535E+03 -0.35344665068E+03  0.72142808040E+03  0.90237236768E+02 0.  0.
         13    1    3    3    0    0 -0.46875737456E+02  0.23513763349E+03 -0.17754505866E+03  0.29834424630E+03  0.00000000000E+00 0.  1.
        -13    1    3    3    0    0 -0.10182857606E+02  0.38464902185E+03 -0.17590159202E+03  0.42308383410E+03  0.00000000000E+00 0. -1.
         22    1    1    2    0    0  0.57058595062E+02 -0.61978665535E+03 -0.67206396114E+03  0.91600281074E+03  0.00000000000E+00 0. -1.
<mgrwt>
<rscale>  0 0.12765218E+04</rscale>
<asrwt>0</asrwt>
<pdfrwt beam="1">  1        1 0.20484165E+00 0.12765218E+04</pdfrwt>
<pdfrwt beam="2">  1       -1 0.47070791E-01 0.12765218E+04</pdfrwt>
<totfact> 0.38040635E+01</totfact>
</mgrwt>
</event>
<event>
 6    1  0.1762360E-005  0.5547937E+04  0.7818608E-02  0.7749127E-01
         -1   -1    0    0    0  501 -0.00000000000E+00  0.00000000000E+00  0.21472270617E+04  0.21472270617E+04  0.00000000000E+00 0.  1.
          1   -1    0    0  501    0  0.00000000000E+00 -0.00000000000E+00 -0.35836460343E+04  0.35836460343E+04  0.00000000000E+00 0. -1.
         23    2    1    2    0    0  0.84165465483E+03  0.12891932199E+04  0.16642276768E+04  0.22690222383E+04  0.91686647554E+02 0.  0.
         13    1    3    3    0    0  0.58477647691E+03  0.93574928537E+03  0.12428448664E+04  0.16620028926E+04  0.00000000000E+00 0. -1.
        -13    1    3    3    0    0  0.25687817792E+03  0.35344393457E+03  0.42138281042E+03  0.60701934574E+03  0.00000000000E+00 0.  1.
         22    1    1    2    0    0 -0.84165465483E+03 -0.12891932199E+04 -0.31006466494E+04  0.34618508577E+04  0.00000000000E+00 0. -1.
<mgrwt>
<rscale>  0 0.55479372E+04</rscale>
<asrwt>0</asrwt>
<pdfrwt beam="1">  1        1 0.55133016E+00 0.55479372E+04</pdfrwt>
<pdfrwt beam="2">  1       -1 0.33034262E+00 0.55479372E+04</pdfrwt>
<totfact> 0.31010295E-03</totfact>
</mgrwt>
</event>
<event>
 6    1  0.1762360E-005  0.2757489E+04  0.7818608E-02  0.8316589E-01
          1   -1    0    0  501    0  0.00000000000E+00  0.00000000000E+00  0.13256298051E+04  0.13256298051E+04  0.00000000000E+00 0. -1.
         -1   -1    0    0    0  501 -0.00000000000E+00 -0.00000000000E+00 -0.14339873278E+04  0.14339873278E+04  0.00000000000E+00 0.  1.
         23    2    1    2    0    0 -0.12128743216E+04  0.59834549670E+03 -0.31407304655E+03  0.13916257842E+04  0.94334464551E+02 0.  0.
         11    1    3    3    0    0 -0.42438161569E+03  0.16019158723E+03 -0.11124183980E+03  0.46705015499E+03  0.00000000000E+00 0. -1.
        -11    1    3    3    0    0 -0.78849270596E+03  0.43815390947E+03 -0.20283120674E+03  0.92457562923E+03  0.00000000000E+00 0.  1.
         22    1    1    2    0    0  0.12128743216E+04 -0.59834549670E+03  0.20571552384E+03  0.13679913488E+04  0.00000000000E+00 0. -1.
<mgrwt>
<rscale>  0 0.27574890E+04</rscale>
<asrwt>0</asrwt>
<pdfrwt beam="1">  1        1 0.20394305E+00 0.27574890E+04</pdfrwt>
<pdfrwt beam="2">  1       -1 0.22061344E+00 0.27574890E+04</pdfrwt>
<totfact> 0.82146085E-01</totfact>
</mgrwt>
</event>
<event>
 6    1  0.2433255E-005  0.3866231E+04  0.7818608E-02  0.8032089E-01
          1   -1    0    0  501    0  0.00000000000E+00  0.00000000000E+00  0.18729605671E+04  0.18729605671E+04  0.00000000000E+00 0. -1.
         -1   -1    0    0    0  501 -0.00000000000E+00 -0.00000000000E+00 -0.19952028211E+04  0.19952028211E+04  0.00000000000E+00 0.  1.
         23    2    1    2    0    0  0.80959714616E+03  0.13273602725E+04 -0.12086755951E+04  0.19714108380E+04  0.90725774115E+02 0.  0.
         11    1    3    3    0    0  0.53161553788E+03  0.92369479607E+03 -0.86831176876E+03  0.13746972336E+04  0.00000000000E+00 0. -1.
        -11    1    3    3    0    0  0.27798160827E+03  0.40366547642E+03 -0.34036382630E+03  0.59671360437E+03  0.00000000000E+00 0.  1.
         22    1    1    2    0    0 -0.80959714616E+03 -0.13273602725E+04  0.10864333411E+04  0.18967525502E+04  0.00000000000E+00 0. -1.
<mgrwt>
<rscale>  0 0.38662313E+04</rscale>
<asrwt>0</asrwt>
<pdfrwt beam="1">  1        1 0.28814778E+00 0.38662313E+04</pdfrwt>
<pdfrwt beam="2">  1       -1 0.30695428E+00 0.38662313E+04</pdfrwt>
<totfact> 0.85592118E-02</totfact>
</mgrwt>
</event>
<event>
 6    1  0.1762360E-005  0.6613999E+04  0.7818608E-02  0.7618609E-01
          2   -1    0    0  501    0  0.00000000000E+00  0.00000000000E+00  0.22445928313E+04  0.22445928313E+04  0.00000000000E+00 0.  1.
         -2   -1    0    0    0  501 -0.00000000000E+00 -0.00000000000E+00 -0.48722626827E+04  0.48722626827E+04  0.00000000000E+00 0. -1.
         23    2    1    2    0    0  0.50503910770E+03 -0.57834663535E+03 -0.47745620628E+04  0.48367907125E+04  0.92477964795E+02 0.  0.
         11    1    3    3    0    0  0.34201178275E+03 -0.32688035226E+03 -0.30136313392E+04  0.30505403903E+04  0.00000000000E+00 0.  1.
        -11    1    3    3    0    0  0.16302732495E+03 -0.25146628309E+03 -0.17609307237E+04  0.17862503223E+04  0.00000000000E+00 0. -1.
         22    1    1    2    0    0 -0.50503910770E+03  0.57834663535E+03  0.21468922115E+04  0.22800648014E+04  0.00000000000E+00 0.  1.
<mgrwt>
<rscale>  0 0.66139991E+04</rscale>
<asrwt>0</asrwt>
<pdfrwt beam="1">  1        2 0.34532198E+00 0.66139991E+04</pdfrwt>
<pdfrwt beam="2">  1       -2 0.74957887E+00 0.66139991E+04</pdfrwt>
<totfact> 0.45806167E-04</totfact>
</mgrwt>
</event>
<event>
 6    1  0.1762360E-005  0.2242429E+04  0.7818608E-02  0.8500973E-01
          2   -1    0    0  501    0  0.00000000000E+00  0.00000000000E+00  0.36543715887E+04  0.36543715887E+04  0.00000000000E+00 0.  1.
         -2   -1    0    0    0  501 -0.00000000000E+00 -0.00000000000E+00 -0.34400486700E+03  0.34400486700E+03  0.00000000000E+00 0. -1.
         23    2    1    2    0    0  0.31126904394E+03 -0.10253237308E+04  0.22345355955E+04  0.24799595884E+04  0.94196933201E+02 0.  0.
         11    1    3    3    0    0  0.45250705732E+02 -0.29358726074E+03  0.61077056424E+03  0.67917728774E+03  0.00000000000E+00 0. -1.
        -11    1    3    3    0    0  0.26601833821E+03 -0.73173647004E+03  0.16237650312E+04  0.18007823007E+04  0.00000000000E+00 0.  1.
         22    1    1    2    0    0 -0.31126904394E+03  0.10253237308E+04  0.10758311262E+04  0.15184168673E+04  0.00000000000E+00 0.  1.
<mgrwt>
<rscale>  0 0.22424287E+04</rscale>
<asrwt>0</asrwt>
<pdfrwt beam="1">  1        2 0.56221099E+00 0.22424287E+04</pdfrwt>
<pdfrwt beam="2">  1       -2 0.52923828E-01 0.22424287E+04</pdfrwt>
<totfact> 0.19417607E+00</totfact>
</mgrwt>
</event>
<event>
 6    1  0.1762360E-005  0.1754021E+04  0.7818608E-02  0.8731140E-01
         -2   -1    0    0    0  501 -0.00000000000E+00  0.00000000000E+00  0.26136262034E+03  0.26136262034E+03  0.00000000000E+00 0. -1.
          2   -1    0    0  501    0  0.00000000000E+00 -0.00000000000E+00 -0.29428362193E+04  0.29428362193E+04  0.00000000000E+00 0.  1.
         23    2    1    2    0    0 -0.36492328499E+03 -0.34796321150E+03 -0.39575880955E+02  0.51461319259E+03  0.94937280070E+02 0.  0.
         13    1    3    3    0    0 -0.27205617639E+03 -0.27911911063E+03 -0.67777954224E+02  0.39562089443E+03  0.00000000000E+00 0. -1.
        -13    1    3    3    0    0 -0.92867108598E+02 -0.68844100872E+02  0.28202073269E+02  0.11899229816E+03  0.00000000000E+00 0.  1.
         22    1    1    2    0    0  0.36492328499E+03  0.34796321150E+03 -0.26418977180E+04  0.26895856470E+04  0.00000000000E+00 0.  1.
<mgrwt>
<rscale>  0 0.17540210E+04</rscale>
<asrwt>0</asrwt>
<pdfrwt beam="1">  1        2 0.45274399E+00 0.17540210E+04</pdfrwt>
<pdfrwt beam="2">  1       -2 0.40209637E-01 0.17540210E+04</pdfrwt>
<totfact> 0.10525148E+01</totfact>
</mgrwt>
</event>
<event>
 6    1  0.1762360E-005  0.1041782E+04  0.7818608E-02  0.9263870E-01
          2   -1    0    0  501    0  0.00000000000E+00  0.00000000000E+00  0.25564331343E+04  0.25564331343E+04  0.00000000000E+00 0. -1.
         -2   -1    0    0    0  501 -0.00000000000E+00 -0.00000000000E+00 -0.10613511715E+03  0.10613511715E+03  0.00000000000E+00 0.  1.
         23    2    1    2    0    0  0.22425511312E+03  0.33699343863E+03  0.41324553563E+03  0.58568651532E+03  0.91661813562E+02 0.  0.
         13    1    3    3    0    0  0.31125895348E+01  0.51111622138E+02  0.32179120388E+02  0.60477945733E+02  0.00000000000E+00 0. -1.
        -13    1    3    3    0    0  0.22114252358E+03  0.28588181649E+03  0.38106641524E+03  0.52520856958E+03  0.00000000000E+00 0.  1.
         22    1    1    2    0    0 -0.22425511312E+03 -0.33699343863E+03  0.20370524815E+04  0.20768817361E+04  0.00000000000E+00 0. -1.
<mgrwt>
<rscale>  0 0.10417818E+04</rscale>
<asrwt>0</asrwt>
<pdfrwt beam="1">  1        2 0.39329736E+00 0.10417818E+04</pdfrwt>
<pdfrwt beam="2">  1       -2 0.16328481E-01 0.10417818E+04</pdfrwt>
<totfact> 0.98861253E+01</totfact>
</mgrwt>
</event>
<event>
 6    1  0.1762360E-005  0.2237477E+04  0.7818608E-02  0.8502989E-01
         -1   -1    0    0    0  501 -0.00000000000E+00  0.00000000000E+00  0.11167302845E+04  0.11167302845E+04  0.00000000000E+00 0.  1.
          1   -1    0    0  501    0  0.00000000000E+00 -0.00000000000E+00 -0.11207501982E+04  0.11207501982E+04  0.00000000000E+00 0. -1.
         23    2    1    2    0    0  0.31544327747E+03  0.29211064733E+02  0.10690987115E+04  0.11185786410E+04  0.88816515349E+02 0.  0.
         11    1    3    3    0    0  0.11308738643E+03  0.24078419486E+02  0.53633555072E+03  0.54865686018E+03  0.00000000000E+00 0. -1.
        -11    1    3    3    0    0  0.20235589104E+03  0.51326452474E+01  0.53276316081E+03  0.56992178077E+03  0.00000000000E+00 0.  1.
         22    1    1    2    0    0 -0.31544327747E+03 -0.29211064733E+02 -0.10731186253E+04  0.11189018418E+04  0.00000000000E+00 0. -1.
<mgrwt>
<rscale>  0 0.22374769E+04</rscale>
<asrwt>0</asrwt>
<pdfrwt beam="1">  1        1 0.17242311E+00 0.22374769E+04</pdfrwt>
<pdfrwt beam="2">  1       -1 0.17180466E+00 0.22374769E+04</pdfrwt>
<totfact> 0.26531010E+00</totfact>
</mgrwt>
</event>
<event>
 6    1  0.1762360E-005  0.4399122E+04  0.7818608E-02  0.7928540E-01
         -2   -1    0    0    0  501 -0.00000000000E+00  0.00000000000E+00  0.17092430137E+04  0.17092430137E+04  0.00000000000E+00 0.  1.
          2   -1    0    0  501    0  0.00000000000E+00 -0.00000000000E+00 -0.28305326728E+04  0.28305326728E+04  0.00000000000E+00 0. -1.
         23    2    1    2    0    0 -0.22404539746E+03  0.49273235784E+03 -0.27597069775E+04  0.28142633494E+04  0.10542334471E+03 0.  0.
         13    1    3    3    0    0 -0.48808264546E+02  0.11267307154E+03 -0.88027281604E+03  0.88879564490E+03  0.00000000000E+00 0.  1.
        -13    1    3    3    0    0 -0.17523713291E+03  0.38005928630E+03 -0.18794341614E+04  0.19254677045E+04  0.00000000000E+00 0. -1.
         22    1    1    2    0    0  0.22404539746E+03 -0.49273235784E+03  0.16384173183E+04  0.17255123371E+04  0.00000000000E+00 0.  1.
<mgrwt>
<rscale>  0 0.43991218E+04</rscale>
<asrwt>0</asrwt>
<pdfrwt beam="1">  1        2 0.43546656E+00 0.43991218E+04</pdfrwt>
<pdfrwt beam="2">  1       -2 0.26296046E+00 0.43991218E+04</pdfrwt>
<totfact> 0.90555977E-02</totfact>
</mgrwt>
</event>
<event>
 6    1  0.1762360E-005  0.3299297E+04  0.7818608E-02  0.8163074E-01
         -1   -1    0    0    0  501 -0.00000000000E+00  0.00000000000E+00  0.14684552493E+04  0.14684552493E+04  0.00000000000E+00 0.  1.
          1   -1    0    0  501    0  0.00000000000E+00 -0.00000000000E+00 -0.18531997914E+04  0.18531997914E+04  0.00000000000E+00 0. -1.
         23    2    1    2    0    0 -0.10248459958E+04  0.17116907106E+03 -0.14809005055E+04  0.18113020812E+04  0.90226138860E+02 0.  0.
         11    1    3    3    0    0 -0.95977275154E+03  0.14668009911E+03 -0.14104259582E+04  0.17123025929E+04  0.00000000000E+00 0.  1.
        -11    1    3    3    0    0 -0.65073244278E+02  0.24488971946E+02 -0.70474547339E+02  0.98999488334E+02  0.00000000000E+00 0. -1.
         22    1    1    2    0    0  0.10248459958E+04 -0.17116907106E+03  0.10961559634E+04  0.15103529594E+04  0.00000000000E+00 0.  1.
<mgrwt>
<rscale>  0 0.32992975E+04</rscale>
<asrwt>0</asrwt>
<pdfrwt beam="1">  1        1 0.28510766E+00 0.32992975E+04</pdfrwt>
<pdfrwt beam="2">  1       -1 0.22591619E+00 0.32992975E+04</pdfrwt>
<totfact> 0.31251829E-01</totfact>
</mgrwt>
</event>
<event>
 6    1  0.1762360E-005  0.2327495E+04  0.7818608E-02  0.8467159E-01
          2   -1    0    0  501    0  0.00000000000E+00  0.00000000000E+00  0.92793549566E+03  0.92793549566E+03  0.00000000000E+00 0.  1.
         -2   -1    0    0    0  501 -0.00000000000E+00 -0.00000000000E+00 -0.14594851982E+04  0.14594851982E+04  0.00000000000E+00 0. -1.
         23    2    1    2    0    0 -0.87536473635E+03 -0.12473649542E+03 -0.10394210310E+04  0.13677364774E+04  0.92110678821E+02 0.  0.
         13    1    3    3    0    0 -0.44863150456E+03 -0.98408351028E+02 -0.49072915137E+03  0.67213802930E+03  0.00000000000E+00 0. -1.
        -13    1    3    3    0    0 -0.42673323179E+03 -0.26328144393E+02 -0.54869187962E+03  0.69559844815E+03  0.00000000000E+00 0.  1.
         22    1    1    2    0    0  0.87536473635E+03  0.12473649542E+03  0.50787132845E+03  0.10196842164E+04  0.00000000000E+00 0.  1.
<mgrwt>
<rscale>  0 0.23274949E+04</rscale>
<asrwt>0</asrwt>
<pdfrwt beam="1">  1        2 0.14275931E+00 0.23274949E+04</pdfrwt>
<pdfrwt beam="2">  1       -2 0.22453618E+00 0.23274949E+04</pdfrwt>
<totfact> 0.23495953E+00</totfact>
</mgrwt>
</event>
<event>
 6    1  0.1762360E-005  0.3357160E+04  0.7818608E-02  0.8148501E-01
          3   -1    0    0  501    0  0.00000000000E+00  0.00000000000E+00  0.18421002849E+04  0.18421002849E+04  0.00000000000E+00 0. -1.
         -3   -1    0    0    0  501 -0.00000000000E+00 -0.00000000000E+00 -0.15295752252E+04  0.15295752252E+04  0.00000000000E+00 0.  1.
         23    2    1    2    0    0 -0.57033352262E+03 -0.13762931914E+04  0.93031909714E+03  0.17588727483E+04  0.93147445459E+02 0.  0.
         11    1    3    3    0    0 -0.39538202961E+03 -0.97686142431E+03  0.70620609901E+03  0.12685867120E+04  0.00000000000E+00 0.  1.
        -11    1    3    3    0    0 -0.17495149301E+03 -0.39943176705E+03  0.22411299812E+03  0.49028603627E+03  0.00000000000E+00 0. -1.
         22    1    1    2    0    0  0.57033352262E+03  0.13762931914E+04 -0.61779403744E+03  0.16128027617E+04  0.00000000000E+00 0.  1.
<mgrwt>
<rscale>  0 0.33571601E+04</rscale>
<asrwt>0</asrwt>
<pdfrwt beam="1">  1        3 0.28340005E+00 0.33571601E+04</pdfrwt>
<pdfrwt beam="2">  1       -3 0.23531926E+00 0.33571601E+04</pdfrwt>
<totfact> 0.91620086E-03</totfact>
</mgrwt>
</event>
<event>
 6    1  0.1762360E-005  0.7503873E+03  0.7818608E-02  0.9634743E-01
          1   -1    0    0  501    0  0.00000000000E+00  0.00000000000E+00  0.29152396238E+03  0.29152396238E+03  0.00000000000E+00 0.  1.
         -1   -1    0    0    0  501 -0.00000000000E+00 -0.00000000000E+00 -0.48287714810E+03  0.48287714810E+03  0.00000000000E+00 0. -1.
         23    2    1    2    0    0 -0.19148831714E+03  0.25424334054E+02 -0.42225472544E+03  0.47335345079E+03  0.91925316708E+02 0.  0.
         11    1    3    3    0    0 -0.43393529335E+02 -0.33213082276E+02 -0.10797116658E+03  0.12101190039E+03  0.00000000000E+00 0. -1.
        -11    1    3    3    0    0 -0.14809478781E+03  0.58637416330E+02 -0.31428355886E+03  0.35234155040E+03  0.00000000000E+00 0.  1.
         22    1    1    2    0    0  0.19148831714E+03 -0.25424334054E+02  0.23090153972E+03  0.30104765969E+03  0.00000000000E+00 0.  1.
<mgrwt>
<rscale>  0 0.75038726E+03</rscale>
<asrwt>0</asrwt>
<pdfrwt beam="1">  1        1 0.44849841E-01 0.75038726E+03</pdfrwt>
<pdfrwt beam="2">  1       -1 0.74288792E-01 0.75038726E+03</pdfrwt>
<totfact> 0.16831112E+02</totfact>
</mgrwt>
</event>
<event>
 6    1  0.1762360E-005  0.1596489E+04  0.7818608E-02  0.8822708E-01
         -1   -1    0    0    0  501 -0.00000000000E+00  0.00000000000E+00  0.53966957345E+03  0.53966957345E+03  0.00000000000E+00 0.  1.
          1   -1    0    0  501    0  0.00000000000E+00 -0.00000000000E+00 -0.11807118491E+04  0.11807118491E+04  0.00000000000E+00 0. -1.
         23    2    1    2    0    0  0.76108570972E+03 -0.19874637740E+03 -0.45053489897E+03  0.91103314115E+03  0.90819100476E+02 0.  0.
         13    1    3    3    0    0  0.54541143249E+03 -0.10630928310E+03 -0.34211591770E+03  0.65254777259E+03  0.00000000000E+00 0. -1.
        -13    1    3    3    0    0  0.21567427723E+03 -0.92437094301E+02 -0.10841898128E+03  0.25848536857E+03  0.00000000000E+00 0.  1.
         22    1    1    2    0    0 -0.76108570972E+03  0.19874637740E+03 -0.19050737671E+03  0.80934828143E+03  0.00000000000E+00 0.  1.
<mgrwt>
<rscale>  0 0.15964890E+04</rscale>
<asrwt>0</asrwt>
<pdfrwt beam="1">  1        1 0.18164798E+00 0.15964890E+04</pdfrwt>
<pdfrwt beam="2">  1       -1 0.83026089E-01 0.15964890E+04</pdfrwt>
<totfact> 0.15265491E+01</totfact>
</mgrwt>
</event>
<event>
 6    1  0.1762360E-005  0.2230707E+04  0.7818608E-02  0.8505755E-01
          2   -1    0    0  501    0  0.00000000000E+00  0.00000000000E+00  0.15431396895E+04  0.15431396895E+04  0.00000000000E+00 0. -1.
         -2   -1    0    0    0  501 -0.00000000000E+00 -0.00000000000E+00 -0.80615718956E+03  0.80615718956E+03  0.00000000000E+00 0.  1.
         23    2    1    2    0    0  0.55666385759E+03  0.28873021732E+03  0.13380702870E+04  0.14806506240E+04  0.93028966492E+02 0.  0.
         11    1    3    3    0    0  0.21885347765E+03  0.14120630717E+03  0.64609858816E+03  0.69662001944E+03  0.00000000000E+00 0. -1.
        -11    1    3    3    0    0  0.33781037995E+03  0.14752391015E+03  0.69197169886E+03  0.78403060456E+03  0.00000000000E+00 0.  1.
         22    1    1    2    0    0 -0.55666385759E+03 -0.28873021732E+03 -0.60108778705E+03  0.86864625509E+03  0.00000000000E+00 0.  1.
<mgrwt>
<rscale>  0 0.22307068E+04</rscale>
<asrwt>0</asrwt>
<pdfrwt beam="1">  1        2 0.23740611E+00 0.22307068E+04</pdfrwt>
<pdfrwt beam="2">  1       -2 0.12402418E+00 0.22307068E+04</pdfrwt>
<totfact> 0.53520792E+00</totfact>
</mgrwt>
</event>
<event>
 6    1  0.1762360E-005  0.4165990E+04  0.7818608E-02  0.7971873E-01
         -2   -1    0    0    0  501 -0.00000000000E+00  0.00000000000E+00  0.12930919819E+04  0.12930919819E+04  0.00000000000E+00 0.  1.
          2   -1    0    0  501    0  0.00000000000E+00 -0.00000000000E+00 -0.33554208227E+04  0.33554208227E+04  0.00000000000E+00 0. -1.
         23    2    1    2    0    0  0.15749323635E+04 -0.94405984198E+03  0.61990392865E+02  0.18405966482E+04  0.11087054479E+03 0.  0.
         13    1    3    3    0    0  0.92109399837E+03 -0.58892992339E+03 -0.74918667182E+01  0.10933017591E+04  0.00000000000E+00 0. -1.
        -13    1    3    3    0    0  0.65383836515E+03 -0.35512991859E+03  0.69482259583E+02  0.74729488906E+03  0.00000000000E+00 0.  1.
         22    1    1    2    0    0 -0.15749323635E+04  0.94405984198E+03 -0.21243192336E+04  0.28079161564E+04  0.00000000000E+00 0. -1.
<mgrwt>
<rscale>  0 0.41659898E+04</rscale>
<asrwt>0</asrwt>
<pdfrwt beam="1">  1        2 0.51621859E+00 0.41659898E+04</pdfrwt>
<pdfrwt beam="2">  1       -2 0.19893723E+00 0.41659898E+04</pdfrwt>
<totfact> 0.10740418E-01</totfact>
</mgrwt>
</event>
<event>
 6    1  0.1762360E-005  0.9871520E+03  0.7818608E-02  0.9322750E-01
          1   -1    0    0  501    0  0.00000000000E+00  0.00000000000E+00  0.85789743158E+03  0.85789743158E+03  0.00000000000E+00 0. -1.
         -1   -1    0    0    0  501 -0.00000000000E+00 -0.00000000000E+00 -0.28397017632E+03  0.28397017632E+03  0.00000000000E+00 0.  1.
         23    2    1    2    0    0 -0.43548472550E+03 -0.20793347361E+03  0.19548411137E+03  0.52859565456E+03  0.91192393472E+02 0.  0.
         13    1    3    3    0    0 -0.18399901602E+03 -0.41418961522E+02  0.59715662983E+02  0.19783106095E+03  0.00000000000E+00 0.  1.
        -13    1    3    3    0    0 -0.25148570948E+03 -0.16651451209E+03  0.13576844838E+03  0.33076459361E+03  0.00000000000E+00 0. -1.
         22    1    1    2    0    0  0.43548472550E+03  0.20793347361E+03  0.37844314390E+03  0.61327195334E+03  0.00000000000E+00 0. -1.
<mgrwt>
<rscale>  0 0.98715203E+03</rscale>
<asrwt>0</asrwt>
<pdfrwt beam="1">  1        1 0.13198422E+00 0.98715203E+03</pdfrwt>
<pdfrwt beam="2">  1       -1 0.43687720E-01 0.98715203E+03</pdfrwt>
<totfact> 0.10234040E+02</totfact>
</mgrwt>
</event>
<event>
 6    1  0.1762360E-005  0.1530320E+04  0.7818608E-02  0.8864537E-01
         -2   -1    0    0    0  501 -0.00000000000E+00  0.00000000000E+00  0.39682324977E+03  0.39682324977E+03  0.00000000000E+00 0.  1.
          2   -1    0    0  501    0  0.00000000000E+00 -0.00000000000E+00 -0.14753928746E+04  0.14753928746E+04  0.00000000000E+00 0. -1.
         23    2    1    2    0    0  0.28995231272E+03 -0.28340918535E+03  0.24887641261E+03  0.48422977994E+03  0.90254645526E+02 0.  0.
         13    1    3    3    0    0  0.14088734548E+03 -0.16691972388E+03  0.86553575344E+02  0.23495310115E+03  0.00000000000E+00 0. -1.
        -13    1    3    3    0    0  0.14906496724E+03 -0.11648946147E+03  0.16232283726E+03  0.24927667879E+03  0.00000000000E+00 0.  1.
         22    1    1    2    0    0 -0.28995231272E+03  0.28340918535E+03 -0.13274460375E+04  0.13879863445E+04  0.00000000000E+00 0. -1.
<mgrwt>
<rscale>  0 0.15303205E+04</rscale>
<asrwt>0</asrwt>
<pdfrwt beam="1">  1        2 0.22698352E+00 0.15303205E+04</pdfrwt>
<pdfrwt beam="2">  1       -2 0.61049730E-01 0.15303205E+04</pdfrwt>
<totfact> 0.31539873E+01</totfact>
</mgrwt>
</event>
<event>
 6    1  0.1762360E-005  0.3430833E+04  0.7818608E-02  0.8130380E-01
         -2   -1    0    0    0  501 -0.00000000000E+00  0.00000000000E+00  0.18579724298E+04  0.18579724298E+04  0.00000000000E+00 0.  1.
          2   -1    0    0  501    0  0.00000000000E+00 -0.00000000000E+00 -0.15837988347E+04  0.15837988347E+04  0.00000000000E+00 0. -1.
         23    2    1    2    0    0 -0.13765195621E+04 -0.10179456530E+04  0.22258421741E+03  0.17289721165E+04  0.93709062419E+02 0.  0.
         13    1    3    3    0    0 -0.19071404746E+03 -0.10660328310E+03  0.13875461592E+02  0.21892609781E+03  0.00000000000E+00 0.  1.
        -13    1    3    3    0    0 -0.11858055147E+04 -0.91134236988E+03  0.20870875582E+03  0.15100460187E+04  0.00000000000E+00 0. -1.
         22    1    1    2    0    0  0.13765195621E+04  0.10179456530E+04  0.51589377646E+02  0.17127991480E+04  0.00000000000E+00 0. -1.
<mgrwt>
<rscale>  0 0.34308335E+04</rscale>
<asrwt>0</asrwt>
<pdfrwt beam="1">  1        2 0.24366136E+00 0.34308335E+04</pdfrwt>
<pdfrwt beam="2">  1       -2 0.28584191E+00 0.34308335E+04</pdfrwt>
<totfact> 0.36503621E-01</totfact>
</mgrwt>
</event>
<event>
 6    1  0.1762360E-005  0.1649422E+04  0.7818608E-02  0.8790748E-01
          2   -1    0    0  501    0  0.00000000000E+00  0.00000000000E+00  0.41161654630E+03  0.41161654630E+03  0.00000000000E+00 0. -1.
         -2   -1    0    0    0  501 -0.00000000000E+00 -0.00000000000E+00 -0.16523836936E+04  0.16523836936E+04  0.00000000000E+00 0.  1.
         23    2    1    2    0    0 -0.60497543821E+03  0.55446566441E+03 -0.56049917991E+03  0.99807718390E+03  0.92581210284E+02 0.  0.
         13    1    3    3    0    0 -0.34124165175E+03  0.33469581906E+03 -0.27408683895E+03  0.55099069999E+03  0.00000000000E+00 0. -1.
        -13    1    3    3    0    0 -0.26373378646E+03  0.21976984535E+03 -0.28641234096E+03  0.44708648392E+03  0.00000000000E+00 0.  1.
         22    1    1    2    0    0  0.60497543821E+03 -0.55446566441E+03 -0.68026796742E+03  0.10659230560E+04  0.00000000000E+00 0.  1.
<mgrwt>
<rscale>  0 0.16494223E+04</rscale>
<asrwt>0</asrwt>
<pdfrwt beam="1">  1        2 0.63325623E-01 0.16494223E+04</pdfrwt>
<pdfrwt beam="2">  1       -2 0.25421287E+00 0.16494223E+04</pdfrwt>
<totfact> 0.44538794E+00</totfact>
</mgrwt>
</event>
<event>
 6    1  0.1762360E-005  0.1730682E+04  0.7818608E-02  0.8744056E-01
         -2   -1    0    0    0  501 -0.00000000000E+00  0.00000000000E+00  0.10015152077E+04  0.10015152077E+04  0.00000000000E+00 0.  1.
          2   -1    0    0  501    0  0.00000000000E+00 -0.00000000000E+00 -0.74768225318E+03  0.74768225318E+03  0.00000000000E+00 0. -1.
         23    2    1    2    0    0 -0.54758020638E+03 -0.51219694072E+03  0.55926052050E+03  0.93958286954E+03  0.88621952382E+02 0.  0.
         13    1    3    3    0    0 -0.10718281950E+02 -0.26375551217E+02  0.37707994450E+02  0.47248747236E+02  0.00000000000E+00 0.  1.
        -13    1    3    3    0    0 -0.53686192443E+03 -0.48582138950E+03  0.52155252605E+03  0.89233412230E+03  0.00000000000E+00 0. -1.
         22    1    1    2    0    0  0.54758020638E+03  0.51219694072E+03 -0.30542756596E+03  0.80961459136E+03  0.00000000000E+00 0. -1.
<mgrwt>
<rscale>  0 0.17306821E+04</rscale>
<asrwt>0</asrwt>
<pdfrwt beam="1">  1        2 0.11502804E+00 0.17306821E+04</pdfrwt>
<pdfrwt beam="2">  1       -2 0.15407926E+00 0.17306821E+04</pdfrwt>
<totfact> 0.99644613E+00</totfact>
</mgrwt>
</event>
<event>
 6    1  0.1762360E-005  0.3056718E+04  0.7818608E-02  0.8227718E-01
         -2   -1    0    0    0  501 -0.00000000000E+00  0.00000000000E+00  0.68951933964E+03  0.68951933964E+03  0.00000000000E+00 0.  1.
          2   -1    0    0  501    0  0.00000000000E+00 -0.00000000000E+00 -0.33876953011E+04  0.33876953011E+04  0.00000000000E+00 0. -1.
         23    2    1    2    0    0  0.59429517175E+03  0.13972526914E+04 -0.15659894070E+04  0.21831850135E+04  0.92044258454E+02 0.  0.
         11    1    3    3    0    0  0.41031823630E+03  0.85410412414E+03 -0.96009717309E+03  0.13489408778E+04  0.00000000000E+00 0.  1.
        -11    1    3    3    0    0  0.18397693545E+03  0.54314856726E+03 -0.60589223393E+03  0.83424413575E+03  0.00000000000E+00 0. -1.
         22    1    1    2    0    0 -0.59429517175E+03 -0.13972526914E+04 -0.11321865544E+04  0.18940296272E+04  0.00000000000E+00 0. -1.
<mgrwt>
<rscale>  0 0.30567181E+04</rscale>
<asrwt>0</asrwt>
<pdfrwt beam="1">  1        2 0.52118390E+00 0.30567181E+04</pdfrwt>
<pdfrwt beam="2">  1       -2 0.10607990E+00 0.30567181E+04</pdfrwt>
<totfact> 0.59345690E-01</totfact>
</mgrwt>
</event>
<event>
 6    1  0.1762360E-005  0.2429302E+04  0.7818608E-02  0.8428614E-01
          2   -1    0    0  501    0  0.00000000000E+00  0.00000000000E+00  0.17003658270E+04  0.17003658270E+04  0.00000000000E+00 0. -1.
         -2   -1    0    0    0  501 -0.00000000000E+00 -0.00000000000E+00 -0.86768248467E+03  0.86768248467E+03  0.00000000000E+00 0.  1.
         23    2    1    2    0    0 -0.30084089384E+03  0.87678931395E+03  0.12438753515E+04  0.15539755268E+04  0.91374522926E+02 0.  0.
         13    1    3    3    0    0 -0.21336546950E+03  0.49107088725E+03  0.74106650429E+03  0.91425106161E+03  0.00000000000E+00 0. -1.
        -13    1    3    3    0    0 -0.87475424343E+02  0.38571842670E+03  0.50280884720E+03  0.63972446520E+03  0.00000000000E+00 0.  1.
         22    1    1    2    0    0  0.30084089384E+03 -0.87678931395E+03 -0.41119200919E+03  0.10140727848E+04  0.00000000000E+00 0.  1.
<mgrwt>
<rscale>  0 0.24293025E+04</rscale>
<asrwt>0</asrwt>
<pdfrwt beam="1">  1        2 0.26159474E+00 0.24293025E+04</pdfrwt>
<pdfrwt beam="2">  1       -2 0.13348961E+00 0.24293025E+04</pdfrwt>
<totfact> 0.35707604E+00</totfact>
</mgrwt>
</event>
<event>
 6    1  0.1762360E-005  0.2047644E+04  0.7818608E-02  0.8584664E-01
         -1   -1    0    0    0  501 -0.00000000000E+00  0.00000000000E+00  0.13907287528E+04  0.13907287528E+04  0.00000000000E+00 0.  1.
          1   -1    0    0  501    0  0.00000000000E+00 -0.00000000000E+00 -0.75371407506E+03  0.75371407506E+03  0.00000000000E+00 0. -1.
         23    2    1    2    0    0  0.47700565748E+03  0.37192748111E+03  0.11816814994E+04  0.13304855838E+04  0.89197950166E+02 0.  0.
         13    1    3    3    0    0  0.16251489520E+03  0.10848753927E+03  0.47046378552E+03  0.50942792505E+03  0.00000000000E+00 0. -1.
        -13    1    3    3    0    0  0.31449076228E+03  0.26343994185E+03  0.71121771385E+03  0.82105765876E+03  0.00000000000E+00 0.  1.
         22    1    1    2    0    0 -0.47700565748E+03 -0.37192748111E+03 -0.54466682166E+03  0.81395724402E+03  0.00000000000E+00 0. -1.
<mgrwt>
<rscale>  0 0.20476443E+04</rscale>
<asrwt>0</asrwt>
<pdfrwt beam="1">  1        1 0.11595601E+00 0.20476443E+04</pdfrwt>
<pdfrwt beam="2">  1       -1 0.21395827E+00 0.20476443E+04</pdfrwt>
<totfact> 0.27132570E+00</totfact>
</mgrwt>
</event>
<event>
 6    1  0.1762360E-005  0.3376653E+04  0.7818608E-02  0.8143660E-01
         -2   -1    0    0    0  501 -0.00000000000E+00  0.00000000000E+00  0.93884066592E+03  0.93884066592E+03  0.00000000000E+00 0.  1.
          2   -1    0    0  501    0  0.00000000000E+00 -0.00000000000E+00 -0.30361342865E+04  0.30361342865E+04  0.00000000000E+00 0. -1.
         23    2    1    2    0    0 -0.23753502029E+03 -0.13437552668E+04  0.11843094791E+03  0.13727573469E+04  0.91300279445E+02 0.  0.
         13    1    3    3    0    0 -0.91048284530E+02 -0.72418426900E+03  0.35775335607E+02  0.73076160287E+03  0.00000000000E+00 0.  1.
        -13    1    3    3    0    0 -0.14648673576E+03 -0.61957099784E+03  0.82655612299E+02  0.64199574404E+03  0.00000000000E+00 0. -1.
         22    1    1    2    0    0  0.23753502029E+03  0.13437552668E+04 -0.22157245685E+04  0.26022176055E+04  0.00000000000E+00 0. -1.
<mgrwt>
<rscale>  0 0.33766530E+04</rscale>
<asrwt>0</asrwt>
<pdfrwt beam="1">  1        2 0.46709757E+00 0.33766530E+04</pdfrwt>
<pdfrwt beam="2">  1       -2 0.14443703E+00 0.33766530E+04</pdfrwt>
<totfact> 0.45364900E-01</totfact>
</mgrwt>
</event>
<event>
 6    1  0.1762360E-005  0.5985627E+03  0.7818608E-02  0.9908393E-01
         -2   -1    0    0    0  501 -0.00000000000E+00  0.00000000000E+00  0.97998396419E+02  0.97998396419E+02  0.00000000000E+00 0. -1.
          2   -1    0    0  501    0  0.00000000000E+00 -0.00000000000E+00 -0.91398761283E+03  0.91398761283E+03  0.00000000000E+00 0.  1.
         23    2    1    2    0    0  0.14385392115E+03  0.19382212734E+03 -0.69635238661E+03  0.74259050313E+03  0.90956260463E+02 0.  0.
         11    1    3    3    0    0  0.84362784215E+02  0.14685525483E+03 -0.36063917216E+03  0.39842710466E+03  0.00000000000E+00 0. -1.
        -11    1    3    3    0    0  0.59491136930E+02  0.46966872514E+02 -0.33571321445E+03  0.34416339847E+03  0.00000000000E+00 0.  1.
         22    1    1    2    0    0 -0.14385392115E+03 -0.19382212734E+03 -0.11963682980E+03  0.26939550612E+03  0.00000000000E+00 0. -1.
<mgrwt>
<rscale>  0 0.59856268E+03</rscale>
<asrwt>0</asrwt>
<pdfrwt beam="1">  1        2 0.14061348E+00 0.59856268E+03</pdfrwt>
<pdfrwt beam="2">  1       -2 0.15076676E-01 0.59856268E+03</pdfrwt>
<totfact> 0.10032447E+03</totfact>
</mgrwt>
</event>
<event>
 6    1  0.1762360E-005  0.7520814E+03  0.7818608E-02  0.9632091E-01
          2   -1    0    0  501    0  0.00000000000E+00  0.00000000000E+00  0.21175664898E+04  0.21175664898E+04  0.00000000000E+00 0.  1.
         -2   -1    0    0    0  501 -0.00000000000E+00 -0.00000000000E+00 -0.66777886340E+02  0.66777886340E+02  0.00000000000E+00 0. -1.
         23    2    1    2    0    0 -0.71597422954E+01  0.21368347700E+03  0.19193750990E+04  0.19333834242E+04  0.90877962645E+02 0.  0.
         11    1    3    3    0    0 -0.39756188029E+02  0.75520349856E+02  0.53714341456E+03  0.54388135244E+03  0.00000000000E+00 0.  1.
        -11    1    3    3    0    0  0.32596445734E+02  0.13816312715E+03  0.13822316844E+04  0.13895020717E+04  0.00000000000E+00 0. -1.
         22    1    1    2    0    0  0.71597422954E+01 -0.21368347700E+03  0.13141350452E+03  0.25096095199E+03  0.00000000000E+00 0. -1.
<mgrwt>
<rscale>  0 0.75208142E+03</rscale>
<asrwt>0</asrwt>
<pdfrwt beam="1">  1        2 0.32577941E+00 0.75208142E+03</pdfrwt>
<pdfrwt beam="2">  1       -2 0.10273523E-01 0.75208142E+03</pdfrwt>
<totfact> 0.38732986E+02</totfact>
</mgrwt>
</event>
<event>
 6    1  0.1762360E-005  0.4660916E+04  0.7818608E-02  0.7883055E-01
         -1   -1    0    0    0  501 -0.00000000000E+00  0.00000000000E+00  0.15540054425E+04  0.15540054425E+04  0.00000000000E+00 0.  1.
          1   -1    0    0  501    0  0.00000000000E+00 -0.00000000000E+00 -0.34948620187E+04  0.34948620187E+04  0.00000000000E+00 0. -1.
         23    2    1    2    0    0 -0.21228701879E+04 -0.79910403281E+03 -0.39574710682E+03  0.23043259035E+04  0.90316148989E+02 0.  0.
         11    1    3    3    0    0 -0.14021573102E+04 -0.55355233594E+03 -0.22714893414E+03  0.15244874382E+04  0.00000000000E+00 0.  1.
        -11    1    3    3    0    0 -0.72071287777E+03 -0.24555169687E+03 -0.16859817268E+03  0.77983846522E+03  0.00000000000E+00 0. -1.
         22    1    1    2    0    0  0.21228701879E+04  0.79910403281E+03 -0.15451094694E+04  0.27445415578E+04  0.00000000000E+00 0. -1.
<mgrwt>
<rscale>  0 0.46609160E+04</rscale>
<asrwt>0</asrwt>
<pdfrwt beam="1">  1        1 0.53767108E+00 0.46609160E+04</pdfrwt>
<pdfrwt beam="2">  1       -1 0.23907776E+00 0.46609160E+04</pdfrwt>
<totfact> 0.15361296E-02</totfact>
</mgrwt>
</event>
<event>
 6    1  0.1762360E-005  0.1552454E+04  0.7818608E-02  0.8850302E-01
          2   -1    0    0  501    0  0.00000000000E+00  0.00000000000E+00  0.23154272803E+04  0.23154272803E+04  0.00000000000E+00 0. -1.
         -2   -1    0    0    0  501 -0.00000000000E+00 -0.00000000000E+00 -0.26022324818E+03  0.26022324818E+03  0.00000000000E+00 0.  1.
         23    2    1    2    0    0  0.19074302430E+03  0.67470283168E+03  0.48886691770E+03  0.85954482998E+03  0.90662225534E+02 0.  0.
         13    1    3    3    0    0  0.18782055765E+03  0.53662336931E+03  0.38275662989E+03  0.68537861076E+03  0.00000000000E+00 0.  1.
        -13    1    3    3    0    0  0.29224666484E+01  0.13807946237E+03  0.10611028780E+03  0.17416621922E+03  0.00000000000E+00 0. -1.
         22    1    1    2    0    0 -0.19074302430E+03 -0.67470283168E+03  0.15663371144E+04  0.17161056985E+04  0.00000000000E+00 0. -1.
<mgrwt>
<rscale>  0 0.15524536E+04</rscale>
<asrwt>0</asrwt>
<pdfrwt beam="1">  1        2 0.35621957E+00 0.15524536E+04</pdfrwt>
<pdfrwt beam="2">  1       -2 0.40034347E-01 0.15524536E+04</pdfrwt>
<totfact> 0.25282048E+01</totfact>
</mgrwt>
</event>
<event>
 6    1  0.1762360E-005  0.1861858E+04  0.7818608E-02  0.8674079E-01
          1   -1    0    0  501    0  0.00000000000E+00  0.00000000000E+00  0.15108317880E+04  0.15108317880E+04  0.00000000000E+00 0. -1.
         -1   -1    0    0    0  501 -0.00000000000E+00 -0.00000000000E+00 -0.57361017554E+03  0.57361017554E+03  0.00000000000E+00 0.  1.
         23    2    1    2    0    0 -0.89941324194E+03  0.40624341756E+02  0.72454630831E+03  0.11593336985E+04  0.92156143153E+02 0.  0.
         11    1    3    3    0    0 -0.48659930085E+03  0.64740450949E+02  0.41475852383E+03  0.64264674485E+03  0.00000000000E+00 0. -1.
        -11    1    3    3    0    0 -0.41281394109E+03 -0.24116109194E+02  0.30978778448E+03  0.51668695367E+03  0.00000000000E+00 0.  1.
         22    1    1    2    0    0  0.89941324194E+03 -0.40624341756E+02  0.21267530410E+03  0.92510826496E+03  0.00000000000E+00 0. -1.
<mgrwt>
<rscale>  0 0.18618577E+04</rscale>
<asrwt>0</asrwt>
<pdfrwt beam="1">  1        1 0.23243566E+00 0.18618577E+04</pdfrwt>
<pdfrwt beam="2">  1       -1 0.88247720E-01 0.18618577E+04</pdfrwt>
<totfact> 0.76124035E+00</totfact>
</mgrwt>
</event>
<event>
 6    1  0.1762360E-005  0.1960176E+04  0.7818608E-02  0.8625469E-01
          2   -1    0    0  501    0  0.00000000000E+00  0.00000000000E+00  0.62377667221E+03  0.62377667221E+03  0.00000000000E+00 0.  1.
         -2   -1    0    0    0  501 -0.00000000000E+00 -0.00000000000E+00 -0.15399299562E+04  0.15399299562E+04  0.00000000000E+00 0. -1.
         23    2    1    2    0    0  0.77676826576E+03  0.51695476055E+03 -0.78246598703E+03  0.12211126243E+04  0.90839733789E+02 0.  0.
         11    1    3    3    0    0  0.58872305416E+03  0.34875203836E+03 -0.54742020476E+03  0.87629429950E+03  0.00000000000E+00 0.  1.
        -11    1    3    3    0    0  0.18804521160E+03  0.16820272219E+03 -0.23504578228E+03  0.34481832481E+03  0.00000000000E+00 0. -1.
         22    1    1    2    0    0 -0.77676826576E+03 -0.51695476055E+03 -0.13368729693E+03  0.94259400407E+03  0.00000000000E+00 0.  1.
<mgrwt>
<rscale>  0 0.19601759E+04</rscale>
<asrwt>0</asrwt>
<pdfrwt beam="1">  1        2 0.95965642E-01 0.19601759E+04</pdfrwt>
<pdfrwt beam="2">  1       -2 0.23691230E+00 0.19601759E+04</pdfrwt>
<totfact> 0.34118331E+00</totfact>
</mgrwt>
</event>
<event>
 6    1  0.1762360E-005  0.2183734E+04  0.7818608E-02  0.8525229E-01
         -1   -1    0    0    0  501 -0.00000000000E+00  0.00000000000E+00  0.86597782281E+03  0.86597782281E+03  0.00000000000E+00 0.  1.
          1   -1    0    0  501    0  0.00000000000E+00 -0.00000000000E+00 -0.13766795798E+04  0.13766795798E+04  0.00000000000E+00 0. -1.
         23    2    1    2    0    0 -0.20546256050E+03  0.18144758179E+03  0.82756614384E+03  0.87660503792E+03  0.91829087808E+02 0.  0.
         13    1    3    3    0    0 -0.96380622709E+02  0.61882405191E+02  0.22227941737E+03  0.25005358604E+03  0.00000000000E+00 0.  1.
        -13    1    3    3    0    0 -0.10908193780E+03  0.11956517660E+03  0.60528672647E+03  0.62655145187E+03  0.00000000000E+00 0. -1.
         22    1    1    2    0    0  0.20546256050E+03 -0.18144758179E+03 -0.13382679009E+04  0.13660523647E+04  0.00000000000E+00 0. -1.
<mgrwt>
<rscale>  0 0.21837344E+04</rscale>
<asrwt>0</asrwt>
<pdfrwt beam="1">  1        1 0.21179685E+00 0.21837344E+04</pdfrwt>
<pdfrwt beam="2">  1       -1 0.13322736E+00 0.21837344E+04</pdfrwt>
<totfact> 0.34714768E+00</totfact>
</mgrwt>
</event>
<event>
 6    1  0.1762360E-005  0.4430158E+04  0.7818608E-02  0.7922979E-01
         -1   -1    0    0    0  501 -0.00000000000E+00  0.00000000000E+00  0.14907541687E+04  0.14907541687E+04  0.00000000000E+00 0.  1.
          1   -1    0    0  501    0  0.00000000000E+00 -0.00000000000E+00 -0.32913369698E+04  0.32913369698E+04  0.00000000000E+00 0. -1.
         23    2    1    2    0    0 -0.53656476134E+03  0.21340081254E+04 -0.63508125902E+03  0.22920537357E+04  0.91047785954E+02 0.  0.
         13    1    3    3    0    0 -0.19827782064E+03  0.71838793439E+03 -0.17405294531E+03  0.76530369540E+03  0.00000000000E+00 0. -1.
        -13    1    3    3    0    0 -0.33828694070E+03  0.14156201910E+04 -0.46102831371E+03  0.15267500403E+04  0.00000000000E+00 0.  1.
         22    1    1    2    0    0  0.53656476134E+03 -0.21340081254E+04 -0.11655015421E+04  0.24900374027E+04  0.00000000000E+00 0. -1.
<mgrwt>
<rscale>  0 0.44301577E+04</rscale>
<asrwt>0</asrwt>
<pdfrwt beam="1">  1        1 0.50635953E+00 0.44301577E+04</pdfrwt>
<pdfrwt beam="2">  1       -1 0.22934680E+00 0.44301577E+04</pdfrwt>
<totfact> 0.26102815E-02</totfact>
</mgrwt>
</event>
<event>
 6    1  0.1762360E-005  0.1849864E+04  0.7818608E-02  0.8680223E-01
         -2   -1    0    0    0  501 -0.00000000000E+00  0.00000000000E+00  0.43977025380E+03  0.43977025380E+03  0.00000000000E+00 0.  1.
          2   -1    0    0  501    0  0.00000000000E+00 -0.00000000000E+00 -0.19453320712E+04  0.19453320712E+04  0.00000000000E+00 0. -1.
         23    2    1    2    0    0  0.83931071618E+03 -0.68597755952E+02 -0.26849549251E+03  0.88861269170E+03  0.91621809279E+02 0.  0.
         13    1    3    3    0    0  0.61501954295E+03 -0.90185853155E+02 -0.20453683944E+03  0.65438356108E+03  0.00000000000E+00 0. -1.
        -13    1    3    3    0    0  0.22429117324E+03  0.21588097203E+02 -0.63958653070E+02  0.23422913063E+03  0.00000000000E+00 0.  1.
         22    1    1    2    0    0 -0.83931071618E+03  0.68597755952E+02 -0.12370663249E+04  0.14964896333E+04  0.00000000000E+00 0. -1.
<mgrwt>
<rscale>  0 0.18498640E+04</rscale>
<asrwt>0</asrwt>
<pdfrwt beam="1">  1        2 0.29928186E+00 0.18498640E+04</pdfrwt>
<pdfrwt beam="2">  1       -2 0.67656962E-01 0.18498640E+04</pdfrwt>
<totfact> 0.13488777E+01</totfact>
</mgrwt>
</event>
<event>
 6    1  0.1762360E-005  0.6873515E+03  0.7818608E-02  0.9739111E-01
          2   -1    0    0  501    0  0.00000000000E+00  0.00000000000E+00  0.44566162553E+03  0.44566162553E+03  0.00000000000E+00 0. -1.
         -2   -1    0    0    0  501 -0.00000000000E+00 -0.00000000000E+00 -0.26502849076E+03  0.26502849076E+03  0.00000000000E+00 0.  1.
         23    2    1    2    0    0 -0.65054566656E+02 -0.14558241953E+03  0.39929745646E+03  0.44006043739E+03  0.93746425573E+02 0.  0.
         13    1    3    3    0    0 -0.31092297588E+02 -0.29216974270E+01  0.12701668792E+03  0.13079948890E+03  0.00000000000E+00 0.  1.
        -13    1    3    3    0    0 -0.33962269068E+02 -0.14266072210E+03  0.27228076853E+03  0.30926094850E+03  0.00000000000E+00 0. -1.
         22    1    1    2    0    0  0.65054566656E+02  0.14558241953E+03 -0.21866432168E+03  0.27062967889E+03  0.00000000000E+00 0.  1.
<mgrwt>
<rscale>  0 0.68735152E+03</rscale>
<asrwt>0</asrwt>
<pdfrwt beam="1">  1        2 0.68563327E-01 0.68735152E+03</pdfrwt>
<pdfrwt beam="2">  1       -2 0.40773614E-01 0.68735152E+03</pdfrwt>
<totfact> 0.40384040E+02</totfact>
</mgrwt>
</event>
<event>
 6    1  0.1762360E-005  0.3768168E+04  0.7818608E-02  0.8053021E-01
         -2   -1    0    0    0  501 -0.00000000000E+00  0.00000000000E+00  0.13760736264E+04  0.13760736264E+04  0.00000000000E+00 0. -1.
          2   -1    0    0  501    0  0.00000000000E+00 -0.00000000000E+00 -0.25796379560E+04  0.25796379560E+04  0.00000000000E+00 0.  1.
         23    2    1    2    0    0  0.18475049928E+04 -0.17631066806E+03 -0.93599121014E+03  0.20806234446E+04  0.92489041030E+02 0.  0.
         11    1    3    3    0    0  0.11487004298E+04 -0.14780121777E+03 -0.55692247686E+03  0.12851149842E+04  0.00000000000E+00 0.  1.
        -11    1    3    3    0    0  0.69880456298E+03 -0.28509450290E+02 -0.37906873328E+03  0.79550846039E+03  0.00000000000E+00 0. -1.
         22    1    1    2    0    0 -0.18475049928E+04  0.17631066806E+03 -0.26757311944E+03  0.18750881377E+04  0.00000000000E+00 0.  1.
<mgrwt>
<rscale>  0 0.37681676E+04</rscale>
<asrwt>0</asrwt>
<pdfrwt beam="1">  1        2 0.39686737E+00 0.37681676E+04</pdfrwt>
<pdfrwt beam="2">  1       -2 0.21170364E+00 0.37681676E+04</pdfrwt>
<totfact> 0.28074955E-01</totfact>
</mgrwt>
</event>
<event>
 6    1  0.1762360E-005  0.9200657E+03  0.7818608E-02  0.9400840E-01
         -1   -1    0    0    0  501 -0.00000000000E+00  0.00000000000E+00  0.11895199845E+03  0.11895199845E+03  0.00000000000E+00 0.  1.
          1   -1    0    0  501    0  0.00000000000E+00 -0.00000000000E+00 -0.17791229005E+04  0.17791229005E+04  0.00000000000E+00 0. -1.
         23    2    1    2    0    0 -0.44495308398E+03  0.27711821172E+02 -0.64378870376E+03  0.78821726620E+03  0.89840812953E+02 0.  0.
         11    1    3    3    0    0 -0.26261433704E+03 -0.24459617432E+02 -0.34401255643E+03  0.43348495002E+03  0.00000000000E+00 0. -1.
        -11    1    3    3    0    0 -0.18233874693E+03  0.52171438604E+02 -0.29977614733E+03  0.35473231619E+03  0.00000000000E+00 0.  1.
         22    1    1    2    0    0  0.44495308398E+03 -0.27711821172E+02 -0.10163821983E+04  0.11098576327E+04  0.00000000000E+00 0. -1.
<mgrwt>
<rscale>  0 0.92006570E+03</rscale>
<asrwt>0</asrwt>
<pdfrwt beam="1">  1        1 0.27371120E+00 0.92006570E+03</pdfrwt>
<pdfrwt beam="2">  1       -1 0.18300308E-01 0.92006570E+03</pdfrwt>
<totfact> 0.10093413E+02</totfact>
</mgrwt>
</event>
<event>
 6    1  0.1762360E-005  0.1571165E+04  0.7818608E-02  0.8838461E-01
          2   -1    0    0  501    0  0.00000000000E+00  0.00000000000E+00  0.10241295792E+04  0.10241295792E+04  0.00000000000E+00 0. -1.
         -2   -1    0    0    0  501 -0.00000000000E+00 -0.00000000000E+00 -0.60259915057E+03  0.60259915057E+03  0.00000000000E+00 0.  1.
         23    2    1    2    0    0 -0.63868531230E+03 -0.38245847719E+03 -0.39339483025E+02  0.75117491050E+03  0.92318667220E+02 0.  0.
         13    1    3    3    0    0 -0.23088792822E+03 -0.19094614622E+03 -0.15716542617E+02  0.30002779182E+03  0.00000000000E+00 0.  1.
        -13    1    3    3    0    0 -0.40779738409E+03 -0.19151233097E+03 -0.23622940408E+02  0.45114711868E+03  0.00000000000E+00 0. -1.
         22    1    1    2    0    0  0.63868531230E+03  0.38245847719E+03  0.46086991163E+03  0.87555381923E+03  0.00000000000E+00 0. -1.
<mgrwt>
<rscale>  0 0.15711647E+04</rscale>
<asrwt>0</asrwt>
<pdfrwt beam="1">  1        2 0.15755840E+00 0.15711647E+04</pdfrwt>
<pdfrwt beam="2">  1       -2 0.92707562E-01 0.15711647E+04</pdfrwt>
<totfact> 0.23054318E+01</totfact>
</mgrwt>
</event>
<event>
 6    1  0.1762360E-005  0.1586750E+04  0.7818608E-02  0.8828730E-01
          2   -1    0    0  501    0  0.00000000000E+00  0.00000000000E+00  0.80012770236E+03  0.80012770236E+03  0.00000000000E+00 0. -1.
         -2   -1    0    0    0  501 -0.00000000000E+00 -0.00000000000E+00 -0.78667882265E+03  0.78667882265E+03  0.00000000000E+00 0.  1.
         23    2    1    2    0    0  0.59282004533E+03 -0.51303294612E+03 -0.94942501255E+02  0.79536031622E+03  0.94580886683E+02 0.  0.
         11    1    3    3    0    0  0.36936024728E+03 -0.35230940808E+03 -0.99588715959E+02  0.52006424953E+03  0.00000000000E+00 0.  1.
        -11    1    3    3    0    0  0.22345979805E+03 -0.16072353804E+03  0.46462147041E+01  0.27529606669E+03  0.00000000000E+00 0. -1.
         22    1    1    2    0    0 -0.59282004533E+03  0.51303294612E+03  0.10839138096E+03  0.79144620880E+03  0.00000000000E+00 0. -1.
<mgrwt>
<rscale>  0 0.15867495E+04</rscale>
<asrwt>0</asrwt>
<pdfrwt beam="1">  1        2 0.12309657E+00 0.15867495E+04</pdfrwt>
<pdfrwt beam="2">  1       -2 0.12102751E+00 0.15867495E+04</pdfrwt>
<totfact> 0.17183710E+01</totfact>
</mgrwt>
</event>
<event>
 6    1  0.1762360E-005  0.2616817E+04  0.7818608E-02  0.8362511E-01
         -1   -1    0    0    0  501 -0.00000000000E+00  0.00000000000E+00  0.87857685468E+03  0.87857685468E+03  0.00000000000E+00 0.  1.
          1   -1    0    0  501    0  0.00000000000E+00 -0.00000000000E+00 -0.19485296806E+04  0.19485296806E+04  0.00000000000E+00 0. -1.
         23    2    1    2    0    0 -0.66469700878E+02 -0.84146367392E+03  0.54213780832E+03  0.10074044859E+04  0.92038357490E+02 0.  0.
         13    1    3    3    0    0 -0.32712331451E+02 -0.33228303046E+03  0.16221797543E+03  0.37120988741E+03  0.00000000000E+00 0.  1.
        -13    1    3    3    0    0 -0.33757369428E+02 -0.50918064346E+03  0.37991983289E+03  0.63619459844E+03  0.00000000000E+00 0. -1.
         22    1    1    2    0    0  0.66469700878E+02  0.84146367392E+03 -0.16120906342E+04  0.18197020494E+04  0.00000000000E+00 0. -1.
<mgrwt>
<rscale>  0 0.26168172E+04</rscale>
<asrwt>0</asrwt>
<pdfrwt beam="1">  1        1 0.29977379E+00 0.26168172E+04</pdfrwt>
<pdfrwt beam="2">  1       -1 0.13516567E+00 0.26168172E+04</pdfrwt>
<totfact> 0.13040955E+00</totfact>
</mgrwt>
</event>
<event>
 6    1  0.1762360E-005  0.1953380E+04  0.7818608E-02  0.8628733E-01
          1   -1    0    0  501    0  0.00000000000E+00  0.00000000000E+00  0.13312681060E+04  0.13312681060E+04  0.00000000000E+00 0.  1.
         -1   -1    0    0    0  501 -0.00000000000E+00 -0.00000000000E+00 -0.71655254917E+03  0.71655254917E+03  0.00000000000E+00 0. -1.
         23    2    1    2    0    0 -0.43032219127E+03  0.83307280833E+03  0.58644963403E+03  0.11097447229E+04  0.91775184982E+02 0.  0.
         13    1    3    3    0    0 -0.11386565133E+03  0.31537789934E+03  0.21526748112E+03  0.39845789536E+03  0.00000000000E+00 0. -1.
        -13    1    3    3    0    0 -0.31645653994E+03  0.51769490899E+03  0.37118215291E+03  0.71128682759E+03  0.00000000000E+00 0.  1.
         22    1    1    2    0    0  0.43032219127E+03 -0.83307280833E+03  0.28265922840E+02  0.93807593225E+03  0.00000000000E+00 0. -1.
<mgrwt>
<rscale>  0 0.19533802E+04</rscale>
<asrwt>0</asrwt>
<pdfrwt beam="1">  1        1 0.20481048E+00 0.19533802E+04</pdfrwt>
<pdfrwt beam="2">  1       -1 0.11023885E+00 0.19533802E+04</pdfrwt>
<totfact> 0.60766216E+00</totfact>
</mgrwt>
</event>
<event>
 6    1  0.1762360E-005  0.3033803E+04  0.7818608E-02  0.8234144E-01
         -2   -1    0    0    0  501 -0.00000000000E+00  0.00000000000E+00  0.10446135312E+04  0.10446135312E+04  0.00000000000E+00 0.  1.
          2   -1    0    0  501    0  0.00000000000E+00 -0.00000000000E+00 -0.22027186113E+04  0.22027186113E+04  0.00000000000E+00 0. -1.
         23    2    1    2    0    0  0.68508092219E+03  0.96250322780E+03  0.43644640238E+03  0.12628063140E+04  0.91902073849E+02 0.  0.
         11    1    3    3    0    0  0.40878723244E+03  0.64618107180E+03  0.29657832766E+03  0.82013150372E+03  0.00000000000E+00 0. -1.
        -11    1    3    3    0    0  0.27629368976E+03  0.31632215600E+03  0.13986807471E+03  0.44267481033E+03  0.00000000000E+00 0.  1.
         22    1    1    2    0    0 -0.68508092219E+03 -0.96250322780E+03 -0.15945514825E+04  0.19845258284E+04  0.00000000000E+00 0. -1.
<mgrwt>
<rscale>  0 0.30338027E+04</rscale>
<asrwt>0</asrwt>
<pdfrwt beam="1">  1        2 0.33887978E+00 0.30338027E+04</pdfrwt>
<pdfrwt beam="2">  1       -2 0.16070978E+00 0.30338027E+04</pdfrwt>
<totfact> 0.10931531E+00</totfact>
</mgrwt>
</event>
<event>
 6    1  0.1762360E-005  0.5069207E+04  0.7818608E-02  0.7817919E-01
          2   -1    0    0  501    0  0.00000000000E+00  0.00000000000E+00  0.19243257440E+04  0.19243257440E+04  0.00000000000E+00 0. -1.
         -2   -1    0    0    0  501 -0.00000000000E+00 -0.00000000000E+00 -0.33384234089E+04  0.33384234089E+04  0.00000000000E+00 0.  1.
         23    2    1    2    0    0  0.11906085515E+04  0.16535316179E+04 -0.22708531161E+04  0.30523769133E+04  0.92278989089E+02 0.  0.
         11    1    3    3    0    0  0.22355436335E+03  0.25228702829E+03 -0.36918838648E+03  0.49992535715E+03  0.00000000000E+00 0. -1.
        -11    1    3    3    0    0  0.96705418813E+03  0.14012445896E+04 -0.19016647296E+04  0.25524515561E+04  0.00000000000E+00 0.  1.
         22    1    1    2    0    0 -0.11906085515E+04 -0.16535316179E+04  0.85675545119E+03  0.22103722396E+04  0.00000000000E+00 0. -1.
<mgrwt>
<rscale>  0 0.50692067E+04</rscale>
<asrwt>0</asrwt>
<pdfrwt beam="1">  1        2 0.29605012E+00 0.50692067E+04</pdfrwt>
<pdfrwt beam="2">  1       -2 0.51360359E+00 0.50692067E+04</pdfrwt>
<totfact> 0.73246197E-03</totfact>
</mgrwt>
</event>
<event>
 6    1  0.1762360E-005  0.9242930E+03  0.7818608E-02  0.9395713E-01
          1   -1    0    0  501    0  0.00000000000E+00  0.00000000000E+00  0.67458186731E+03  0.67458186731E+03  0.00000000000E+00 0. -1.
         -1   -1    0    0    0  501 -0.00000000000E+00 -0.00000000000E+00 -0.31661005485E+03  0.31661005485E+03  0.00000000000E+00 0.  1.
         23    2    1    2    0    0 -0.13770606492E+03  0.27338526851E+02 -0.28655032581E+03  0.33155630905E+03  0.90045219111E+02 0.  0.
         11    1    3    3    0    0 -0.39771764152E+02  0.41436318353E+02 -0.16568015152E+03  0.17535299915E+03  0.00000000000E+00 0.  1.
        -11    1    3    3    0    0 -0.97934300771E+02 -0.14097791502E+02 -0.12087017429E+03  0.15620330990E+03  0.00000000000E+00 0. -1.
         22    1    1    2    0    0  0.13770606492E+03 -0.27338526851E+02  0.64452213827E+03  0.65963561311E+03  0.00000000000E+00 0. -1.
<mgrwt>
<rscale>  0 0.92429303E+03</rscale>
<asrwt>0</asrwt>
<pdfrwt beam="1">  1        1 0.10378183E+00 0.92429303E+03</pdfrwt>
<pdfrwt beam="2">  1       -1 0.48709239E-01 0.92429303E+03</pdfrwt>
<totfact> 0.12231229E+02</totfact>
</mgrwt>
</event>
<event>
 6    1  0.1762360E-005  0.2698647E+04  0.7818608E-02  0.8335444E-01
          2   -1    0    0  501    0  0.00000000000E+00  0.00000000000E+00  0.20878471815E+04  0.20878471815E+04  0.00000000000E+00 0. -1.
         -2   -1    0    0    0  501 -0.00000000000E+00 -0.00000000000E+00 -0.87203391047E+03  0.87203391047E+03  0.00000000000E+00 0.  1.
         23    2    1    2    0    0  0.58478112654E+03 -0.14989600762E+03 -0.71304804450E+03  0.93875671341E+03  0.91590797313E+02 0.  0.
         13    1    3    3    0    0  0.18535235991E+03 -0.91649278165E+02 -0.23114689628E+03  0.31013541425E+03  0.00000000000E+00 0. -1.
        -13    1    3    3    0    0  0.39942876663E+03 -0.58246729460E+02 -0.48190114822E+03  0.62862129916E+03  0.00000000000E+00 0.  1.
         22    1    1    2    0    0 -0.58478112654E+03  0.14989600762E+03  0.19288613155E+04  0.20211243785E+04  0.00000000000E+00 0. -1.
<mgrwt>
<rscale>  0 0.26986467E+04</rscale>
<asrwt>0</asrwt>
<pdfrwt beam="1">  1        2 0.32120726E+00 0.26986467E+04</pdfrwt>
<pdfrwt beam="2">  1       -2 0.13415906E+00 0.26986467E+04</pdfrwt>
<totfact> 0.20992231E+00</totfact>
</mgrwt>
</event>
<event>
 6    1  0.1762360E-005  0.3315897E+04  0.7818608E-02  0.8158862E-01
         -3   -1    0    0    0  501 -0.00000000000E+00  0.00000000000E+00  0.17900886680E+04  0.17900886680E+04  0.00000000000E+00 0.  1.
          3   -1    0    0  501    0  0.00000000000E+00 -0.00000000000E+00 -0.15355624843E+04  0.15355624843E+04  0.00000000000E+00 0. -1.
         23    2    1    2    0    0  0.15596931686E+03  0.26738125353E+03 -0.15050088047E+04  0.15390950971E+04  0.89123809095E+02 0.  0.
         13    1    3    3    0    0  0.40030233796E+02  0.12934866739E+03 -0.49798967353E+03  0.51606899957E+03  0.00000000000E+00 0.  1.
        -13    1    3    3    0    0  0.11593908307E+03  0.13803258614E+03 -0.10070191311E+04  0.10230260976E+04  0.00000000000E+00 0. -1.
         22    1    1    2    0    0 -0.15596931686E+03 -0.26738125353E+03  0.17595349884E+04  0.17865560551E+04  0.00000000000E+00 0.  1.
<mgrwt>
<rscale>  0 0.33158969E+04</rscale>
<asrwt>0</asrwt>
<pdfrwt beam="1">  1        3 0.23624038E+00 0.33158969E+04</pdfrwt>
<pdfrwt beam="2">  1       -3 0.27539826E+00 0.33158969E+04</pdfrwt>
<totfact> 0.10017973E-02</totfact>
</mgrwt>
</event>
<event>
 6    1  0.1762360E-005  0.2566222E+04  0.7818608E-02  0.8379766E-01
          1   -1    0    0  501    0  0.00000000000E+00  0.00000000000E+00  0.96273262554E+03  0.96273262554E+03  0.00000000000E+00 0. -1.
         -1   -1    0    0    0  501 -0.00000000000E+00 -0.00000000000E+00 -0.17101052322E+04  0.17101052322E+04  0.00000000000E+00 0.  1.
         23    2    1    2    0    0 -0.27478885242E+02  0.11712233392E+04 -0.91489783081E+03  0.14893751840E+04  0.93172949862E+02 0.  0.
         13    1    3    3    0    0 -0.54747941239E+02  0.44585825587E+03 -0.33781741269E+03  0.56205651470E+03  0.00000000000E+00 0. -1.
        -13    1    3    3    0    0  0.27269055997E+02  0.72536508331E+03 -0.57708041812E+03  0.92731866933E+03  0.00000000000E+00 0.  1.
         22    1    1    2    0    0  0.27478885242E+02 -0.11712233392E+04  0.16752522414E+03  0.11834626737E+04  0.00000000000E+00 0.  1.
<mgrwt>
<rscale>  0 0.25662222E+04</rscale>
<asrwt>0</asrwt>
<pdfrwt beam="1">  1        1 0.14811271E+00 0.25662222E+04</pdfrwt>
<pdfrwt beam="2">  1       -1 0.26309311E+00 0.25662222E+04</pdfrwt>
<totfact> 0.81930964E-01</totfact>
</mgrwt>
</event>
<event>
 6    1  0.1762360E-005  0.2000445E+04  0.7818608E-02  0.8606412E-01
          2   -1    0    0  501    0  0.00000000000E+00  0.00000000000E+00  0.28786667070E+04  0.28786667070E+04  0.00000000000E+00 0. -1.
         -2   -1    0    0    0  501 -0.00000000000E+00 -0.00000000000E+00 -0.34753775260E+03  0.34753775260E+03  0.00000000000E+00 0.  1.
         23    2    1    2    0    0 -0.33707964497E+03 -0.17025540363E+03  0.27583369517E+04  0.27854856563E+04  0.88870765629E+02 0.  0.
         11    1    3    3    0    0 -0.18182497342E+03 -0.55673442020E+02  0.15885721299E+04  0.15999128930E+04  0.00000000000E+00 0. -1.
        -11    1    3    3    0    0 -0.15525467155E+03 -0.11458196161E+03  0.11697648217E+04  0.11855727633E+04  0.00000000000E+00 0.  1.
         22    1    1    2    0    0  0.33707964497E+03  0.17025540363E+03 -0.22720799730E+03  0.44071880327E+03  0.00000000000E+00 0.  1.
<mgrwt>
<rscale>  0 0.20004453E+04</rscale>
<asrwt>0</asrwt>
<pdfrwt beam="1">  1        2 0.44287179E+00 0.20004453E+04</pdfrwt>
<pdfrwt beam="2">  1       -2 0.53467348E-01 0.20004453E+04</pdfrwt>
<totfact> 0.63537368E+00</totfact>
</mgrwt>
</event>
<event>
 6    1  0.1762360E-005  0.1417016E+04  0.7818608E-02  0.8941593E-01
         -2   -1    0    0    0  501 -0.00000000000E+00  0.00000000000E+00  0.35633969144E+03  0.35633969144E+03  0.00000000000E+00 0.  1.
          2   -1    0    0  501    0  0.00000000000E+00 -0.00000000000E+00 -0.14087220425E+04  0.14087220425E+04  0.00000000000E+00 0. -1.
         23    2    1    2    0    0 -0.61964560379E+03  0.22860388637E+03 -0.21853522344E+03  0.70133176661E+03  0.88815493126E+02 0.  0.
         11    1    3    3    0    0 -0.12715408922E+03  0.84089446131E+02 -0.36526385162E+02  0.15675896839E+03  0.00000000000E+00 0. -1.
        -11    1    3    3    0    0 -0.49249151457E+03  0.14451444024E+03 -0.18200883827E+03  0.54457279823E+03  0.00000000000E+00 0.  1.
         22    1    1    2    0    0  0.61964560379E+03 -0.22860388637E+03 -0.83384712760E+03  0.10637299673E+04  0.00000000000E+00 0. -1.
<mgrwt>
<rscale>  0 0.14170160E+04</rscale>
<asrwt>0</asrwt>
<pdfrwt beam="1">  1        2 0.21672646E+00 0.14170160E+04</pdfrwt>
<pdfrwt beam="2">  1       -2 0.54821492E-01 0.14170160E+04</pdfrwt>
<totfact> 0.43520277E+01</totfact>
</mgrwt>
</event>
<event>
 6    1  0.1762360E-005  0.4511615E+03  0.7818608E-02  0.1027376E+00
         -1   -1    0    0    0  501 -0.00000000000E+00  0.00000000000E+00  0.14736941150E+03  0.14736941150E+03  0.00000000000E+00 0.  1.
          1   -1    0    0  501    0  0.00000000000E+00 -0.00000000000E+00 -0.34530011008E+03  0.34530011008E+03  0.00000000000E+00 0. -1.
         23    2    1    2    0    0 -0.18062540943E+03 -0.15532553883E+02 -0.23198300121E+03  0.30820717291E+03  0.91152344015E+02 0.  0.
         13    1    3    3    0    0 -0.35442895947E+02  0.15357482106E+02 -0.10835307172E+03  0.11503234015E+03  0.00000000000E+00 0. -1.
        -13    1    3    3    0    0 -0.14518251348E+03 -0.30890035989E+02 -0.12362992949E+03  0.19317483276E+03  0.00000000000E+00 0.  1.
         22    1    1    2    0    0  0.18062540943E+03  0.15532553883E+02  0.34052302631E+02  0.18446234867E+03  0.00000000000E+00 0.  1.
<mgrwt>
<rscale>  0 0.45116150E+03</rscale>
<asrwt>0</asrwt>
<pdfrwt beam="1">  1        1 0.53123093E-01 0.45116150E+03</pdfrwt>
<pdfrwt beam="2">  1       -1 0.22672217E-01 0.45116150E+03</pdfrwt>
<totfact> 0.12053904E+03</totfact>
</mgrwt>
</event>
<event>
 6    1  0.1762360E-005  0.1502409E+04  0.7818608E-02  0.8882852E-01
          1   -1    0    0  501    0  0.00000000000E+00  0.00000000000E+00  0.19193604644E+04  0.19193604644E+04  0.00000000000E+00 0. -1.
         -1   -1    0    0    0  501 -0.00000000000E+00 -0.00000000000E+00 -0.29400854701E+03  0.29400854701E+03  0.00000000000E+00 0.  1.
         23    2    1    2    0    0  0.12915669002E+03  0.31739072644E+03 -0.16452979889E+03  0.39098187305E+03  0.91533854525E+02 0.  0.
         11    1    3    3    0    0  0.98046262390E+02  0.17631398553E+03 -0.53320835110E+02  0.20866912210E+03  0.00000000000E+00 0.  1.
        -11    1    3    3    0    0  0.31110427627E+02  0.14107674091E+03 -0.11120896378E+03  0.18231275095E+03  0.00000000000E+00 0. -1.
         22    1    1    2    0    0 -0.12915669002E+03 -0.31739072644E+03  0.17898817163E+04  0.18223871384E+04  0.00000000000E+00 0. -1.
<mgrwt>
<rscale>  0 0.15024092E+04</rscale>
<asrwt>0</asrwt>
<pdfrwt beam="1">  1        1 0.29528622E+00 0.15024092E+04</pdfrwt>
<pdfrwt beam="2">  1       -1 0.45232085E-01 0.15024092E+04</pdfrwt>
<totfact> 0.15864347E+01</totfact>
</mgrwt>
</event>
<event>
 6    1  0.1762360E-005  0.2769173E+04  0.7818608E-02  0.8312903E-01
         -2   -1    0    0    0  501 -0.00000000000E+00  0.00000000000E+00  0.18918073687E+04  0.18918073687E+04  0.00000000000E+00 0.  1.
          2   -1    0    0  501    0  0.00000000000E+00 -0.00000000000E+00 -0.10133587397E+04  0.10133587397E+04  0.00000000000E+00 0. -1.
         23    2    1    2    0    0  0.97963969556E+03  0.93521672910E+03  0.73352907043E+03  0.15430626094E+04  0.93021802964E+02 0.  0.
         11    1    3    3    0    0  0.28048245741E+03  0.21306814668E+03  0.17928732567E+03  0.39523713033E+03  0.00000000000E+00 0. -1.
        -11    1    3    3    0    0  0.69915723815E+03  0.72214858242E+03  0.55424174476E+03  0.11478254791E+04  0.00000000000E+00 0.  1.
         22    1    1    2    0    0 -0.97963969556E+03 -0.93521672910E+03  0.14491955850E+03  0.13621034990E+04  0.00000000000E+00 0. -1.
<mgrwt>
<rscale>  0 0.27691728E+04</rscale>
<asrwt>0</asrwt>
<pdfrwt beam="1">  1        2 0.15590134E+00 0.27691728E+04</pdfrwt>
<pdfrwt beam="2">  1       -2 0.29104729E+00 0.27691728E+04</pdfrwt>
<totfact> 0.77674032E-01</totfact>
</mgrwt>
</event>
<event>
 6    1  0.1762360E-005  0.2658191E+04  0.7818608E-02  0.8348699E-01
         -2   -1    0    0    0  501 -0.00000000000E+00  0.00000000000E+00  0.12426541712E+04  0.12426541712E+04  0.00000000000E+00 0.  1.
          2   -1    0    0  501    0  0.00000000000E+00 -0.00000000000E+00 -0.14215498257E+04  0.14215498257E+04  0.00000000000E+00 0. -1.
         23    2    1    2    0    0  0.86003807643E+03  0.10113608532E+04 -0.75587484046E+02  0.13325926248E+04  0.87025097819E+02 0.  0.
         11    1    3    3    0    0  0.49484441498E+03  0.56008567732E+03 -0.16707030553E+01  0.74737524191E+03  0.00000000000E+00 0. -1.
        -11    1    3    3    0    0  0.36519366145E+03  0.45127517590E+03 -0.73916780990E+02  0.58521738291E+03  0.00000000000E+00 0.  1.
         22    1    1    2    0    0 -0.86003807643E+03 -0.10113608532E+04 -0.10330817042E+03  0.13316113721E+04  0.00000000000E+00 0.  1.
<mgrwt>
<rscale>  0 0.26581910E+04</rscale>
<asrwt>0</asrwt>
<pdfrwt beam="1">  1        2 0.21869997E+00 0.26581910E+04</pdfrwt>
<pdfrwt beam="2">  1       -2 0.19117757E+00 0.26581910E+04</pdfrwt>
<totfact> 0.18848737E+00</totfact>
</mgrwt>
</event>
<event>
 6    1  0.1762360E-005  0.2836646E+04  0.7818608E-02  0.8291981E-01
         -1   -1    0    0    0  501 -0.00000000000E+00  0.00000000000E+00  0.18378436717E+04  0.18378436717E+04  0.00000000000E+00 0.  1.
          1   -1    0    0  501    0  0.00000000000E+00 -0.00000000000E+00 -0.10945652722E+04  0.10945652722E+04  0.00000000000E+00 0. -1.
         23    2    1    2    0    0 -0.20721469552E+03  0.39348938278E+03 -0.10186983263E+04  0.11151764858E+04  0.90002722993E+02 0.  0.
         11    1    3    3    0    0 -0.68571908914E+02  0.20504780791E+03 -0.55937532087E+03  0.59970614456E+03  0.00000000000E+00 0. -1.
        -11    1    3    3    0    0 -0.13864278660E+03  0.18844157488E+03 -0.45932300543E+03  0.51547034128E+03  0.00000000000E+00 0.  1.
         22    1    1    2    0    0  0.20721469552E+03 -0.39348938278E+03  0.17619767258E+04  0.18172324580E+04  0.00000000000E+00 0.  1.
<mgrwt>
<rscale>  0 0.28366458E+04</rscale>
<asrwt>0</asrwt>
<pdfrwt beam="1">  1        1 0.16839466E+00 0.28366458E+04</pdfrwt>
<pdfrwt beam="2">  1       -1 0.28274518E+00 0.28366458E+04</pdfrwt>
<totfact> 0.47187190E-01</totfact>
</mgrwt>
</event>
<event>
 6    1  0.1762360E-005  0.2527224E+04  0.7818608E-02  0.8393351E-01
          1   -1    0    0  501    0  0.00000000000E+00  0.00000000000E+00  0.48976292023E+03  0.48976292023E+03  0.00000000000E+00 0. -1.
         -1   -1    0    0    0  501 -0.00000000000E+00 -0.00000000000E+00 -0.32601795373E+04  0.32601795373E+04  0.00000000000E+00 0.  1.
         23    2    1    2    0    0 -0.72749838026E+03  0.10261850352E+04 -0.15346687608E+04  0.19865983663E+04  0.95159046073E+02 0.  0.
         11    1    3    3    0    0 -0.48368859726E+03  0.64348958330E+03 -0.10432195773E+04  0.13177027697E+04  0.00000000000E+00 0.  1.
        -11    1    3    3    0    0 -0.24380978300E+03  0.38269545188E+03 -0.49144918349E+03  0.66889559659E+03  0.00000000000E+00 0. -1.
         22    1    1    2    0    0  0.72749838026E+03 -0.10261850352E+04 -0.12357478564E+04  0.17633440913E+04  0.00000000000E+00 0.  1.
<mgrwt>
<rscale>  0 0.25272238E+04</rscale>
<asrwt>0</asrwt>
<pdfrwt beam="1">  1        1 0.75348144E-01 0.25272238E+04</pdfrwt>
<pdfrwt beam="2">  1       -1 0.50156607E+00 0.25272238E+04</pdfrwt>
<totfact> 0.58607252E-02</totfact>
</mgrwt>
</event>
<event>
 6    1  0.1762360E-005  0.3793730E+04  0.7818608E-02  0.8047502E-01
         -2   -1    0    0    0  501 -0.00000000000E+00  0.00000000000E+00  0.93613574701E+03  0.93613574701E+03  0.00000000000E+00 0.  1.
          2   -1    0    0  501    0  0.00000000000E+00 -0.00000000000E+00 -0.38435636437E+04  0.38435636437E+04  0.00000000000E+00 0. -1.
         23    2    1    2    0    0 -0.11928239849E+04  0.14001277054E+04 -0.20329863708E+04  0.27430760499E+04  0.90807383853E+02 0.  0.
         11    1    3    3    0    0 -0.67011359838E+03  0.84660605982E+03 -0.11594116013E+04  0.15843072040E+04  0.00000000000E+00 0.  1.
        -11    1    3    3    0    0 -0.52271038648E+03  0.55352164562E+03 -0.87357476952E+03  0.11587688459E+04  0.00000000000E+00 0. -1.
         22    1    1    2    0    0  0.11928239849E+04 -0.14001277054E+04 -0.87444152589E+03  0.20366233409E+04  0.00000000000E+00 0.  1.
<mgrwt>
<rscale>  0 0.37937303E+04</rscale>
<asrwt>0</asrwt>
<pdfrwt beam="1">  1        2 0.59131747E+00 0.37937303E+04</pdfrwt>
<pdfrwt beam="2">  1       -2 0.14402089E+00 0.37937303E+04</pdfrwt>
<totfact> 0.12135837E-01</totfact>
</mgrwt>
</event>
<event>
 6    1  0.1762360E-005  0.3291636E+04  0.7818608E-02  0.8165027E-01
          2   -1    0    0  501    0  0.00000000000E+00  0.00000000000E+00  0.18783712817E+04  0.18783712817E+04  0.00000000000E+00 0. -1.
         -2   -1    0    0    0  501 -0.00000000000E+00 -0.00000000000E+00 -0.14420564275E+04  0.14420564275E+04  0.00000000000E+00 0.  1.
         23    2    1    2    0    0 -0.23300023891E+03  0.90673525578E+03  0.15821942611E+04  0.18407326222E+04  0.92195288368E+02 0.  0.
         13    1    3    3    0    0 -0.39853286608E+02  0.22546265744E+03  0.45932330941E+03  0.51322470412E+03  0.00000000000E+00 0.  1.
        -13    1    3    3    0    0 -0.19314695230E+03  0.68127259834E+03  0.11228709516E+04  0.13275079181E+04  0.00000000000E+00 0. -1.
         22    1    1    2    0    0  0.23300023891E+03 -0.90673525578E+03 -0.11458794069E+04  0.14796950870E+04  0.00000000000E+00 0. -1.
<mgrwt>
<rscale>  0 0.32916363E+04</rscale>
<asrwt>0</asrwt>
<pdfrwt beam="1">  1        2 0.28898020E+00 0.32916363E+04</pdfrwt>
<pdfrwt beam="2">  1       -2 0.22185483E+00 0.32916363E+04</pdfrwt>
<totfact> 0.62768393E-01</totfact>
</mgrwt>
</event>
<event>
 6    1  0.1762360E-005  0.1157572E+04  0.7818608E-02  0.9150826E-01
         -2   -1    0    0    0  501 -0.00000000000E+00  0.00000000000E+00  0.12425690536E+04  0.12425690536E+04  0.00000000000E+00 0.  1.
          2   -1    0    0  501    0  0.00000000000E+00 -0.00000000000E+00 -0.26959725745E+03  0.26959725745E+03  0.00000000000E+00 0. -1.
         23    2    1    2    0    0  0.39543231645E+03 -0.81748463935E+02 -0.44958464378E+02  0.41707200299E+03  0.94224539842E+02 0.  0.
         13    1    3    3    0    0  0.15804972710E+03 -0.65019835742E+02 -0.53102557455E+02  0.17896138378E+03  0.00000000000E+00 0. -1.
        -13    1    3    3    0    0  0.23738258934E+03 -0.16728628193E+02  0.81440930772E+01  0.23811061920E+03  0.00000000000E+00 0.  1.
         22    1    1    2    0    0 -0.39543231645E+03  0.81748463935E+02  0.10179302605E+04  0.10950943080E+04  0.00000000000E+00 0.  1.
<mgrwt>
<rscale>  0 0.11575720E+04</rscale>
<asrwt>0</asrwt>
<pdfrwt beam="1">  1        2 0.41476502E-01 0.11575720E+04</pdfrwt>
<pdfrwt beam="2">  1       -2 0.19116447E+00 0.11575720E+04</pdfrwt>
<totfact> 0.18618728E+01</totfact>
</mgrwt>
</event>
<event>
 6    1  0.1762360E-005  0.2700488E+04  0.7818608E-02  0.8334847E-01
         -2   -1    0    0    0  501 -0.00000000000E+00  0.00000000000E+00  0.68946430164E+03  0.68946430164E+03  0.00000000000E+00 0.  1.
          2   -1    0    0  501    0  0.00000000000E+00 -0.00000000000E+00 -0.26443123067E+04  0.26443123067E+04  0.00000000000E+00 0. -1.
         23    2    1    2    0    0  0.40176473615E+02 -0.82189946458E+03  0.34133351560E+03  0.89460001476E+03  0.81656222202E+02 0.  0.
         11    1    3    3    0    0  0.29411302995E+02 -0.39337754055E+03  0.20638279120E+03  0.44520194368E+03  0.00000000000E+00 0.  1.
        -11    1    3    3    0    0  0.10765170621E+02 -0.42852192403E+03  0.13495072440E+03  0.44939807108E+03  0.00000000000E+00 0. -1.
         22    1    1    2    0    0 -0.40176473615E+02  0.82189946458E+03 -0.22961815207E+04  0.24391765936E+04  0.00000000000E+00 0. -1.
<mgrwt>
<rscale>  0 0.27004881E+04</rscale>
<asrwt>0</asrwt>
<pdfrwt beam="1">  1        2 0.40681729E+00 0.27004881E+04</pdfrwt>
<pdfrwt beam="2">  1       -2 0.10607143E+00 0.27004881E+04</pdfrwt>
<totfact> 0.18027958E+00</totfact>
</mgrwt>
</event>
<event>
 6    1  0.1762360E-005  0.1072919E+04  0.7818608E-02  0.9231997E-01
          2   -1    0    0  501    0  0.00000000000E+00  0.00000000000E+00  0.81310678735E+03  0.81310678735E+03  0.00000000000E+00 0. -1.
         -2   -1    0    0    0  501 -0.00000000000E+00 -0.00000000000E+00 -0.35393714279E+03  0.35393714279E+03  0.00000000000E+00 0.  1.
         23    2    1    2    0    0  0.26688433984E+03 -0.15477882849E+03  0.70343118645E+03  0.77353733878E+03  0.91437649890E+02 0.  0.
         11    1    3    3    0    0  0.10306683919E+03 -0.78468142492E+02  0.39906102819E+03  0.41955896718E+03  0.00000000000E+00 0.  1.
        -11    1    3    3    0    0  0.16381750066E+03 -0.76310685996E+02  0.30437015826E+03  0.35397837159E+03  0.00000000000E+00 0. -1.
         22    1    1    2    0    0 -0.26688433984E+03  0.15477882849E+03 -0.24426154189E+03  0.39350659136E+03  0.00000000000E+00 0.  1.
<mgrwt>
<rscale>  0 0.10729188E+04</rscale>
<asrwt>0</asrwt>
<pdfrwt beam="1">  1        2 0.12509335E+00 0.10729188E+04</pdfrwt>
<pdfrwt beam="2">  1       -2 0.54451869E-01 0.10729188E+04</pdfrwt>
<totfact> 0.10641686E+02</totfact>
</mgrwt>
</event>
<event>
 6    1  0.1762360E-005  0.7844463E+03  0.7818608E-02  0.9582807E-01
         -2   -1    0    0    0  501 -0.00000000000E+00  0.00000000000E+00  0.32038576173E+02  0.32038576173E+02  0.00000000000E+00 0.  1.
          2   -1    0    0  501    0  0.00000000000E+00 -0.00000000000E+00 -0.48016806740E+04  0.48016806740E+04  0.00000000000E+00 0. -1.
         23    2    1    2    0    0 -0.30091809816E+03  0.20866845762E+03 -0.31854662460E+04  0.32077711094E+04  0.92228297315E+02 0.  0.
         11    1    3    3    0    0 -0.24023437425E+03  0.13506486778E+03 -0.26024311775E+04  0.26169835893E+04  0.00000000000E+00 0. -1.
        -11    1    3    3    0    0 -0.60683723903E+02  0.73603589838E+02 -0.58303506851E+03  0.59078752009E+03  0.00000000000E+00 0.  1.
         22    1    1    2    0    0  0.30091809816E+03 -0.20866845762E+03 -0.15841758518E+04  0.16259481408E+04  0.00000000000E+00 0.  1.
<mgrwt>
<rscale>  0 0.78444633E+03</rscale>
<asrwt>0</asrwt>
<pdfrwt beam="1">  1        2 0.73871951E+00 0.78444633E+03</pdfrwt>
<pdfrwt beam="2">  1       -2 0.49290157E-02 0.78444633E+03</pdfrwt>
<totfact> 0.14352947E+01</totfact>
</mgrwt>
</event>
<event>
 6    1  0.1762360E-005  0.1472289E+04  0.7818608E-02  0.8903092E-01
         -2   -1    0    0    0  501 -0.00000000000E+00  0.00000000000E+00  0.13407684715E+03  0.13407684715E+03  0.00000000000E+00 0.  1.
          2   -1    0    0  501    0  0.00000000000E+00 -0.00000000000E+00 -0.40417784449E+04  0.40417784449E+04  0.00000000000E+00 0. -1.
         23    2    1    2    0    0 -0.44831482180E+03  0.44101428362E+03 -0.89088822856E+03  0.10941929675E+04  0.89981312496E+02 0.  0.
         13    1    3    3    0    0 -0.36444304608E+03  0.30842555810E+03 -0.64402705031E+03  0.80169564067E+03  0.00000000000E+00 0.  1.
        -13    1    3    3    0    0 -0.83871775723E+02  0.13258872551E+03 -0.24686117824E+03  0.29249732686E+03  0.00000000000E+00 0. -1.
         22    1    1    2    0    0  0.44831482180E+03 -0.44101428362E+03 -0.30168133692E+04  0.30816623245E+04  0.00000000000E+00 0.  1.
<mgrwt>
<rscale>  0 0.14722893E+04</rscale>
<asrwt>0</asrwt>
<pdfrwt beam="1">  1        2 0.62181213E+00 0.14722893E+04</pdfrwt>
<pdfrwt beam="2">  1       -2 0.20627205E-01 0.14722893E+04</pdfrwt>
<totfact> 0.63613886E+00</totfact>
</mgrwt>
</event>
<event>
 6    1  0.1762360E-005  0.2396431E+04  0.7818608E-02  0.8440841E-01
          2   -1    0    0  501    0  0.00000000000E+00  0.00000000000E+00  0.31012917110E+04  0.31012917110E+04  0.00000000000E+00 0. -1.
         -2   -1    0    0    0  501 -0.00000000000E+00 -0.00000000000E+00 -0.46294266856E+03  0.46294266856E+03  0.00000000000E+00 0.  1.
         23    2    1    2    0    0  0.45996407030E+03  0.53348102409E+03 -0.11688138007E+03  0.72038775392E+03  0.95542189437E+02 0.  0.
         11    1    3    3    0    0  0.26231565987E+03  0.31632296438E+03 -0.20924867244E+02  0.41147001503E+03  0.00000000000E+00 0. -1.
        -11    1    3    3    0    0  0.19764841043E+03  0.21715805972E+03 -0.95956512830E+02  0.30891773889E+03  0.00000000000E+00 0.  1.
         22    1    1    2    0    0 -0.45996407030E+03 -0.53348102409E+03  0.27552304226E+04  0.28438466257E+04  0.00000000000E+00 0. -1.
<mgrwt>
<rscale>  0 0.23964309E+04</rscale>
<asrwt>0</asrwt>
<pdfrwt beam="1">  1        2 0.47712179E+00 0.23964309E+04</pdfrwt>
<pdfrwt beam="2">  1       -2 0.71221951E-01 0.23964309E+04</pdfrwt>
<totfact> 0.24197211E+00</totfact>
</mgrwt>
</event>
<event>
 6    1  0.1762360E-005  0.2623667E+04  0.7818608E-02  0.8360206E-01
         -3   -1    0    0    0  501 -0.00000000000E+00  0.00000000000E+00  0.93783448140E+03  0.93783448140E+03  0.00000000000E+00 0.  1.
          3   -1    0    0  501    0  0.00000000000E+00 -0.00000000000E+00 -0.18349794150E+04  0.18349794150E+04  0.00000000000E+00 0. -1.
         23    2    1    2    0    0  0.31891341513E+03  0.10202145445E+03  0.88921077781E+03  0.95534838884E+03  0.99401172902E+02 0.  0.
         13    1    3    3    0    0  0.29794080395E+02 -0.83647382498E+01  0.16353881123E+03  0.16644097708E+03  0.00000000000E+00 0. -1.
        -13    1    3    3    0    0  0.28911933474E+03  0.11038619270E+03  0.72567196658E+03  0.78890741176E+03  0.00000000000E+00 0.  1.
         22    1    1    2    0    0 -0.31891341513E+03 -0.10202145445E+03 -0.17863557114E+04  0.18174655076E+04  0.00000000000E+00 0. -1.
<mgrwt>
<rscale>  0 0.26236669E+04</rscale>
<asrwt>0</asrwt>
<pdfrwt beam="1">  1        3 0.28230452E+00 0.26236669E+04</pdfrwt>
<pdfrwt beam="2">  1       -3 0.14428223E+00 0.26236669E+04</pdfrwt>
<totfact> 0.39725891E-02</totfact>
</mgrwt>
</event>
<event>
 6    1  0.1762360E-005  0.2350848E+04  0.7818608E-02  0.8458138E-01
          2   -1    0    0  501    0  0.00000000000E+00  0.00000000000E+00  0.16649118449E+04  0.16649118449E+04  0.00000000000E+00 0. -1.
         -2   -1    0    0    0  501 -0.00000000000E+00 -0.00000000000E+00 -0.82984682956E+03  0.82984682956E+03  0.00000000000E+00 0.  1.
         23    2    1    2    0    0  0.33871065361E+03 -0.77017451198E+03 -0.45014820308E+03  0.95863800780E+03  0.91976842102E+02 0.  0.
         13    1    3    3    0    0  0.16157540704E+03 -0.30913787517E+03 -0.14275728161E+03  0.37689850023E+03  0.00000000000E+00 0.  1.
        -13    1    3    3    0    0  0.17713524657E+03 -0.46103663681E+03 -0.30739092147E+03  0.58173950757E+03  0.00000000000E+00 0. -1.
         22    1    1    2    0    0 -0.33871065361E+03  0.77017451198E+03  0.12852132185E+04  0.15361206667E+04  0.00000000000E+00 0. -1.
<mgrwt>
<rscale>  0 0.23508482E+04</rscale>
<asrwt>0</asrwt>
<pdfrwt beam="1">  1        2 0.25614028E+00 0.23508482E+04</pdfrwt>
<pdfrwt beam="2">  1       -2 0.12766874E+00 0.23508482E+04</pdfrwt>
<totfact> 0.42114374E+00</totfact>
</mgrwt>
</event>
<event>
 6    1  0.1762360E-005  0.1345998E+04  0.7818608E-02  0.8993863E-01
          1   -1    0    0  501    0  0.00000000000E+00  0.00000000000E+00  0.80747246331E+03  0.80747246331E+03  0.00000000000E+00 0. -1.
         -1   -1    0    0    0  501 -0.00000000000E+00 -0.00000000000E+00 -0.56092049244E+03  0.56092049244E+03  0.00000000000E+00 0.  1.
         23    2    1    2    0    0  0.47026845477E+03  0.41055911270E+03  0.37097158322E+03  0.73184645744E+03  0.90929187479E+02 0.  0.
         13    1    3    3    0    0  0.18851867293E+03  0.14276289902E+03  0.93632230721E+02  0.25433743336E+03  0.00000000000E+00 0. -1.
        -13    1    3    3    0    0  0.28174978183E+03  0.26779621368E+03  0.27733935250E+03  0.47750902407E+03  0.00000000000E+00 0.  1.
         22    1    1    2    0    0 -0.47026845477E+03 -0.41055911270E+03 -0.12441961235E+03  0.63654649831E+03  0.00000000000E+00 0.  1.
<mgrwt>
<rscale>  0 0.13459983E+04</rscale>
<asrwt>0</asrwt>
<pdfrwt beam="1">  1        1 0.12422653E+00 0.13459983E+04</pdfrwt>
<pdfrwt beam="2">  1       -1 0.86295461E-01 0.13459983E+04</pdfrwt>
<totfact> 0.28263177E+01</totfact>
</mgrwt>
</event>
<event>
 6    1  0.1762360E-005  0.2736515E+04  0.7818608E-02  0.8323253E-01
          2   -1    0    0  501    0  0.00000000000E+00  0.00000000000E+00  0.20230157326E+04  0.20230157326E+04  0.00000000000E+00 0. -1.
         -2   -1    0    0    0  501 -0.00000000000E+00 -0.00000000000E+00 -0.92541469109E+03  0.92541469109E+03  0.00000000000E+00 0.  1.
         23    2    1    2    0    0 -0.29094630476E+03 -0.39775384431E+03 -0.82401789176E+03  0.96462670416E+03  0.92958697932E+02 0.  0.
         13    1    3    3    0    0 -0.14380902981E+03 -0.12814839371E+03 -0.27924490443E+03  0.33923555904E+03  0.00000000000E+00 0. -1.
        -13    1    3    3    0    0 -0.14713727495E+03 -0.26960545060E+03 -0.54477298733E+03  0.62539114512E+03  0.00000000000E+00 0.  1.
         22    1    1    2    0    0  0.29094630476E+03  0.39775384431E+03  0.19216189332E+04  0.19838037195E+04  0.00000000000E+00 0. -1.
<mgrwt>
<rscale>  0 0.27365149E+04</rscale>
<asrwt>0</asrwt>
<pdfrwt beam="1">  1        2 0.31123319E+00 0.27365149E+04</pdfrwt>
<pdfrwt beam="2">  1       -2 0.14237149E+00 0.27365149E+04</pdfrwt>
<totfact> 0.19506486E+00</totfact>
</mgrwt>
</event>
<event>
 6    1  0.1762360E-005  0.2905088E+04  0.7818608E-02  0.8271365E-01
          2   -1    0    0  501    0  0.00000000000E+00  0.00000000000E+00  0.23722764991E+04  0.23722764991E+04  0.00000000000E+00 0. -1.
         -2   -1    0    0    0  501 -0.00000000000E+00 -0.00000000000E+00 -0.88939236432E+03  0.88939236432E+03  0.00000000000E+00 0.  1.
         23    2    1    2    0    0  0.55648284094E+03  0.23264396006E+03  0.22242587172E+04  0.23059321654E+04  0.78739735108E+02 0.  0.
         13    1    3    3    0    0  0.97582023865E+02  0.58200515423E+02  0.52626779856E+03  0.53839330157E+03  0.00000000000E+00 0. -1.
        -13    1    3    3    0    0  0.45890081708E+03  0.17444344464E+03  0.16979909187E+04  0.17675388638E+04  0.00000000000E+00 0.  1.
         22    1    1    2    0    0 -0.55648284094E+03 -0.23264396006E+03 -0.74137458245E+03  0.95573669801E+03  0.00000000000E+00 0.  1.
<mgrwt>
<rscale>  0 0.29050884E+04</rscale>
<asrwt>0</asrwt>
<pdfrwt beam="1">  1        2 0.36496561E+00 0.29050884E+04</pdfrwt>
<pdfrwt beam="2">  1       -2 0.13682960E+00 0.29050884E+04</pdfrwt>
<totfact> 0.13556487E+00</totfact>
</mgrwt>
</event>
<event>
 6    1  0.1762360E-005  0.1304297E+04  0.7818608E-02  0.9026165E-01
          1   -1    0    0  501    0  0.00000000000E+00  0.00000000000E+00  0.27294600115E+03  0.27294600115E+03  0.00000000000E+00 0. -1.
         -1   -1    0    0    0  501 -0.00000000000E+00 -0.00000000000E+00 -0.15581741675E+04  0.15581741675E+04  0.00000000000E+00 0.  1.
         23    2    1    2    0    0 -0.28887707404E+03 -0.45905216317E+03 -0.14606824395E+03  0.56942916795E+03  0.93460114514E+02 0.  0.
         13    1    3    3    0    0 -0.16773799196E+03 -0.18712770250E+03 -0.87020150534E+02  0.26594232003E+03  0.00000000000E+00 0. -1.
        -13    1    3    3    0    0 -0.12113908208E+03 -0.27192446067E+03 -0.59048093412E+02  0.30348684791E+03  0.00000000000E+00 0.  1.
         22    1    1    2    0    0  0.28887707404E+03  0.45905216317E+03 -0.11391599224E+04  0.12616910007E+04  0.00000000000E+00 0.  1.
<mgrwt>
<rscale>  0 0.13042966E+04</rscale>
<asrwt>0</asrwt>
<pdfrwt beam="1">  1        1 0.41991693E-01 0.13042966E+04</pdfrwt>
<pdfrwt beam="2">  1       -1 0.23971910E+00 0.13042966E+04</pdfrwt>
<totfact> 0.79406150E+00</totfact>
</mgrwt>
</event>
<event>
 6    1  0.1762360E-005  0.2661763E+04  0.7818608E-02  0.8347519E-01
         -2   -1    0    0    0  501 -0.00000000000E+00  0.00000000000E+00  0.29474313421E+04  0.29474313421E+04  0.00000000000E+00 0.  1.
          2   -1    0    0  501    0  0.00000000000E+00 -0.00000000000E+00 -0.60094549169E+03  0.60094549169E+03  0.00000000000E+00 0. -1.
         23    2    1    2    0    0  0.10231469245E+04  0.29930604388E+03  0.11510955403E+03  0.10754324525E+04  0.83012128269E+02 0.  0.
         11    1    3    3    0    0  0.67889439283E+03  0.16603238347E+03  0.99532486475E+02  0.70595401043E+03  0.00000000000E+00 0. -1.
        -11    1    3    3    0    0  0.34425253166E+03  0.13327366041E+03  0.15577067559E+02  0.36947844206E+03  0.00000000000E+00 0.  1.
         22    1    1    2    0    0 -0.10231469245E+04 -0.29930604388E+03  0.22313762964E+04  0.24729443813E+04  0.00000000000E+00 0.  1.
<mgrwt>
<rscale>  0 0.26617630E+04</rscale>
<asrwt>0</asrwt>
<pdfrwt beam="1">  1        2 0.92453154E-01 0.26617630E+04</pdfrwt>
<pdfrwt beam="2">  1       -2 0.45345097E+00 0.26617630E+04</pdfrwt>
<totfact> 0.14327342E-01</totfact>
</mgrwt>
</event>
<event>
 6    1  0.1762360E-005  0.7342456E+03  0.7818608E-02  0.9660396E-01
          2   -1    0    0  501    0  0.00000000000E+00  0.00000000000E+00  0.50516648285E+03  0.50516648285E+03  0.00000000000E+00 0. -1.
         -2   -1    0    0    0  501 -0.00000000000E+00 -0.00000000000E+00 -0.26680148205E+03  0.26680148205E+03  0.00000000000E+00 0.  1.
         23    2    1    2    0    0  0.31306219650E+02  0.26897411374E+03 -0.13093689867E+03  0.31402577838E+03  0.90225078566E+02 0.  0.
         11    1    3    3    0    0 -0.42830943706E+01  0.18955019200E+03 -0.52178183803E+02  0.19664735709E+03  0.00000000000E+00 0.  1.
        -11    1    3    3    0    0  0.35589314021E+02  0.79423921736E+02 -0.78758714869E+02  0.11737842129E+03  0.00000000000E+00 0. -1.
         22    1    1    2    0    0 -0.31306219650E+02 -0.26897411374E+03  0.36930189947E+03  0.45794218652E+03  0.00000000000E+00 0. -1.
<mgrwt>
<rscale>  0 0.73424564E+03</rscale>
<asrwt>0</asrwt>
<pdfrwt beam="1">  1        2 0.77717920E-01 0.73424564E+03</pdfrwt>
<pdfrwt beam="2">  1       -2 0.41046382E-01 0.73424564E+03</pdfrwt>
<totfact> 0.34467334E+02</totfact>
</mgrwt>
</event>
<event>
 6    1  0.1762360E-005  0.1260213E+04  0.7818608E-02  0.9061725E-01
         -2   -1    0    0    0  501 -0.00000000000E+00  0.00000000000E+00  0.59092086616E+03  0.59092086616E+03  0.00000000000E+00 0.  1.
          2   -1    0    0  501    0  0.00000000000E+00 -0.00000000000E+00 -0.67189088817E+03  0.67189088817E+03  0.00000000000E+00 0. -1.
         23    2    1    2    0    0 -0.20136817220E+02  0.61653819689E+03 -0.15183371893E+03  0.64188784339E+03  0.91878646382E+02 0.  0.
         11    1    3    3    0    0  0.35719750392E+02  0.31318674038E+03 -0.77833283178E+02  0.32468423874E+03  0.00000000000E+00 0.  1.
        -11    1    3    3    0    0 -0.55856567612E+02  0.30335145651E+03 -0.74000435751E+02  0.31720360465E+03  0.00000000000E+00 0. -1.
         22    1    1    2    0    0  0.20136817220E+02 -0.61653819689E+03  0.70863696919E+02  0.62092391094E+03  0.00000000000E+00 0.  1.
<mgrwt>
<rscale>  0 0.12602132E+04</rscale>
<asrwt>0</asrwt>
<pdfrwt beam="1">  1        2 0.10336783E+00 0.12602132E+04</pdfrwt>
<pdfrwt beam="2">  1       -2 0.90910903E-01 0.12602132E+04</pdfrwt>
<totfact> 0.43798814E+01</totfact>
</mgrwt>
</event>
<event>
 6    1  0.2967292E-005  0.2645181E+04  0.7818608E-02  0.8353014E-01
         -1   -1    0    0    0  501 -0.00000000000E+00  0.00000000000E+00  0.10669883303E+04  0.10669883303E+04  0.00000000000E+00 0.  1.
          1   -1    0    0  501    0  0.00000000000E+00 -0.00000000000E+00 -0.16394231618E+04  0.16394231618E+04  0.00000000000E+00 0. -1.
         23    2    1    2    0    0 -0.54648075352E+03 -0.43895192611E+03  0.85909429072E+03  0.11124868906E+04  0.90906953004E+02 0.  0.
         11    1    3    3    0    0 -0.28938176753E+03 -0.19565577377E+03  0.48223654856E+03  0.59546207096E+03  0.00000000000E+00 0.  1.
        -11    1    3    3    0    0 -0.25709898599E+03 -0.24329615234E+03  0.37685774216E+03  0.51702481969E+03  0.00000000000E+00 0. -1.
         22    1    1    2    0    0  0.54648075352E+03  0.43895192611E+03 -0.14315291222E+04  0.15939246014E+04  0.00000000000E+00 0. -1.
<mgrwt>
<rscale>  0 0.26451808E+04</rscale>
<asrwt>0</asrwt>
<pdfrwt beam="1">  1        1 0.25221895E+00 0.26451808E+04</pdfrwt>
<pdfrwt beam="2">  1       -1 0.16415205E+00 0.26451808E+04</pdfrwt>
<totfact> 0.12508362E+00</totfact>
</mgrwt>
</event>
<event>
 6    1  0.1762360E-005  0.2503261E+04  0.7818608E-02  0.8401825E-01
          1   -1    0    0  501    0  0.00000000000E+00  0.00000000000E+00  0.77137020250E+03  0.77137020250E+03  0.00000000000E+00 0. -1.
         -1   -1    0    0    0  501 -0.00000000000E+00 -0.00000000000E+00 -0.20309045885E+04  0.20309045885E+04  0.00000000000E+00 0.  1.
         23    2    1    2    0    0  0.76863313777E+03 -0.63200404338E+03 -0.14774239892E+04  0.17835982523E+04  0.90637024835E+02 0.  0.
         13    1    3    3    0    0  0.18604646569E+03 -0.18559787130E+03 -0.33592637755E+03  0.42650485150E+03  0.00000000000E+00 0. -1.
        -13    1    3    3    0    0  0.58258667208E+03 -0.44640617208E+03 -0.11414976117E+04  0.13570934008E+04  0.00000000000E+00 0.  1.
         22    1    1    2    0    0 -0.76863313777E+03  0.63200404338E+03  0.21788960323E+03  0.10186765387E+04  0.00000000000E+00 0. -1.
<mgrwt>
<rscale>  0 0.25032613E+04</rscale>
<asrwt>0</asrwt>
<pdfrwt beam="1">  1        1 0.11867234E+00 0.25032613E+04</pdfrwt>
<pdfrwt beam="2">  1       -1 0.31244686E+00 0.25032613E+04</pdfrwt>
<totfact> 0.57062582E-01</totfact>
</mgrwt>
</event>
<event>
 6    1  0.1762360E-005  0.1868256E+04  0.7818608E-02  0.8670821E-01
         -2   -1    0    0    0  501 -0.00000000000E+00  0.00000000000E+00  0.35199665599E+03  0.35199665599E+03  0.00000000000E+00 0. -1.
          2   -1    0    0  501    0  0.00000000000E+00 -0.00000000000E+00 -0.24789878333E+04  0.24789878333E+04  0.00000000000E+00 0.  1.
         23    2    1    2    0    0  0.16847718179E+03 -0.91243491370E+03 -0.11974165107E+04  0.15175800986E+04  0.91219642577E+02 0.  0.
         11    1    3    3    0    0  0.10552527916E+03 -0.61984648036E+03 -0.74135432874E+03  0.97208615076E+03  0.00000000000E+00 0. -1.
        -11    1    3    3    0    0  0.62951902632E+02 -0.29258843334E+03 -0.45606218195E+03  0.54549394788E+03  0.00000000000E+00 0.  1.
         22    1    1    2    0    0 -0.16847718179E+03  0.91243491370E+03 -0.92957466662E+03  0.13134043906E+04  0.00000000000E+00 0. -1.
<mgrwt>
<rscale>  0 0.18682563E+04</rscale>
<asrwt>0</asrwt>
<pdfrwt beam="1">  1        2 0.38138276E+00 0.18682563E+04</pdfrwt>
<pdfrwt beam="2">  1       -2 0.54153329E-01 0.18682563E+04</pdfrwt>
<totfact> 0.10802503E+01</totfact>
</mgrwt>
</event>
<event>
 6    1  0.1762360E-005  0.3993103E+04  0.7818608E-02  0.8005939E-01
          2   -1    0    0  501    0  0.00000000000E+00  0.00000000000E+00  0.33320283640E+04  0.33320283640E+04  0.00000000000E+00 0. -1.
         -2   -1    0    0    0  501 -0.00000000000E+00 -0.00000000000E+00 -0.11963335084E+04  0.11963335084E+04  0.00000000000E+00 0.  1.
         23    2    1    2    0    0  0.91439375054E+03 -0.83977706407E+03  0.28401064065E+04  0.31009386411E+04  0.90964871255E+02 0.  0.
         13    1    3    3    0    0  0.76424812428E+03 -0.67662272215E+03  0.24032127974E+04  0.26110008144E+04  0.00000000000E+00 0. -1.
        -13    1    3    3    0    0  0.15014562626E+03 -0.16315434192E+03  0.43689360908E+03  0.48993782670E+03  0.00000000000E+00 0.  1.
         22    1    1    2    0    0 -0.91439375054E+03  0.83977706407E+03 -0.70441155079E+03  0.14274232313E+04  0.00000000000E+00 0.  1.
<mgrwt>
<rscale>  0 0.39931026E+04</rscale>
<asrwt>0</asrwt>
<pdfrwt beam="1">  1        2 0.51261974E+00 0.39931026E+04</pdfrwt>
<pdfrwt beam="2">  1       -2 0.18405131E+00 0.39931026E+04</pdfrwt>
<totfact> 0.14211965E-01</totfact>
</mgrwt>
</event>
<event>
 6    1  0.1762360E-005  0.2848031E+04  0.7818608E-02  0.8288510E-01
         -2   -1    0    0    0  501 -0.00000000000E+00  0.00000000000E+00  0.16298057147E+04  0.16298057147E+04  0.00000000000E+00 0. -1.
          2   -1    0    0  501    0  0.00000000000E+00 -0.00000000000E+00 -0.12442101094E+04  0.12442101094E+04  0.00000000000E+00 0.  1.
         23    2    1    2    0    0 -0.57445906280E+03 -0.34139153413E+03  0.14602726029E+04  0.16085190665E+04  0.91575751769E+02 0.  0.
         11    1    3    3    0    0 -0.46898391217E+03 -0.25493259123E+03  0.10842073961E+04  0.12084875728E+04  0.00000000000E+00 0.  1.
        -11    1    3    3    0    0 -0.10547515064E+03 -0.86458942902E+02  0.37606520680E+03  0.40003149373E+03  0.00000000000E+00 0. -1.
         22    1    1    2    0    0  0.57445906280E+03  0.34139153413E+03 -0.10746769975E+04  0.12654967576E+04  0.00000000000E+00 0.  1.
<mgrwt>
<rscale>  0 0.28480314E+04</rscale>
<asrwt>0</asrwt>
<pdfrwt beam="1">  1        2 0.19141694E+00 0.28480314E+04</pdfrwt>
<pdfrwt beam="2">  1       -2 0.25073934E+00 0.28480314E+04</pdfrwt>
<totfact> 0.98261411E-01</totfact>
</mgrwt>
</event>
<event>
 6    1  0.1762360E-005  0.2954232E+04  0.7818608E-02  0.8256922E-01
          1   -1    0    0  501    0  0.00000000000E+00  0.00000000000E+00  0.12665060396E+04  0.12665060396E+04  0.00000000000E+00 0. -1.
         -1   -1    0    0    0  501 -0.00000000000E+00 -0.00000000000E+00 -0.17227486967E+04  0.17227486967E+04  0.00000000000E+00 0.  1.
         23    2    1    2    0    0 -0.83645173185E+03  0.71617856391E+03 -0.12223913577E+04  0.16477827588E+04  0.91565022955E+02 0.  0.
         11    1    3    3    0    0 -0.35413020418E+03  0.29329946125E+03 -0.44466124130E+03  0.63965333971E+03  0.00000000000E+00 0.  1.
        -11    1    3    3    0    0 -0.48232152767E+03  0.42287910267E+03 -0.77773011644E+03  0.10081294190E+04  0.00000000000E+00 0. -1.
         22    1    1    2    0    0  0.83645173185E+03 -0.71617856391E+03  0.76614870059E+03  0.13414719775E+04  0.00000000000E+00 0. -1.
<mgrwt>
<rscale>  0 0.29542320E+04</rscale>
<asrwt>0</asrwt>
<pdfrwt beam="1">  1        1 0.19484708E+00 0.29542320E+04</pdfrwt>
<pdfrwt beam="2">  1       -1 0.26503826E+00 0.29542320E+04</pdfrwt>
<totfact> 0.45453541E-01</totfact>
</mgrwt>
</event>
<event>
 6    1  0.1762360E-005  0.2354391E+04  0.7818608E-02  0.8456779E-01
          2   -1    0    0  501    0  0.00000000000E+00  0.00000000000E+00  0.20933440961E+04  0.20933440961E+04  0.00000000000E+00 0. -1.
         -2   -1    0    0    0  501 -0.00000000000E+00 -0.00000000000E+00 -0.66199805341E+03  0.66199805341E+03  0.00000000000E+00 0.  1.
         23    2    1    2    0    0  0.25834573906E+03 -0.23015434314E+03 -0.59783588238E+03  0.69687358585E+03  0.92257844346E+02 0.  0.
         13    1    3    3    0    0  0.14852836557E+03 -0.96478468934E+02 -0.37538603825E+03  0.41507041338E+03  0.00000000000E+00 0. -1.
        -13    1    3    3    0    0  0.10981737349E+03 -0.13367587421E+03 -0.22244984413E+03  0.28180317248E+03  0.00000000000E+00 0.  1.
         22    1    1    2    0    0 -0.25834573906E+03  0.23015434314E+03  0.20291819251E+04  0.20584685637E+04  0.00000000000E+00 0. -1.
<mgrwt>
<rscale>  0 0.23543914E+04</rscale>
<asrwt>0</asrwt>
<pdfrwt beam="1">  1        2 0.32205294E+00 0.23543914E+04</pdfrwt>
<pdfrwt beam="2">  1       -2 0.10184586E+00 0.23543914E+04</pdfrwt>
<totfact> 0.42296992E+00</totfact>
</mgrwt>
</event>
<event>
 6    1  0.1762360E-005  0.3973779E+03  0.7818608E-02  0.1044691E+00
         -2   -1    0    0    0  501 -0.00000000000E+00  0.00000000000E+00  0.15629696295E+03  0.15629696295E+03  0.00000000000E+00 0.  1.
          2   -1    0    0  501    0  0.00000000000E+00 -0.00000000000E+00 -0.25257875833E+03  0.25257875833E+03  0.00000000000E+00 0. -1.
         23    2    1    2    0    0 -0.12579602801E+03 -0.13999526685E+03 -0.49780816960E+02  0.21500551626E+03  0.91246517096E+02 0.  0.
         11    1    3    3    0    0 -0.79523445960E+02 -0.63978777847E+02  0.17354516117E+02  0.10352990728E+03  0.00000000000E+00 0.  1.
        -11    1    3    3    0    0 -0.46272582046E+02 -0.76016489000E+02 -0.67135333077E+02  0.11147560898E+03  0.00000000000E+00 0. -1.
         22    1    1    2    0    0  0.12579602801E+03  0.13999526685E+03 -0.46500978423E+02  0.19387020502E+03  0.00000000000E+00 0. -1.
<mgrwt>
<rscale>  0 0.39737787E+03</rscale>
<asrwt>0</asrwt>
<pdfrwt beam="1">  1        2 0.38858270E-01 0.39737787E+03</pdfrwt>
<pdfrwt beam="2">  1       -2 0.24045687E-01 0.39737787E+03</pdfrwt>
<totfact> 0.20221415E+03</totfact>
</mgrwt>
</event>
<event>
 6    1  0.1762360E-005  0.1440680E+04  0.7818608E-02  0.8924888E-01
         -1   -1    0    0    0  501 -0.00000000000E+00  0.00000000000E+00  0.19132959629E+04  0.19132959629E+04  0.00000000000E+00 0.  1.
          1   -1    0    0  501    0  0.00000000000E+00 -0.00000000000E+00 -0.27120192212E+03  0.27120192212E+03  0.00000000000E+00 0. -1.
         23    2    1    2    0    0 -0.34278448835E+02  0.35122276438E+03 -0.12315349365E+03  0.38432253244E+03  0.89468338917E+02 0.  0.
         13    1    3    3    0    0  0.61531398701E+01  0.77040598377E+02 -0.65350496246E+02  0.10121167071E+03  0.00000000000E+00 0. -1.
        -13    1    3    3    0    0 -0.40431588705E+02  0.27418216600E+03 -0.57802997405E+02  0.28311086172E+03  0.00000000000E+00 0.  1.
         22    1    1    2    0    0  0.34278448835E+02 -0.35122276438E+03  0.17652475344E+04  0.18001753526E+04  0.00000000000E+00 0.  1.
<mgrwt>
<rscale>  0 0.14406798E+04</rscale>
<asrwt>0</asrwt>
<pdfrwt beam="1">  1        1 0.41723374E-01 0.14406798E+04</pdfrwt>
<pdfrwt beam="2">  1       -1 0.29435322E+00 0.14406798E+04</pdfrwt>
<totfact> 0.35024987E+00</totfact>
</mgrwt>
</event>
<event>
 6    1  0.1762360E-005  0.1894868E+04  0.7818608E-02  0.8657415E-01
         -1   -1    0    0    0  501 -0.00000000000E+00  0.00000000000E+00  0.20429499816E+04  0.20429499816E+04  0.00000000000E+00 0.  1.
          1   -1    0    0  501    0  0.00000000000E+00 -0.00000000000E+00 -0.43938012349E+03  0.43938012349E+03  0.00000000000E+00 0. -1.
         23    2    1    2    0    0 -0.29239074927E+03 -0.65525416117E+03 -0.27011775135E+01  0.72308111592E+03  0.89379180239E+02 0.  0.
         11    1    3    3    0    0 -0.10557118177E+03 -0.22731778574E+03  0.41525976772E+02  0.25405325599E+03  0.00000000000E+00 0.  1.
        -11    1    3    3    0    0 -0.18681956749E+03 -0.42793637543E+03 -0.44227154285E+02  0.46902785993E+03  0.00000000000E+00 0. -1.
         22    1    1    2    0    0  0.29239074927E+03  0.65525416117E+03  0.16062710357E+04  0.17592489892E+04  0.00000000000E+00 0.  1.
<mgrwt>
<rscale>  0 0.18948685E+04</rscale>
<asrwt>0</asrwt>
<pdfrwt beam="1">  1        1 0.67596944E-01 0.18948685E+04</pdfrwt>
<pdfrwt beam="2">  1       -1 0.31429999E+00 0.18948685E+04</pdfrwt>
<totfact> 0.13214743E+00</totfact>
</mgrwt>
</event>
<event>
 6    1  0.1762360E-005  0.8079902E+03  0.7818608E-02  0.9548523E-01
         -1   -1    0    0    0  501 -0.00000000000E+00  0.00000000000E+00  0.99549506737E+03  0.99549506737E+03  0.00000000000E+00 0.  1.
          1   -1    0    0  501    0  0.00000000000E+00 -0.00000000000E+00 -0.16395061598E+03  0.16395061598E+03  0.00000000000E+00 0. -1.
         23    2    1    2    0    0 -0.18851787827E+03 -0.33718650642E+03  0.27856061137E+03  0.48489037956E+03  0.91043590913E+02 0.  0.
         11    1    3    3    0    0 -0.78186392006E+02 -0.22863264331E+03  0.15810440804E+03  0.28876114927E+03  0.00000000000E+00 0.  1.
        -11    1    3    3    0    0 -0.11033148626E+03 -0.10855386311E+03  0.12045620333E+03  0.19612923030E+03  0.00000000000E+00 0. -1.
         22    1    1    2    0    0  0.18851787827E+03  0.33718650642E+03  0.55298384002E+03  0.67455530378E+03  0.00000000000E+00 0.  1.
<mgrwt>
<rscale>  0 0.80799017E+03</rscale>
<asrwt>0</asrwt>
<pdfrwt beam="1">  1        1 0.25223172E-01 0.80799017E+03</pdfrwt>
<pdfrwt beam="2">  1       -1 0.15315308E+00 0.80799017E+03</pdfrwt>
<totfact> 0.64560406E+01</totfact>
</mgrwt>
</event>
<event>
 6    1  0.1762360E-005  0.4559398E+04  0.7818608E-02  0.7900320E-01
          2   -1    0    0  501    0  0.00000000000E+00  0.00000000000E+00  0.19500123772E+04  0.19500123772E+04  0.00000000000E+00 0. -1.
         -2   -1    0    0    0  501 -0.00000000000E+00 -0.00000000000E+00 -0.26651257983E+04  0.26651257983E+04  0.00000000000E+00 0.  1.
         23    2    1    2    0    0 -0.20914206549E+04  0.89573692079E+02  0.55387627369E+03  0.21672005441E+04  0.88968924392E+02 0.  0.
         11    1    3    3    0    0 -0.13168874919E+03  0.24704507703E+02  0.24696070827E+02  0.13624292744E+03  0.00000000000E+00 0. -1.
        -11    1    3    3    0    0 -0.19597319057E+04  0.64869184377E+02  0.52918020286E+03  0.20309576166E+04  0.00000000000E+00 0.  1.
         22    1    1    2    0    0  0.20914206549E+04 -0.89573692079E+02 -0.12689896948E+04  0.24479376315E+04  0.00000000000E+00 0.  1.
<mgrwt>
<rscale>  0 0.45593983E+04</rscale>
<asrwt>0</asrwt>
<pdfrwt beam="1">  1        2 0.30000190E+00 0.45593983E+04</pdfrwt>
<pdfrwt beam="2">  1       -2 0.41001936E+00 0.45593983E+04</pdfrwt>
<totfact> 0.34280131E-02</totfact>
</mgrwt>
</event>
<event>
 6    1  0.1762360E-005  0.1978311E+04  0.7818608E-02  0.8616829E-01
          2   -1    0    0  501    0  0.00000000000E+00  0.00000000000E+00  0.16754395843E+04  0.16754395843E+04  0.00000000000E+00 0. -1.
         -2   -1    0    0    0  501 -0.00000000000E+00 -0.00000000000E+00 -0.58398309392E+03  0.58398309392E+03  0.00000000000E+00 0.  1.
         23    2    1    2    0    0 -0.42522736231E+02  0.87217494909E+03  0.21264115418E+02  0.87818806949E+03  0.90910933752E+02 0.  0.
         11    1    3    3    0    0  0.20495794288E+02  0.12308392898E+03 -0.14391013788E+02  0.12560586146E+03  0.00000000000E+00 0.  1.
        -11    1    3    3    0    0 -0.63018530519E+02  0.74909102011E+03  0.35655129207E+02  0.75258220803E+03  0.00000000000E+00 0. -1.
         22    1    1    2    0    0  0.42522736231E+02 -0.87217494909E+03  0.10701923750E+04  0.13812346087E+04  0.00000000000E+00 0. -1.
<mgrwt>
<rscale>  0 0.19783108E+04</rscale>
<asrwt>0</asrwt>
<pdfrwt beam="1">  1        2 0.25775993E+00 0.19783108E+04</pdfrwt>
<pdfrwt beam="2">  1       -2 0.89843554E-01 0.19783108E+04</pdfrwt>
<totfact> 0.99944421E+00</totfact>
</mgrwt>
</event>
<event>
 6    1  0.1762360E-005  0.1481764E+04  0.7818608E-02  0.8896671E-01
          2   -1    0    0  501    0  0.00000000000E+00  0.00000000000E+00  0.83307362068E+03  0.83307362068E+03  0.00000000000E+00 0. -1.
         -2   -1    0    0    0  501 -0.00000000000E+00 -0.00000000000E+00 -0.65889282978E+03  0.65889282978E+03  0.00000000000E+00 0.  1.
         23    2    1    2    0    0  0.48538880593E+03  0.23650571972E+03  0.59385910382E+03  0.80810452382E+03  0.93952316875E+02 0.  0.
         11    1    3    3    0    0  0.33669872747E+03  0.11661124558E+03  0.36652255675E+03  0.51117805145E+03  0.00000000000E+00 0. -1.
        -11    1    3    3    0    0  0.14869007846E+03  0.11989447414E+03  0.22733654707E+03  0.29692647237E+03  0.00000000000E+00 0.  1.
         22    1    1    2    0    0 -0.48538880593E+03 -0.23650571972E+03 -0.41967831292E+03  0.68386192664E+03  0.00000000000E+00 0.  1.
<mgrwt>
<rscale>  0 0.14817641E+04</rscale>
<asrwt>0</asrwt>
<pdfrwt beam="1">  1        2 0.12816517E+00 0.14817641E+04</pdfrwt>
<pdfrwt beam="2">  1       -2 0.10136813E+00 0.14817641E+04</pdfrwt>
<totfact> 0.25244370E+01</totfact>
</mgrwt>
</event>
<event>
 6    1  0.1762360E-005  0.2139734E+04  0.7818608E-02  0.8543939E-01
          2   -1    0    0  501    0  0.00000000000E+00  0.00000000000E+00  0.21331230102E+04  0.21331230102E+04  0.00000000000E+00 0. -1.
         -2   -1    0    0    0  501 -0.00000000000E+00 -0.00000000000E+00 -0.53659135918E+03  0.53659135918E+03  0.00000000000E+00 0.  1.
         23    2    1    2    0    0  0.36378781237E+03  0.15483871928E+03  0.20375103456E+04  0.20774485418E+04  0.89595948063E+02 0.  0.
         13    1    3    3    0    0  0.58717925491E+02 -0.48921509180E+01  0.22994226560E+03  0.23737138291E+03  0.00000000000E+00 0. -1.
        -13    1    3    3    0    0  0.30506988688E+03  0.15973087020E+03  0.18075680800E+04  0.18400771589E+04  0.00000000000E+00 0.  1.
         22    1    1    2    0    0 -0.36378781237E+03 -0.15483871928E+03 -0.44097869461E+03  0.59226582758E+03  0.00000000000E+00 0.  1.
<mgrwt>
<rscale>  0 0.21397340E+04</rscale>
<asrwt>0</asrwt>
<pdfrwt beam="1">  1        2 0.32817277E+00 0.21397340E+04</pdfrwt>
<pdfrwt beam="2">  1       -2 0.82552518E-01 0.21397340E+04</pdfrwt>
<totfact> 0.66586486E+00</totfact>
</mgrwt>
</event>
<event>
 6    1  0.1762360E-005  0.2767682E+04  0.7818608E-02  0.8313373E-01
          1   -1    0    0  501    0  0.00000000000E+00  0.00000000000E+00  0.16039960942E+04  0.16039960942E+04  0.00000000000E+00 0. -1.
         -1   -1    0    0    0  501 -0.00000000000E+00 -0.00000000000E+00 -0.11939026869E+04  0.11939026869E+04  0.00000000000E+00 0.  1.
         23    2    1    2    0    0  0.33378806295E+03  0.83144630897E+03  0.12694304572E+04  0.15564570382E+04  0.91582696868E+02 0.  0.
         11    1    3    3    0    0  0.20724098053E+03  0.62461371895E+03  0.92090828553E+03  0.11318847964E+04  0.00000000000E+00 0.  1.
        -11    1    3    3    0    0  0.12654708242E+03  0.20683259001E+03  0.34852217168E+03  0.42457224181E+03  0.00000000000E+00 0. -1.
         22    1    1    2    0    0 -0.33378806295E+03 -0.83144630897E+03 -0.85933704995E+03  0.12414417429E+04  0.00000000000E+00 0.  1.
<mgrwt>
<rscale>  0 0.27676815E+04</rscale>
<asrwt>0</asrwt>
<pdfrwt beam="1">  1        1 0.24676863E+00 0.27676815E+04</pdfrwt>
<pdfrwt beam="2">  1       -1 0.18367734E+00 0.27676815E+04</pdfrwt>
<totfact> 0.94290729E-01</totfact>
</mgrwt>
</event>
<event>
 6    1  0.1762360E-005  0.5881178E+03  0.7818608E-02  0.9930369E-01
          3   -1    0    0  501    0  0.00000000000E+00  0.00000000000E+00  0.10678852999E+03  0.10678852999E+03  0.00000000000E+00 0. -1.
         -3   -1    0    0    0  501 -0.00000000000E+00 -0.00000000000E+00 -0.80973721970E+03  0.80973721970E+03  0.00000000000E+00 0.  1.
         23    2    1    2    0    0  0.27526225030E+03 -0.54326016218E+02 -0.45362786643E+03  0.54118391164E+03  0.91548689429E+02 0.  0.
         11    1    3    3    0    0  0.16991604323E+03 -0.49237618841E+02 -0.20299259489E+03  0.26926157995E+03  0.00000000000E+00 0.  1.
        -11    1    3    3    0    0  0.10534620707E+03 -0.50883973762E+01 -0.25063527154E+03  0.27192233169E+03  0.00000000000E+00 0. -1.
         22    1    1    2    0    0 -0.27526225030E+03  0.54326016218E+02 -0.24932082328E+03  0.37534183806E+03  0.00000000000E+00 0. -1.
<mgrwt>
<rscale>  0 0.58811784E+03</rscale>
<asrwt>0</asrwt>
<pdfrwt beam="1">  1        3 0.16429005E-01 0.58811784E+03</pdfrwt>
<pdfrwt beam="2">  1       -3 0.12457495E+00 0.58811784E+03</pdfrwt>
<totfact> 0.44282184E+01</totfact>
</mgrwt>
</event>
<event>
 6    1  0.1762360E-005  0.2304573E+04  0.7818608E-02  0.8476120E-01
         -2   -1    0    0    0  501 -0.00000000000E+00  0.00000000000E+00  0.48436608363E+03  0.48436608363E+03  0.00000000000E+00 0. -1.
          2   -1    0    0  501    0  0.00000000000E+00 -0.00000000000E+00 -0.27412398389E+04  0.27412398389E+04  0.00000000000E+00 0.  1.
         23    2    1    2    0    0  0.21141779028E+03  0.76455210043E+03 -0.22964858714E+04  0.24313726343E+04  0.92131066187E+02 0.  0.
         13    1    3    3    0    0  0.11779170505E+03  0.51785598236E+03 -0.14216355092E+04  0.15175958702E+04  0.00000000000E+00 0.  1.
        -13    1    3    3    0    0  0.93626085237E+02  0.24669611807E+03 -0.87485036216E+03  0.91377676413E+03  0.00000000000E+00 0. -1.
         22    1    1    2    0    0 -0.21141779028E+03 -0.76455210043E+03  0.39612116094E+02  0.79423328818E+03  0.00000000000E+00 0. -1.
<mgrwt>
<rscale>  0 0.23045725E+04</rscale>
<asrwt>0</asrwt>
<pdfrwt beam="1">  1        2 0.42172920E+00 0.23045725E+04</pdfrwt>
<pdfrwt beam="2">  1       -2 0.74517860E-01 0.23045725E+04</pdfrwt>
<totfact> 0.36839979E+00</totfact>
</mgrwt>
</event>
<event>
 6    1  0.1762360E-005  0.4212812E+04  0.7818608E-02  0.7962940E-01
          2   -1    0    0  501    0  0.00000000000E+00  0.00000000000E+00  0.19992258972E+04  0.19992258972E+04  0.00000000000E+00 0. -1.
         -2   -1    0    0    0  501 -0.00000000000E+00 -0.00000000000E+00 -0.22193324195E+04  0.22193324195E+04  0.00000000000E+00 0.  1.
         23    2    1    2    0    0  0.13808451453E+04 -0.24046772286E+03  0.14630979400E+04  0.20281849916E+04  0.91218075174E+02 0.  0.
         11    1    3    3    0    0  0.36238084468E+03 -0.53998076740E+02  0.44024573574E+03  0.57275821838E+03  0.00000000000E+00 0. -1.
        -11    1    3    3    0    0  0.10184643006E+04 -0.18646964612E+03  0.10228522042E+04  0.14554267733E+04  0.00000000000E+00 0.  1.
         22    1    1    2    0    0 -0.13808451453E+04  0.24046772286E+03 -0.16832044624E+04  0.21903733251E+04  0.00000000000E+00 0.  1.
<mgrwt>
<rscale>  0 0.42128123E+04</rscale>
<asrwt>0</asrwt>
<pdfrwt beam="1">  1        2 0.30757322E+00 0.42128123E+04</pdfrwt>
<pdfrwt beam="2">  1       -2 0.34143576E+00 0.42128123E+04</pdfrwt>
<totfact> 0.91330553E-02</totfact>
</mgrwt>
</event>
<event>
 6    1  0.1762360E-005  0.3049395E+04  0.7818608E-02  0.8229765E-01
          2   -1    0    0  501    0  0.00000000000E+00  0.00000000000E+00  0.35078206686E+04  0.35078206686E+04  0.00000000000E+00 0. -1.
         -2   -1    0    0    0  501 -0.00000000000E+00 -0.00000000000E+00 -0.66271980500E+03  0.66271980500E+03  0.00000000000E+00 0.  1.
         23    2    1    2    0    0 -0.13969331000E+04 -0.60697596197E+03  0.13936900050E+04  0.20666309259E+04  0.93539561636E+02 0.  0.
         13    1    3    3    0    0 -0.72876914020E+03 -0.29544070953E+03  0.66169379300E+03  0.10277297058E+04  0.00000000000E+00 0. -1.
        -13    1    3    3    0    0 -0.66816395982E+03 -0.31153525244E+03  0.73199621204E+03  0.10389012201E+04  0.00000000000E+00 0.  1.
         22    1    1    2    0    0  0.13969331000E+04  0.60697596197E+03  0.14514108586E+04  0.21039095477E+04  0.00000000000E+00 0. -1.
<mgrwt>
<rscale>  0 0.30493948E+04</rscale>
<asrwt>0</asrwt>
<pdfrwt beam="1">  1        2 0.53966471E+00 0.30493948E+04</pdfrwt>
<pdfrwt beam="2">  1       -2 0.10195690E+00 0.30493948E+04</pdfrwt>
<totfact> 0.53931726E-01</totfact>
</mgrwt>
</event>
<event>
 6    1  0.1762360E-005  0.3784645E+04  0.7818608E-02  0.8049458E-01
          1   -1    0    0  501    0  0.00000000000E+00  0.00000000000E+00  0.21857317719E+04  0.21857317719E+04  0.00000000000E+00 0. -1.
         -1   -1    0    0    0  501 -0.00000000000E+00 -0.00000000000E+00 -0.16383001973E+04  0.16383001973E+04  0.00000000000E+00 0.  1.
         23    2    1    2    0    0 -0.36230993872E+03  0.11934633299E+02  0.21493412053E+04  0.21816174685E+04  0.91521773629E+02 0.  0.
         11    1    3    3    0    0 -0.27567163244E+03  0.11317824960E+02  0.13722869243E+04  0.13997479575E+04  0.00000000000E+00 0. -1.
        -11    1    3    3    0    0 -0.86638306277E+02  0.61680833860E+00  0.77705428102E+03  0.78186951099E+03  0.00000000000E+00 0.  1.
         22    1    1    2    0    0  0.36230993872E+03 -0.11934633299E+02 -0.16019096307E+04  0.16424145007E+04  0.00000000000E+00 0.  1.
<mgrwt>
<rscale>  0 0.37846452E+04</rscale>
<asrwt>0</asrwt>
<pdfrwt beam="1">  1        1 0.33626642E+00 0.37846452E+04</pdfrwt>
<pdfrwt beam="2">  1       -1 0.25204619E+00 0.37846452E+04</pdfrwt>
<totfact> 0.12000577E-01</totfact>
</mgrwt>
</event>
<event>
 6    1  0.1762360E-005  0.1815617E+04  0.7818608E-02  0.8698038E-01
          2   -1    0    0  501    0  0.00000000000E+00  0.00000000000E+00  0.10342779104E+04  0.10342779104E+04  0.00000000000E+00 0. -1.
         -2   -1    0    0    0  501 -0.00000000000E+00 -0.00000000000E+00 -0.79680345123E+03  0.79680345123E+03  0.00000000000E+00 0.  1.
         23    2    1    2    0    0 -0.52915082007E+03  0.73452288136E+03  0.96179135007E+02  0.91484513540E+03  0.90370028982E+02 0.  0.
         11    1    3    3    0    0 -0.32590283764E+03  0.50972008752E+03  0.90481731533E+02  0.61173047247E+03  0.00000000000E+00 0. -1.
        -11    1    3    3    0    0 -0.20324798244E+03  0.22480279384E+03  0.56974034737E+01  0.30311466294E+03  0.00000000000E+00 0.  1.
         22    1    1    2    0    0  0.52915082007E+03 -0.73452288136E+03  0.14129532417E+03  0.91623622623E+03  0.00000000000E+00 0.  1.
<mgrwt>
<rscale>  0 0.18156169E+04</rscale>
<asrwt>0</asrwt>
<pdfrwt beam="1">  1        2 0.15911968E+00 0.18156169E+04</pdfrwt>
<pdfrwt beam="2">  1       -2 0.12258515E+00 0.18156169E+04</pdfrwt>
<totfact> 0.11371244E+01</totfact>
</mgrwt>
</event>
<event>
 6    1  0.2251510E-005  0.3052043E+04  0.7818608E-02  0.8229024E-01
          2   -1    0    0  501    0  0.00000000000E+00  0.00000000000E+00  0.13199253316E+04  0.13199253316E+04  0.00000000000E+00 0. -1.
         -2   -1    0    0    0  501 -0.00000000000E+00 -0.00000000000E+00 -0.17642981483E+04  0.17642981483E+04  0.00000000000E+00 0.  1.
         23    2    1    2    0    0 -0.23409653079E+03  0.64207255420E+03  0.11549172977E+04  0.13450319377E+04  0.90656484935E+02 0.  0.
         11    1    3    3    0    0 -0.12360409088E+03  0.36858790728E+03  0.74073420738E+03  0.83655375360E+03  0.00000000000E+00 0. -1.
        -11    1    3    3    0    0 -0.11049243991E+03  0.27348464691E+03  0.41418309031E+03  0.50847818407E+03  0.00000000000E+00 0.  1.
         22    1    1    2    0    0  0.23409653079E+03 -0.64207255420E+03 -0.15992901143E+04  0.17391915422E+04  0.00000000000E+00 0.  1.
<mgrwt>
<rscale>  0 0.30520431E+04</rscale>
<asrwt>0</asrwt>
<pdfrwt beam="1">  1        2 0.20306544E+00 0.30520431E+04</pdfrwt>
<pdfrwt beam="2">  1       -2 0.27143048E+00 0.30520431E+04</pdfrwt>
<totfact> 0.65166689E-01</totfact>
</mgrwt>
</event>
<event>
 6    1  0.1762360E-005  0.6410369E+03  0.7818608E-02  0.9823745E-01
          2   -1    0    0  501    0  0.00000000000E+00  0.00000000000E+00  0.49434638107E+03  0.49434638107E+03  0.00000000000E+00 0. -1.
         -2   -1    0    0    0  501 -0.00000000000E+00 -0.00000000000E+00 -0.20781395106E+03  0.20781395106E+03  0.00000000000E+00 0.  1.
         23    2    1    2    0    0 -0.18326976383E+03  0.15912634256E+03  0.36502524135E+03  0.44707187558E+03  0.87868287121E+02 0.  0.
         11    1    3    3    0    0 -0.39581867665E+02  0.85988803074E+02  0.16421385727E+03  0.18954416219E+03  0.00000000000E+00 0. -1.
        -11    1    3    3    0    0 -0.14368789617E+03  0.73137539488E+02  0.20081138408E+03  0.25752771339E+03  0.00000000000E+00 0.  1.
         22    1    1    2    0    0  0.18326976383E+03 -0.15912634256E+03 -0.78492811340E+02  0.25508845655E+03  0.00000000000E+00 0.  1.
<mgrwt>
<rscale>  0 0.64103689E+03</rscale>
<asrwt>0</asrwt>
<pdfrwt beam="1">  1        2 0.76053289E-01 0.64103689E+03</pdfrwt>
<pdfrwt beam="2">  1       -2 0.31971377E-01 0.64103689E+03</pdfrwt>
<totfact> 0.57144516E+02</totfact>
</mgrwt>
</event>
<event>
 6    1  0.1762360E-005  0.3082346E+04  0.7818608E-02  0.8220600E-01
         -2   -1    0    0    0  501 -0.00000000000E+00  0.00000000000E+00  0.71774705372E+03  0.71774705372E+03  0.00000000000E+00 0.  1.
          2   -1    0    0  501    0  0.00000000000E+00 -0.00000000000E+00 -0.33092646179E+04  0.33092646179E+04  0.00000000000E+00 0. -1.
         23    2    1    2    0    0  0.57559135162E+03 -0.18232933297E+03 -0.31475046804E+04  0.32062369990E+04  0.92847139013E+02 0.  0.
         11    1    3    3    0    0  0.21457761382E+03 -0.11055068497E+03 -0.13547715681E+04  0.13761071935E+04  0.00000000000E+00 0. -1.
        -11    1    3    3    0    0  0.36101373780E+03 -0.71778647994E+02 -0.17927331123E+04  0.18301298055E+04  0.00000000000E+00 0.  1.
         22    1    1    2    0    0 -0.57559135162E+03  0.18232933297E+03  0.55598711622E+03  0.82077467256E+03  0.00000000000E+00 0.  1.
<mgrwt>
<rscale>  0 0.30823465E+04</rscale>
<asrwt>0</asrwt>
<pdfrwt beam="1">  1        2 0.50911764E+00 0.30823465E+04</pdfrwt>
<pdfrwt beam="2">  1       -2 0.11042262E+00 0.30823465E+04</pdfrwt>
<totfact> 0.60719249E-01</totfact>
</mgrwt>
</event>
<event>
 6    1  0.1762360E-005  0.1021560E+04  0.7818608E-02  0.9285209E-01
          1   -1    0    0  501    0  0.00000000000E+00  0.00000000000E+00  0.14381146477E+04  0.14381146477E+04  0.00000000000E+00 0. -1.
         -1   -1    0    0    0  501 -0.00000000000E+00 -0.00000000000E+00 -0.18141550257E+03  0.18141550257E+03  0.00000000000E+00 0.  1.
         23    2    1    2    0    0  0.27239937429E+02 -0.39803640240E+03  0.11292541235E+04  0.12007017542E+04  0.85409807578E+02 0.  0.
         11    1    3    3    0    0 -0.70536513340E+01 -0.18145165259E+03  0.40206660180E+03  0.44117117824E+03  0.00000000000E+00 0.  1.
        -11    1    3    3    0    0  0.34293588763E+02 -0.21658474981E+03  0.72718752169E+03  0.75953057593E+03  0.00000000000E+00 0. -1.
         22    1    1    2    0    0 -0.27239937429E+02  0.39803640240E+03  0.12744502163E+03  0.41882839609E+03  0.00000000000E+00 0.  1.
<mgrwt>
<rscale>  0 0.10215602E+04</rscale>
<asrwt>0</asrwt>
<pdfrwt beam="1">  1        1 0.22124840E+00 0.10215602E+04</pdfrwt>
<pdfrwt beam="2">  1       -1 0.27910078E-01 0.10215602E+04</pdfrwt>
<totfact> 0.83724174E+01</totfact>
</mgrwt>
</event>
<event>
 6    1  0.1762360E-005  0.9977360E+03  0.7818608E-02  0.9311031E-01
          1   -1    0    0  501    0  0.00000000000E+00  0.00000000000E+00  0.20323119922E+03  0.20323119922E+03  0.00000000000E+00 0. -1.
         -1   -1    0    0    0  501 -0.00000000000E+00 -0.00000000000E+00 -0.12245623989E+04  0.12245623989E+04  0.00000000000E+00 0.  1.
         23    2    1    2    0    0  0.44026308803E+03 -0.21475599385E+03 -0.41803444971E+03  0.65067154074E+03  0.93107084606E+02 0.  0.
         13    1    3    3    0    0  0.10017492737E+03 -0.93425296289E+02 -0.12890401266E+03  0.18809451491E+03  0.00000000000E+00 0. -1.
        -13    1    3    3    0    0  0.34008816066E+03 -0.12133069756E+03 -0.28913043706E+03  0.46257702583E+03  0.00000000000E+00 0.  1.
         22    1    1    2    0    0 -0.44026308803E+03  0.21475599385E+03 -0.60329675001E+03  0.77712205743E+03  0.00000000000E+00 0.  1.
<mgrwt>
<rscale>  0 0.99773601E+03</rscale>
<asrwt>0</asrwt>
<pdfrwt beam="1">  1        1 0.31266338E-01 0.99773601E+03</pdfrwt>
<pdfrwt beam="2">  1       -1 0.18839422E+00 0.99773601E+03</pdfrwt>
<totfact> 0.26531650E+01</totfact>
</mgrwt>
</event>
<event>
 6    1  0.1762360E-005  0.1147586E+04  0.7818608E-02  0.9160014E-01
         -1   -1    0    0    0  501 -0.00000000000E+00  0.00000000000E+00  0.48061652393E+03  0.48061652393E+03  0.00000000000E+00 0.  1.
          1   -1    0    0  501    0  0.00000000000E+00 -0.00000000000E+00 -0.68503330000E+03  0.68503330000E+03  0.00000000000E+00 0. -1.
         23    2    1    2    0    0 -0.13292811680E+03  0.18374686222E+03 -0.63394193410E+03  0.67992906569E+03  0.94806987880E+02 0.  0.
         11    1    3    3    0    0 -0.73083292790E+02  0.79350481111E+02 -0.17590968791E+03  0.20635378562E+03  0.00000000000E+00 0.  1.
        -11    1    3    3    0    0 -0.59844824009E+02  0.10439638111E+03 -0.45803224618E+03  0.47357528007E+03  0.00000000000E+00 0. -1.
         22    1    1    2    0    0  0.13292811680E+03 -0.18374686222E+03  0.42952515803E+03  0.48572075824E+03  0.00000000000E+00 0.  1.
<mgrwt>
<rscale>  0 0.11475859E+04</rscale>
<asrwt>0</asrwt>
<pdfrwt beam="1">  1        1 0.10538974E+00 0.11475859E+04</pdfrwt>
<pdfrwt beam="2">  1       -1 0.73941003E-01 0.11475859E+04</pdfrwt>
<totfact> 0.51530165E+01</totfact>
</mgrwt>
</event>
<event>
 6    1  0.1762360E-005  0.1842832E+04  0.7818608E-02  0.8683848E-01
         -2   -1    0    0    0  501 -0.00000000000E+00  0.00000000000E+00  0.95429915502E+03  0.95429915502E+03  0.00000000000E+00 0.  1.
          2   -1    0    0  501    0  0.00000000000E+00 -0.00000000000E+00 -0.88966552026E+03  0.88966552026E+03  0.00000000000E+00 0. -1.
         23    2    1    2    0    0 -0.27178375251E+03  0.30439967538E+03 -0.79170372337E+03  0.89536610822E+03  0.91433646147E+02 0.  0.
         11    1    3    3    0    0 -0.17487909167E+03  0.13019654613E+03 -0.38535676233E+03  0.44275689898E+03  0.00000000000E+00 0. -1.
        -11    1    3    3    0    0 -0.96904660839E+02  0.17420312926E+03 -0.40634696105E+03  0.45260920924E+03  0.00000000000E+00 0.  1.
         22    1    1    2    0    0  0.27178375251E+03 -0.30439967538E+03  0.85633735812E+03  0.94859856706E+03  0.00000000000E+00 0.  1.
<mgrwt>
<rscale>  0 0.18428316E+04</rscale>
<asrwt>0</asrwt>
<pdfrwt beam="1">  1        2 0.13687162E+00 0.18428316E+04</pdfrwt>
<pdfrwt beam="2">  1       -2 0.14681526E+00 0.18428316E+04</pdfrwt>
<totfact> 0.88890237E+00</totfact>
</mgrwt>
</event>
<event>
 6    1  0.1762360E-005  0.3058808E+04  0.7818608E-02  0.8227134E-01
         -1   -1    0    0    0  501 -0.00000000000E+00  0.00000000000E+00  0.98929196456E+03  0.98929196456E+03  0.00000000000E+00 0.  1.
          1   -1    0    0  501    0  0.00000000000E+00 -0.00000000000E+00 -0.23643951219E+04  0.23643951219E+04  0.00000000000E+00 0. -1.
         23    2    1    2    0    0 -0.14347292874E+04 -0.50619006865E+03 -0.53175183096E+03  0.16141704945E+04  0.90054771362E+02 0.  0.
         11    1    3    3    0    0 -0.71272686671E+03 -0.28188781427E+03 -0.23094001466E+03  0.80048336443E+03  0.00000000000E+00 0.  1.
        -11    1    3    3    0    0 -0.72200242074E+03 -0.22430225438E+03 -0.30081181630E+03  0.81368713011E+03  0.00000000000E+00 0. -1.
         22    1    1    2    0    0  0.14347292874E+04  0.50619006865E+03 -0.84335132635E+03  0.17395165919E+04  0.00000000000E+00 0.  1.
<mgrwt>
<rscale>  0 0.30588083E+04</rscale>
<asrwt>0</asrwt>
<pdfrwt beam="1">  1        1 0.36375309E+00 0.30588083E+04</pdfrwt>
<pdfrwt beam="2">  1       -1 0.15219877E+00 0.30588083E+04</pdfrwt>
<totfact> 0.47732205E-01</totfact>
</mgrwt>
</event>
<event>
 6    1  0.1762360E-005  0.1656292E+04  0.7818608E-02  0.8786693E-01
         -2   -1    0    0    0  501 -0.00000000000E+00  0.00000000000E+00  0.19312072478E+04  0.19312072478E+04  0.00000000000E+00 0.  1.
          2   -1    0    0  501    0  0.00000000000E+00 -0.00000000000E+00 -0.35512818479E+03  0.35512818479E+03  0.00000000000E+00 0. -1.
         23    2    1    2    0    0  0.62871141004E+03  0.37971150608E+03  0.13114424772E+04  0.15056361387E+04  0.87177669881E+02 0.  0.
         13    1    3    3    0    0  0.20944396203E+03  0.88021626087E+02  0.35788297630E+03  0.42390423991E+03  0.00000000000E+00 0. -1.
        -13    1    3    3    0    0  0.41926744800E+03  0.29168987999E+03  0.95355950092E+03  0.10817318988E+04  0.00000000000E+00 0.  1.
         22    1    1    2    0    0 -0.62871141004E+03 -0.37971150608E+03  0.26463658579E+03  0.78069929390E+03  0.00000000000E+00 0. -1.
<mgrwt>
<rscale>  0 0.16562924E+04</rscale>
<asrwt>0</asrwt>
<pdfrwt beam="1">  1        2 0.54635107E-01 0.16562924E+04</pdfrwt>
<pdfrwt beam="2">  1       -2 0.29710880E+00 0.16562924E+04</pdfrwt>
<totfact> 0.28804603E+00</totfact>
</mgrwt>
</event>
<event>
 6    1  0.1762360E-005  0.2192291E+04  0.7818608E-02  0.8521644E-01
         -1   -1    0    0    0  501 -0.00000000000E+00  0.00000000000E+00  0.58603819505E+03  0.58603819505E+03  0.00000000000E+00 0. -1.
          1   -1    0    0  501    0  0.00000000000E+00 -0.00000000000E+00 -0.20502667033E+04  0.20502667033E+04  0.00000000000E+00 0.  1.
         23    2    1    2    0    0  0.80529939335E+03  0.19477821163E+03 -0.15928731096E+04  0.17978568689E+04  0.92730325429E+02 0.  0.
         13    1    3    3    0    0  0.53935867611E+03  0.11623185518E+03 -0.96757549201E+03  0.11138312073E+04  0.00000000000E+00 0. -1.
        -13    1    3    3    0    0  0.26594071724E+03  0.78546356447E+02 -0.62529761757E+03  0.68402566161E+03  0.00000000000E+00 0.  1.
         22    1    1    2    0    0 -0.80529939335E+03 -0.19477821163E+03  0.12864460129E+03  0.83844802946E+03  0.00000000000E+00 0. -1.
<mgrwt>
<rscale>  0 0.21922907E+04</rscale>
<asrwt>0</asrwt>
<pdfrwt beam="1">  1        1 0.31542565E+00 0.21922907E+04</pdfrwt>
<pdfrwt beam="2">  1       -1 0.90159722E-01 0.21922907E+04</pdfrwt>
<totfact> 0.30234603E+00</totfact>
</mgrwt>
</event>
<event>
 6    1  0.1762360E-005  0.3758871E+04  0.7818608E-02  0.8055039E-01
         -1   -1    0    0    0  501 -0.00000000000E+00  0.00000000000E+00  0.11106759019E+04  0.11106759019E+04  0.00000000000E+00 0.  1.
          1   -1    0    0  501    0  0.00000000000E+00 -0.00000000000E+00 -0.31802961426E+04  0.31802961426E+04  0.00000000000E+00 0. -1.
         23    2    1    2    0    0  0.14270129766E+04 -0.56653602915E+03 -0.22706179058E+04  0.27425117870E+04  0.91302353684E+02 0.  0.
         11    1    3    3    0    0  0.10222291143E+04 -0.41498087090E+03 -0.17014390937E+04  0.20278206220E+04  0.00000000000E+00 0.  1.
        -11    1    3    3    0    0  0.40478386231E+03 -0.15155515825E+03 -0.56917881210E+03  0.71469116499E+03  0.00000000000E+00 0. -1.
         22    1    1    2    0    0 -0.14270129766E+04  0.56653602915E+03  0.20099766503E+03  0.15484602575E+04  0.00000000000E+00 0.  1.
<mgrwt>
<rscale>  0 0.37588713E+04</rscale>
<asrwt>0</asrwt>
<pdfrwt beam="1">  1        1 0.48927633E+00 0.37588713E+04</pdfrwt>
<pdfrwt beam="2">  1       -1 0.17087322E+00 0.37588713E+04</pdfrwt>
<totfact> 0.85050386E-02</totfact>
</mgrwt>
</event>
<event>
 6    1  0.1762360E-005  0.3128341E+04  0.7818608E-02  0.8208003E-01
         -1   -1    0    0    0  501 -0.00000000000E+00  0.00000000000E+00  0.16004257992E+04  0.16004257992E+04  0.00000000000E+00 0.  1.
          1   -1    0    0  501    0  0.00000000000E+00 -0.00000000000E+00 -0.15287364896E+04  0.15287364896E+04  0.00000000000E+00 0. -1.
         23    2    1    2    0    0 -0.11058707790E+04  0.51873484828E+03 -0.93920608530E+03  0.15436196303E+04  0.92830328190E+02 0.  0.
         11    1    3    3    0    0 -0.51821588598E+03  0.21822259842E+03 -0.38127678621E+03  0.67936793761E+03  0.00000000000E+00 0.  1.
        -11    1    3    3    0    0 -0.58765489300E+03  0.30051224987E+03 -0.55792929908E+03  0.86425169271E+03  0.00000000000E+00 0. -1.
         22    1    1    2    0    0  0.11058707790E+04 -0.51873484828E+03  0.10108953949E+04  0.15855426585E+04  0.00000000000E+00 0.  1.
<mgrwt>
<rscale>  0 0.31283410E+04</rscale>
<asrwt>0</asrwt>
<pdfrwt beam="1">  1        1 0.23519023E+00 0.31283410E+04</pdfrwt>
<pdfrwt beam="2">  1       -1 0.24621935E+00 0.31283410E+04</pdfrwt>
<totfact> 0.38821438E-01</totfact>
</mgrwt>
</event>
<event>
 6    1  0.1762360E-005  0.6687697E+03  0.7818608E-02  0.9772183E-01
          2   -1    0    0  501    0  0.00000000000E+00  0.00000000000E+00  0.11228672163E+04  0.11228672163E+04  0.00000000000E+00 0. -1.
         -2   -1    0    0    0  501 -0.00000000000E+00 -0.00000000000E+00 -0.99578305319E+02  0.99578305319E+02  0.00000000000E+00 0.  1.
         23    2    1    2    0    0 -0.10992092274E+03 -0.30797956842E+03  0.57108776000E+03  0.66439542998E+03  0.91356630550E+02 0.  0.
         13    1    3    3    0    0 -0.42429466477E+01 -0.10074623081E+03  0.11905824164E+03  0.15602137841E+03  0.00000000000E+00 0.  1.
        -13    1    3    3    0    0 -0.10567797609E+03 -0.20723333761E+03  0.45202951835E+03  0.50837405157E+03  0.00000000000E+00 0. -1.
         22    1    1    2    0    0  0.10992092274E+03  0.30797956842E+03  0.45220115095E+03  0.55805009161E+03  0.00000000000E+00 0.  1.
<mgrwt>
<rscale>  0 0.66876966E+03</rscale>
<asrwt>0</asrwt>
<pdfrwt beam="1">  1        2 0.17274879E+00 0.66876966E+03</pdfrwt>
<pdfrwt beam="2">  1       -2 0.15319740E-01 0.66876966E+03</pdfrwt>
<totfact> 0.71948363E+02</totfact>
</mgrwt>
</event>
<event>
 6    1  0.1762360E-005  0.3861035E+04  0.7818608E-02  0.8033182E-01
         -2   -1    0    0    0  501 -0.00000000000E+00  0.00000000000E+00  0.21013900910E+04  0.21013900910E+04  0.00000000000E+00 0.  1.
          2   -1    0    0  501    0  0.00000000000E+00 -0.00000000000E+00 -0.17735396135E+04  0.17735396135E+04  0.00000000000E+00 0. -1.
         23    2    1    2    0    0  0.12919792864E+04  0.14326306687E+04  0.19996292190E+03  0.19415398483E+04  0.89166716255E+02 0.  0.
         13    1    3    3    0    0  0.61644318270E+03  0.71429162161E+03  0.13752429488E+03  0.95348185609E+03  0.00000000000E+00 0. -1.
        -13    1    3    3    0    0  0.67553610366E+03  0.71833904706E+03  0.62438627022E+02  0.98805799224E+03  0.00000000000E+00 0.  1.
         22    1    1    2    0    0 -0.12919792864E+04 -0.14326306687E+04  0.12788755558E+03  0.19333898562E+04  0.00000000000E+00 0.  1.
<mgrwt>
<rscale>  0 0.38610354E+04</rscale>
<asrwt>0</asrwt>
<pdfrwt beam="1">  1        2 0.27285225E+00 0.38610354E+04</pdfrwt>
<pdfrwt beam="2">  1       -2 0.32329078E+00 0.38610354E+04</pdfrwt>
<totfact> 0.16267782E-01</totfact>
</mgrwt>
</event>
<event>
 6    1  0.1762360E-005  0.8839306E+03  0.7818608E-02  0.9445895E-01
          1   -1    0    0  501    0  0.00000000000E+00  0.00000000000E+00  0.41417915004E+03  0.41417915004E+03  0.00000000000E+00 0. -1.
         -1   -1    0    0    0  501 -0.00000000000E+00 -0.00000000000E+00 -0.47161555897E+03  0.47161555897E+03  0.00000000000E+00 0.  1.
         23    2    1    2    0    0  0.17743387151E+03 -0.39771664826E+03  0.91604941369E+01  0.44523091277E+03  0.92115905094E+02 0.  0.
         11    1    3    3    0    0  0.18618792329E+03 -0.34867871540E+03  0.60749262080E+01  0.39532226611E+03  0.00000000000E+00 0.  1.
        -11    1    3    3    0    0 -0.87540517882E+01 -0.49037932861E+02  0.30855679289E+01  0.49908646660E+02  0.00000000000E+00 0. -1.
         22    1    1    2    0    0 -0.17743387151E+03  0.39771664826E+03 -0.66596903057E+02  0.44056379624E+03  0.00000000000E+00 0.  1.
<mgrwt>
<rscale>  0 0.88393061E+03</rscale>
<asrwt>0</asrwt>
<pdfrwt beam="1">  1        1 0.63719869E-01 0.88393061E+03</pdfrwt>
<pdfrwt beam="2">  1       -1 0.72556240E-01 0.88393061E+03</pdfrwt>
<totfact> 0.11071505E+02</totfact>
</mgrwt>
</event>
<event>
 6    1  0.1762360E-005  0.4393936E+03  0.7818608E-02  0.1030933E+00
          2   -1    0    0  501    0  0.00000000000E+00  0.00000000000E+00  0.23873339899E+03  0.23873339899E+03  0.00000000000E+00 0. -1.
         -2   -1    0    0    0  501 -0.00000000000E+00 -0.00000000000E+00 -0.20217820170E+03  0.20217820170E+03  0.00000000000E+00 0.  1.
         23    2    1    2    0    0  0.17908263921E+03 -0.38124712880E+02  0.12354917834E+03  0.23819988881E+03  0.89166709934E+02 0.  0.
         11    1    3    3    0    0  0.42429016678E+02 -0.35489948372E+02  0.74919963361E+02  0.93127647891E+02  0.00000000000E+00 0. -1.
        -11    1    3    3    0    0  0.13665362253E+03 -0.26347645078E+01  0.48629214983E+02  0.14507224092E+03  0.00000000000E+00 0.  1.
         22    1    1    2    0    0 -0.17908263921E+03  0.38124712880E+02 -0.86993981057E+02  0.20271171189E+03  0.00000000000E+00 0.  1.
<mgrwt>
<rscale>  0 0.43939362E+03</rscale>
<asrwt>0</asrwt>
<pdfrwt beam="1">  1        2 0.36728215E-01 0.43939362E+03</pdfrwt>
<pdfrwt beam="2">  1       -2 0.31104339E-01 0.43939362E+03</pdfrwt>
<totfact> 0.13522259E+03</totfact>
</mgrwt>
</event>
<event>
 6    1  0.1762360E-005  0.2490662E+04  0.7818608E-02  0.8406320E-01
          2   -1    0    0  501    0  0.00000000000E+00  0.00000000000E+00  0.10130092842E+04  0.10130092842E+04  0.00000000000E+00 0. -1.
         -2   -1    0    0    0  501 -0.00000000000E+00 -0.00000000000E+00 -0.15309329907E+04  0.15309329907E+04  0.00000000000E+00 0.  1.
         23    2    1    2    0    0 -0.89954552311E+03 -0.24544520922E+03  0.58121562490E+03  0.11025773771E+04  0.91868225814E+02 0.  0.
         13    1    3    3    0    0 -0.59314170278E+03 -0.17818090299E+03  0.33739860967E+03  0.70526827206E+03  0.00000000000E+00 0. -1.
        -13    1    3    3    0    0 -0.30640382033E+03 -0.67264306232E+02  0.24381701523E+03  0.39730910501E+03  0.00000000000E+00 0.  1.
         22    1    1    2    0    0  0.89954552311E+03  0.24544520922E+03 -0.10991393314E+04  0.14413648978E+04  0.00000000000E+00 0.  1.
<mgrwt>
<rscale>  0 0.24906620E+04</rscale>
<asrwt>0</asrwt>
<pdfrwt beam="1">  1        2 0.15584758E+00 0.24906620E+04</pdfrwt>
<pdfrwt beam="2">  1       -2 0.23552815E+00 0.24906620E+04</pdfrwt>
<totfact> 0.17412982E+00</totfact>
</mgrwt>
</event>
<event>
 6    1  0.1762360E-005  0.1053439E+04  0.7818608E-02  0.9251801E-01
          1   -1    0    0  501    0  0.00000000000E+00  0.00000000000E+00  0.96473142024E+03  0.96473142024E+03  0.00000000000E+00 0. -1.
         -1   -1    0    0    0  501 -0.00000000000E+00 -0.00000000000E+00 -0.28757561265E+03  0.28757561265E+03  0.00000000000E+00 0.  1.
         23    2    1    2    0    0  0.36248902980E+03 -0.35972274927E+03  0.20738928426E+03  0.55841990986E+03  0.89575261306E+02 0.  0.
         11    1    3    3    0    0  0.23768241240E+03 -0.26983614103E+03  0.18025342442E+03  0.40223844817E+03  0.00000000000E+00 0. -1.
        -11    1    3    3    0    0  0.12480661739E+03 -0.89886608240E+02  0.27135859833E+02  0.15618146169E+03  0.00000000000E+00 0.  1.
         22    1    1    2    0    0 -0.36248902980E+03  0.35972274927E+03  0.46976652333E+03  0.69388712303E+03  0.00000000000E+00 0. -1.
<mgrwt>
<rscale>  0 0.10534386E+04</rscale>
<asrwt>0</asrwt>
<pdfrwt beam="1">  1        1 0.14842022E+00 0.10534386E+04</pdfrwt>
<pdfrwt beam="2">  1       -1 0.44242402E-01 0.10534386E+04</pdfrwt>
<totfact> 0.81450903E+01</totfact>
</mgrwt>
</event>
<event>
 6    1  0.1762360E-005  0.3127123E+04  0.7818608E-02  0.8208333E-01
         -1   -1    0    0    0  501 -0.00000000000E+00  0.00000000000E+00  0.16011067012E+04  0.16011067012E+04  0.00000000000E+00 0.  1.
          1   -1    0    0  501    0  0.00000000000E+00 -0.00000000000E+00 -0.15268966952E+04  0.15268966952E+04  0.00000000000E+00 0. -1.
         23    2    1    2    0    0  0.12284869545E+04  0.49425463826E+03 -0.79198648979E+03  0.15456746650E+04  0.91650014576E+02 0.  0.
         11    1    3    3    0    0  0.40459763267E+03  0.13861656783E+03 -0.29864619360E+03  0.52163526164E+03  0.00000000000E+00 0. -1.
        -11    1    3    3    0    0  0.82388932185E+03  0.35563807043E+03 -0.49334029619E+03  0.10240394034E+04  0.00000000000E+00 0.  1.
         22    1    1    2    0    0 -0.12284869545E+04 -0.49425463826E+03  0.86619649584E+03  0.15823287314E+04  0.00000000000E+00 0.  1.
<mgrwt>
<rscale>  0 0.31271230E+04</rscale>
<asrwt>0</asrwt>
<pdfrwt beam="1">  1        1 0.23490718E+00 0.31271230E+04</pdfrwt>
<pdfrwt beam="2">  1       -1 0.24632411E+00 0.31271230E+04</pdfrwt>
<totfact> 0.38878011E-01</totfact>
</mgrwt>
</event>
<event>
 6    1  0.1762360E-005  0.3705198E+04  0.7818608E-02  0.8066811E-01
          2   -1    0    0  501    0  0.00000000000E+00  0.00000000000E+00  0.30830019122E+04  0.30830019122E+04  0.00000000000E+00 0. -1.
         -2   -1    0    0    0  501 -0.00000000000E+00 -0.00000000000E+00 -0.11132404156E+04  0.11132404156E+04  0.00000000000E+00 0.  1.
         23    2    1    2    0    0  0.10857609214E+04 -0.10864798759E+04 -0.18522906758E+03  0.15498675185E+04  0.92001186379E+02 0.  0.
         11    1    3    3    0    0  0.45664539682E+03 -0.51553956421E+03 -0.10250507599E+03  0.69628539501E+03  0.00000000000E+00 0. -1.
        -11    1    3    3    0    0  0.62911552456E+03 -0.57094031170E+03 -0.82723991581E+02  0.85358212349E+03  0.00000000000E+00 0.  1.
         22    1    1    2    0    0 -0.10857609214E+04  0.10864798759E+04  0.21549905642E+04  0.26463748092E+04  0.00000000000E+00 0. -1.
<mgrwt>
<rscale>  0 0.37051976E+04</rscale>
<asrwt>0</asrwt>
<pdfrwt beam="1">  1        2 0.47430799E+00 0.37051976E+04</pdfrwt>
<pdfrwt beam="2">  1       -2 0.17126776E+00 0.37051976E+04</pdfrwt>
<totfact> 0.26006382E-01</totfact>
</mgrwt>
</event>
<event>
 6    1  0.1762360E-005  0.3357457E+04  0.7818608E-02  0.8148427E-01
          2   -1    0    0  501    0  0.00000000000E+00  0.00000000000E+00  0.20043089306E+04  0.20043089306E+04  0.00000000000E+00 0.  1.
         -2   -1    0    0    0  501 -0.00000000000E+00 -0.00000000000E+00 -0.14060354310E+04  0.14060354310E+04  0.00000000000E+00 0. -1.
         23    2    1    2    0    0  0.97792194116E+03 -0.12106016695E+04 -0.33669534362E+03  0.15948404473E+04  0.90909695123E+02 0.  0.
         13    1    3    3    0    0  0.12213454498E+03 -0.20070840027E+03 -0.60329076185E+02  0.24257020932E+03  0.00000000000E+00 0. -1.
        -13    1    3    3    0    0  0.85578739618E+03 -0.10098932693E+04 -0.27636626744E+03  0.13522702380E+04  0.00000000000E+00 0.  1.
         22    1    1    2    0    0 -0.97792194116E+03  0.12106016695E+04  0.93496884323E+03  0.18155039144E+04  0.00000000000E+00 0.  1.
<mgrwt>
<rscale>  0 0.33574570E+04</rscale>
<asrwt>0</asrwt>
<pdfrwt beam="1">  1        2 0.30835522E+00 0.33574570E+04</pdfrwt>
<pdfrwt beam="2">  1       -2 0.21631314E+00 0.33574570E+04</pdfrwt>
<totfact> 0.57624494E-01</totfact>
</mgrwt>
</event>
<event>
 6    1  0.1762360E-005  0.1620002E+04  0.7818608E-02  0.8808353E-01
          1   -1    0    0  501    0  0.00000000000E+00  0.00000000000E+00  0.19187131543E+04  0.19187131543E+04  0.00000000000E+00 0. -1.
         -1   -1    0    0    0  501 -0.00000000000E+00 -0.00000000000E+00 -0.34194894385E+03  0.34194894385E+03  0.00000000000E+00 0.  1.
         23    2    1    2    0    0 -0.78399634795E+03  0.28304568097E+01  0.10624071805E+04  0.13229940122E+04  0.83341791360E+02 0.  0.
         13    1    3    3    0    0 -0.13325721811E+03 -0.55343014857E+01  0.23624491905E+03  0.27129278731E+03  0.00000000000E+00 0. -1.
        -13    1    3    3    0    0 -0.65073912985E+03  0.83647582954E+01  0.82616226140E+03  0.10517012249E+04  0.00000000000E+00 0.  1.
         22    1    1    2    0    0  0.78399634795E+03 -0.28304568097E+01  0.51435703003E+03  0.93766808596E+03  0.00000000000E+00 0.  1.
<mgrwt>
<rscale>  0 0.16200024E+04</rscale>
<asrwt>0</asrwt>
<pdfrwt beam="1">  1        1 0.29518663E+00 0.16200024E+04</pdfrwt>
<pdfrwt beam="2">  1       -1 0.52607531E-01 0.16200024E+04</pdfrwt>
<totfact> 0.11805940E+01</totfact>
</mgrwt>
</event>
<event>
 6    1  0.1762360E-005  0.3872141E+04  0.7818608E-02  0.8030848E-01
         -2   -1    0    0    0  501 -0.00000000000E+00  0.00000000000E+00  0.14699715735E+04  0.14699715735E+04  0.00000000000E+00 0.  1.
          2   -1    0    0  501    0  0.00000000000E+00 -0.00000000000E+00 -0.25499605725E+04  0.25499605725E+04  0.00000000000E+00 0. -1.
         23    2    1    2    0    0 -0.50869130188E+03 -0.71874685314E+03  0.12484860208E+04  0.15305226183E+04  0.91751084604E+02 0.  0.
         11    1    3    3    0    0 -0.35046008662E+03 -0.52309099153E+03  0.95562434384E+03  0.11444056729E+04  0.00000000000E+00 0.  1.
        -11    1    3    3    0    0 -0.15823121526E+03 -0.19565586161E+03  0.29286167692E+03  0.38611694533E+03  0.00000000000E+00 0. -1.
         22    1    1    2    0    0  0.50869130188E+03  0.71874685314E+03 -0.23284750197E+04  0.24894095278E+04  0.00000000000E+00 0. -1.
<mgrwt>
<rscale>  0 0.38721413E+04</rscale>
<asrwt>0</asrwt>
<pdfrwt beam="1">  1        2 0.39230163E+00 0.38721413E+04</pdfrwt>
<pdfrwt beam="2">  1       -2 0.22614947E+00 0.38721413E+04</pdfrwt>
<totfact> 0.23455083E-01</totfact>
</mgrwt>
</event>
<event>
 6    1  0.1762360E-005  0.1473245E+04  0.7818608E-02  0.8902442E-01
         -1   -1    0    0    0  501 -0.00000000000E+00  0.00000000000E+00  0.16793555279E+04  0.16793555279E+04  0.00000000000E+00 0.  1.
          1   -1    0    0  501    0  0.00000000000E+00 -0.00000000000E+00 -0.32310777165E+03  0.32310777165E+03  0.00000000000E+00 0. -1.
         23    2    1    2    0    0  0.47289640759E+02 -0.68073905511E+03  0.10473618357E+04  0.12534289324E+04  0.92061405672E+02 0.  0.
         11    1    3    3    0    0  0.12096837239E+02 -0.36246138749E+03  0.47550909399E+03  0.59802465614E+03  0.00000000000E+00 0.  1.
        -11    1    3    3    0    0  0.35192803520E+02 -0.31827766762E+03  0.57185274172E+03  0.65540427626E+03  0.00000000000E+00 0. -1.
         22    1    1    2    0    0 -0.47289640759E+02  0.68073905511E+03  0.30888592059E+03  0.74903436718E+03  0.00000000000E+00 0. -1.
<mgrwt>
<rscale>  0 0.14732452E+04</rscale>
<asrwt>0</asrwt>
<pdfrwt beam="1">  1        1 0.49708889E-01 0.14732452E+04</pdfrwt>
<pdfrwt beam="2">  1       -1 0.25836238E+00 0.14732452E+04</pdfrwt>
<totfact> 0.47473339E+00</totfact>
</mgrwt>
</event>
<event>
 6    1  0.1891041E-005  0.3105604E+04  0.7818608E-02  0.8214202E-01
         -2   -1    0    0    0  501 -0.00000000000E+00  0.00000000000E+00  0.18919000412E+04  0.18919000412E+04  0.00000000000E+00 0.  1.
          2   -1    0    0  501    0  0.00000000000E+00 -0.00000000000E+00 -0.12744825604E+04  0.12744825604E+04  0.00000000000E+00 0. -1.
         23    2    1    2    0    0 -0.13459223339E+04  0.77023103789E+03  0.36152699277E+03  0.15946820186E+04  0.86868828509E+02 0.  0.
         13    1    3    3    0    0 -0.69617001428E+03  0.40499426549E+03  0.23191236674E+03  0.83812671459E+03  0.00000000000E+00 0.  1.
        -13    1    3    3    0    0 -0.64975231965E+03  0.36523677240E+03  0.12961462604E+03  0.75655530405E+03  0.00000000000E+00 0. -1.
         22    1    1    2    0    0  0.13459223339E+04 -0.77023103789E+03  0.25589048793E+03  0.15717005830E+04  0.00000000000E+00 0. -1.
<mgrwt>
<rscale>  0 0.31056037E+04</rscale>
<asrwt>0</asrwt>
<pdfrwt beam="1">  1        2 0.19607424E+00 0.31056037E+04</pdfrwt>
<pdfrwt beam="2">  1       -2 0.29106154E+00 0.31056037E+04</pdfrwt>
<totfact> 0.52337379E-01</totfact>
</mgrwt>
</event>
<event>
 6    1  0.1762360E-005  0.1624617E+04  0.7818608E-02  0.8805566E-01
          2   -1    0    0  501    0  0.00000000000E+00  0.00000000000E+00  0.40093874301E+04  0.40093874301E+04  0.00000000000E+00 0. -1.
         -2   -1    0    0    0  501 -0.00000000000E+00 -0.00000000000E+00 -0.16457497161E+03  0.16457497161E+03  0.00000000000E+00 0.  1.
         23    2    1    2    0    0  0.62304246019E+03 -0.33735295206E+03  0.92111462294E+03  0.11656409503E+04  0.90982168337E+02 0.  0.
         13    1    3    3    0    0  0.31407871845E+03 -0.12266587969E+03  0.40594618012E+03  0.52771645850E+03  0.00000000000E+00 0. -1.
        -13    1    3    3    0    0  0.30896374175E+03 -0.21468707237E+03  0.51516844282E+03  0.63792449179E+03  0.00000000000E+00 0.  1.
         22    1    1    2    0    0 -0.62304246019E+03  0.33735295206E+03  0.29236978356E+04  0.30083214515E+04  0.00000000000E+00 0. -1.
<mgrwt>
<rscale>  0 0.16246167E+04</rscale>
<asrwt>0</asrwt>
<pdfrwt beam="1">  1        2 0.61682876E+00 0.16246167E+04</pdfrwt>
<pdfrwt beam="2">  1       -2 0.25319229E-01 0.16246167E+04</pdfrwt>
<totfact> 0.46002174E+00</totfact>
</mgrwt>
</event>
<event>
 6    1  0.1762360E-005  0.1741847E+04  0.7818608E-02  0.8737851E-01
          2   -1    0    0  501    0  0.00000000000E+00  0.00000000000E+00  0.14433302435E+04  0.14433302435E+04  0.00000000000E+00 0. -1.
         -2   -1    0    0    0  501 -0.00000000000E+00 -0.00000000000E+00 -0.52552604200E+03  0.52552604200E+03  0.00000000000E+00 0.  1.
         23    2    1    2    0    0  0.22307188910E+03  0.83883630916E+03  0.49450177278E+03  0.10031480648E+04  0.91469204818E+02 0.  0.
         13    1    3    3    0    0  0.15644259923E+03  0.58265154877E+03  0.39105856065E+03  0.71894639021E+03  0.00000000000E+00 0. -1.
        -13    1    3    3    0    0  0.66629289873E+02  0.25618476038E+03  0.10344321213E+03  0.28420167462E+03  0.00000000000E+00 0.  1.
         22    1    1    2    0    0 -0.22307188910E+03 -0.83883630916E+03  0.42330242869E+03  0.96570822063E+03  0.00000000000E+00 0.  1.
<mgrwt>
<rscale>  0 0.17418469E+04</rscale>
<asrwt>0</asrwt>
<pdfrwt beam="1">  1        2 0.22205081E+00 0.17418469E+04</pdfrwt>
<pdfrwt beam="2">  1       -2 0.80850161E-01 0.17418469E+04</pdfrwt>
<totfact> 0.17498696E+01</totfact>
</mgrwt>
</event>
<event>
 6    1  0.1762360E-005  0.2794699E+04  0.7818608E-02  0.8304916E-01
         -1   -1    0    0    0  501 -0.00000000000E+00  0.00000000000E+00  0.10575483264E+04  0.10575483264E+04  0.00000000000E+00 0.  1.
          1   -1    0    0  501    0  0.00000000000E+00 -0.00000000000E+00 -0.18463319749E+04  0.18463319749E+04  0.00000000000E+00 0. -1.
         23    2    1    2    0    0  0.13320396463E+04  0.16770852082E+02 -0.82865811635E+03  0.15711384456E+04  0.84798943007E+02 0.  0.
         11    1    3    3    0    0  0.79627221782E+03  0.50635708910E+02 -0.50586004708E+03  0.94472631334E+03  0.00000000000E+00 0. -1.
        -11    1    3    3    0    0  0.53576742844E+03 -0.33864856828E+02 -0.32279806927E+03  0.62641213225E+03  0.00000000000E+00 0.  1.
         22    1    1    2    0    0 -0.13320396463E+04 -0.16770852082E+02  0.39874467864E+02  0.13327418557E+04  0.00000000000E+00 0.  1.
<mgrwt>
<rscale>  0 0.27946988E+04</rscale>
<asrwt>0</asrwt>
<pdfrwt beam="1">  1        1 0.28405107E+00 0.27946988E+04</pdfrwt>
<pdfrwt beam="2">  1       -1 0.16269974E+00 0.27946988E+04</pdfrwt>
<totfact> 0.91506984E-01</totfact>
</mgrwt>
</event>
<event>
 6    1  0.1762360E-005  0.1565531E+04  0.7818608E-02  0.8842008E-01
          1   -1    0    0  501    0  0.00000000000E+00  0.00000000000E+00  0.78646530808E+03  0.78646530808E+03  0.00000000000E+00 0. -1.
         -1   -1    0    0    0  501 -0.00000000000E+00 -0.00000000000E+00 -0.77908278988E+03  0.77908278988E+03  0.00000000000E+00 0.  1.
         23    2    1    2    0    0 -0.69619513661E+03 -0.31442713381E+03  0.16158370576E+03  0.78623423502E+03  0.92211103639E+02 0.  0.
         11    1    3    3    0    0 -0.49948023565E+03 -0.18311081737E+03  0.12977370511E+03  0.54758678927E+03  0.00000000000E+00 0. -1.
        -11    1    3    3    0    0 -0.19671490096E+03 -0.13131631644E+03  0.31810000653E+02  0.23864744575E+03  0.00000000000E+00 0.  1.
         22    1    1    2    0    0  0.69619513661E+03  0.31442713381E+03 -0.15420118755E+03  0.77931386293E+03  0.00000000000E+00 0. -1.
<mgrwt>
<rscale>  0 0.15655307E+04</rscale>
<asrwt>0</asrwt>
<pdfrwt beam="1">  1        1 0.12099466E+00 0.15655307E+04</pdfrwt>
<pdfrwt beam="2">  1       -1 0.11985889E+00 0.15655307E+04</pdfrwt>
<totfact> 0.13578783E+01</totfact>
</mgrwt>
</event>
<event>
 6    1  0.1762360E-005  0.1712954E+04  0.7818608E-02  0.8754010E-01
         -1   -1    0    0    0  501 -0.00000000000E+00  0.00000000000E+00  0.12006586542E+04  0.12006586542E+04  0.00000000000E+00 0.  1.
          1   -1    0    0  501    0  0.00000000000E+00 -0.00000000000E+00 -0.61095882698E+03  0.61095882698E+03  0.00000000000E+00 0. -1.
         23    2    1    2    0    0 -0.85690380963E+02 -0.24065418748E+03  0.11576625538E+04  0.11888503192E+04  0.89023669212E+02 0.  0.
         11    1    3    3    0    0  0.61395306628E+01 -0.53388570939E+00  0.10758453605E+03  0.10776089860E+03  0.00000000000E+00 0. -1.
        -11    1    3    3    0    0 -0.91829911626E+02 -0.24012030177E+03  0.10500780177E+04  0.10810894206E+04  0.00000000000E+00 0.  1.
         22    1    1    2    0    0  0.85690380963E+02  0.24065418748E+03 -0.56796272654E+03  0.62276716201E+03  0.00000000000E+00 0. -1.
<mgrwt>
<rscale>  0 0.17129542E+04</rscale>
<asrwt>0</asrwt>
<pdfrwt beam="1">  1        1 0.93993666E-01 0.17129542E+04</pdfrwt>
<pdfrwt beam="2">  1       -1 0.18471672E+00 0.17129542E+04</pdfrwt>
<totfact> 0.61055306E+00</totfact>
</mgrwt>
</event>
<event>
 6    1  0.1762360E-005  0.8838656E+03  0.7818608E-02  0.9445978E-01
          1   -1    0    0  501    0  0.00000000000E+00  0.00000000000E+00  0.19766156408E+04  0.19766156408E+04  0.00000000000E+00 0. -1.
         -1   -1    0    0    0  501 -0.00000000000E+00 -0.00000000000E+00 -0.98807584484E+02  0.98807584484E+02  0.00000000000E+00 0.  1.
         23    2    1    2    0    0  0.44858357124E+02 -0.49197955587E+02  0.19636982291E+04  0.19667501705E+04  0.86964285221E+02 0.  0.
         11    1    3    3    0    0  0.62825623375E+02 -0.40646541639E+02  0.98069622691E+03  0.98354679084E+03  0.00000000000E+00 0. -1.
        -11    1    3    3    0    0 -0.17967266251E+02 -0.85514139487E+01  0.98300200223E+03  0.98320337963E+03  0.00000000000E+00 0.  1.
         22    1    1    2    0    0 -0.44858357124E+02  0.49197955587E+02 -0.85890172864E+02  0.10867305477E+03  0.00000000000E+00 0.  1.
<mgrwt>
<rscale>  0 0.88386564E+03</rscale>
<asrwt>0</asrwt>
<pdfrwt beam="1">  1        1 0.30409468E+00 0.88386564E+03</pdfrwt>
<pdfrwt beam="2">  1       -1 0.15201168E-01 0.88386564E+03</pdfrwt>
<totfact> 0.10119964E+02</totfact>
</mgrwt>
</event>
<event>
 6    1  0.1762360E-005  0.1609181E+04  0.7818608E-02  0.8814928E-01
          2   -1    0    0  501    0  0.00000000000E+00  0.00000000000E+00  0.14365431882E+04  0.14365431882E+04  0.00000000000E+00 0. -1.
         -2   -1    0    0    0  501 -0.00000000000E+00 -0.00000000000E+00 -0.45064144084E+03  0.45064144084E+03  0.00000000000E+00 0.  1.
         23    2    1    2    0    0 -0.54663670184E+03 -0.58319205361E+03  0.41736824249E+03  0.90628962886E+03  0.90774370579E+02 0.  0.
         11    1    3    3    0    0 -0.39676721008E+03 -0.47868349437E+03  0.32030119012E+03  0.69939613894E+03  0.00000000000E+00 0. -1.
        -11    1    3    3    0    0 -0.14986949177E+03 -0.10450855923E+03  0.97067052372E+02  0.20689348992E+03  0.00000000000E+00 0.  1.
         22    1    1    2    0    0  0.54663670184E+03  0.58319205361E+03  0.56853350483E+03  0.98089500015E+03  0.00000000000E+00 0. -1.
<mgrwt>
<rscale>  0 0.16091810E+04</rscale>
<asrwt>0</asrwt>
<pdfrwt beam="1">  1        2 0.22100664E+00 0.16091810E+04</pdfrwt>
<pdfrwt beam="2">  1       -2 0.69329453E-01 0.16091810E+04</pdfrwt>
<totfact> 0.25087579E+01</totfact>
</mgrwt>
</event>
<event>
 6    1  0.1762360E-005  0.1281996E+04  0.7818608E-02  0.9043966E-01
         -2   -1    0    0    0  501 -0.00000000000E+00  0.00000000000E+00  0.13199954243E+03  0.13199954243E+03  0.00000000000E+00 0.  1.
          2   -1    0    0  501    0  0.00000000000E+00 -0.00000000000E+00 -0.31127242315E+04  0.31127242315E+04  0.00000000000E+00 0. -1.
         23    2    1    2    0    0  0.54245807905E+03 -0.27776852291E+03 -0.19730917287E+04  0.20671243927E+04  0.92174645093E+02 0.  0.
         11    1    3    3    0    0  0.33506574523E+03 -0.20250515347E+03 -0.13744083488E+04  0.14290821180E+04  0.00000000000E+00 0.  1.
        -11    1    3    3    0    0  0.20739233382E+03 -0.75263369432E+02 -0.59868337985E+03  0.63804227463E+03  0.00000000000E+00 0. -1.
         22    1    1    2    0    0 -0.54245807905E+03  0.27776852291E+03 -0.10076329604E+04  0.11775993812E+04  0.00000000000E+00 0.  1.
<mgrwt>
<rscale>  0 0.12819956E+04</rscale>
<asrwt>0</asrwt>
<pdfrwt beam="1">  1        2 0.47888062E+00 0.12819956E+04</pdfrwt>
<pdfrwt beam="2">  1       -2 0.20307623E-01 0.12819956E+04</pdfrwt>
<totfact> 0.30579066E+01</totfact>
</mgrwt>
</event>
<event>
 6    1  0.1762360E-005  0.3834906E+04  0.7818608E-02  0.8038705E-01
          1   -1    0    0  501    0  0.00000000000E+00  0.00000000000E+00  0.28860418631E+04  0.28860418631E+04  0.00000000000E+00 0. -1.
         -1   -1    0    0    0  501 -0.00000000000E+00 -0.00000000000E+00 -0.12739336897E+04  0.12739336897E+04  0.00000000000E+00 0.  1.
         23    2    1    2    0    0 -0.51838228644E+03 -0.16644202613E+04  0.16697138571E+04  0.24157469508E+04  0.94201723101E+02 0.  0.
         13    1    3    3    0    0 -0.20617952172E+03 -0.55043320666E+03  0.60396262473E+03  0.84276779853E+03  0.00000000000E+00 0.  1.
        -13    1    3    3    0    0 -0.31220276472E+03 -0.11139870547E+04  0.10657512324E+04  0.15729791523E+04  0.00000000000E+00 0. -1.
         22    1    1    2    0    0  0.51838228644E+03  0.16644202613E+04 -0.57605683677E+02  0.17442286020E+04  0.00000000000E+00 0.  1.
<mgrwt>
<rscale>  0 0.38349060E+04</rscale>
<asrwt>0</asrwt>
<pdfrwt beam="1">  1        1 0.44400644E+00 0.38349060E+04</pdfrwt>
<pdfrwt beam="2">  1       -1 0.19598980E+00 0.38349060E+04</pdfrwt>
<totfact> 0.92000601E-02</totfact>
</mgrwt>
</event>
<event>
 6    1  0.2051904E-005  0.2338451E+04  0.7818608E-02  0.8462913E-01
          2   -1    0    0  501    0  0.00000000000E+00  0.00000000000E+00  0.23282197001E+04  0.23282197001E+04  0.00000000000E+00 0.  1.
         -2   -1    0    0    0  501 -0.00000000000E+00 -0.00000000000E+00 -0.58718181118E+03  0.58718181118E+03  0.00000000000E+00 0. -1.
         23    2    1    2    0    0  0.11607319219E+04  0.78098783652E+01  0.10273400656E+04  0.15527848478E+04  0.91397944903E+02 0.  0.
         13    1    3    3    0    0  0.41763533374E+03 -0.12423441421E+02  0.31556575071E+03  0.52359846916E+03  0.00000000000E+00 0. -1.
        -13    1    3    3    0    0  0.74309658817E+03  0.20233319786E+02  0.71177431488E+03  0.10291863786E+04  0.00000000000E+00 0.  1.
         22    1    1    2    0    0 -0.11607319219E+04 -0.78098783652E+01  0.71369782337E+03  0.13626166636E+04  0.00000000000E+00 0. -1.
<mgrwt>
<rscale>  0 0.23384510E+04</rscale>
<asrwt>0</asrwt>
<pdfrwt beam="1">  1        2 0.35818764E+00 0.23384510E+04</pdfrwt>
<pdfrwt beam="2">  1       -2 0.90335664E-01 0.23384510E+04</pdfrwt>
<totfact> 0.41367854E+00</totfact>
</mgrwt>
</event>
<event>
 6    1  0.1762360E-005  0.9069697E+03  0.7818608E-02  0.9416911E-01
          2   -1    0    0  501    0  0.00000000000E+00  0.00000000000E+00  0.26551148218E+03  0.26551148218E+03  0.00000000000E+00 0. -1.
         -2   -1    0    0    0  501 -0.00000000000E+00 -0.00000000000E+00 -0.77453720994E+03  0.77453720994E+03  0.00000000000E+00 0.  1.
         23    2    1    2    0    0 -0.56289067177E+02  0.28596335348E+03  0.13361785388E+03  0.33440411328E+03  0.95020426668E+02 0.  0.
         11    1    3    3    0    0 -0.37108411107E+02  0.22571142618E+03  0.58282958718E+02  0.23604996370E+03  0.00000000000E+00 0. -1.
        -11    1    3    3    0    0 -0.19180656070E+02  0.60251927296E+02  0.75334895166E+02  0.98354149581E+02  0.00000000000E+00 0.  1.
         22    1    1    2    0    0  0.56289067177E+02 -0.28596335348E+03 -0.64264358165E+03  0.70564457884E+03  0.00000000000E+00 0.  1.
<mgrwt>
<rscale>  0 0.90696973E+03</rscale>
<asrwt>0</asrwt>
<pdfrwt beam="1">  1        2 0.40847919E-01 0.90696973E+03</pdfrwt>
<pdfrwt beam="2">  1       -2 0.11915957E+00 0.90696973E+03</pdfrwt>
<totfact> 0.68159713E+01</totfact>
</mgrwt>
</event>
<event>
 6    1  0.1762360E-005  0.1190065E+04  0.7818608E-02  0.9121597E-01
         -1   -1    0    0    0  501 -0.00000000000E+00  0.00000000000E+00  0.27652849018E+03  0.27652849018E+03  0.00000000000E+00 0.  1.
          1   -1    0    0  501    0  0.00000000000E+00 -0.00000000000E+00 -0.12803882146E+04  0.12803882146E+04  0.00000000000E+00 0. -1.
         23    2    1    2    0    0 -0.99793087997E+02 -0.16654748621E+03 -0.12365465427E+04  0.12538657503E+04  0.73724092078E+02 0.  0.
         13    1    3    3    0    0 -0.36980521260E+02 -0.12448534855E+03 -0.86644055663E+03  0.87611837051E+03  0.00000000000E+00 0.  1.
        -13    1    3    3    0    0 -0.62812566737E+02 -0.42062137662E+02 -0.37010598609E+03  0.37774737975E+03  0.00000000000E+00 0. -1.
         22    1    1    2    0    0  0.99793087997E+02  0.16654748621E+03  0.23268681836E+03  0.30305095448E+03  0.00000000000E+00 0.  1.
<mgrwt>
<rscale>  0 0.11900652E+04</rscale>
<asrwt>0</asrwt>
<pdfrwt beam="1">  1        1 0.19698280E+00 0.11900652E+04</pdfrwt>
<pdfrwt beam="2">  1       -1 0.42542844E-01 0.11900652E+04</pdfrwt>
<totfact> 0.50290471E+01</totfact>
</mgrwt>
</event>
<event>
 6    1  0.1762360E-005  0.1673086E+04  0.7818608E-02  0.8776865E-01
         -2   -1    0    0    0  501 -0.00000000000E+00  0.00000000000E+00  0.23985190639E+03  0.23985190639E+03  0.00000000000E+00 0.  1.
          2   -1    0    0  501    0  0.00000000000E+00 -0.00000000000E+00 -0.29176515530E+04  0.29176515530E+04  0.00000000000E+00 0. -1.
         23    2    1    2    0    0 -0.75214273036E+03  0.33441102805E+03 -0.15973556358E+04  0.17992293034E+04  0.90175585620E+02 0.  0.
         13    1    3    3    0    0 -0.35658819738E+03  0.15212128681E+03 -0.65581887195E+03  0.76183621679E+03  0.00000000000E+00 0.  1.
        -13    1    3    3    0    0 -0.39555453298E+03  0.18228974124E+03 -0.94153676388E+03  0.10373930866E+04  0.00000000000E+00 0. -1.
         22    1    1    2    0    0  0.75214273036E+03 -0.33441102805E+03 -0.10804440108E+04  0.13582741561E+04  0.00000000000E+00 0.  1.
<mgrwt>
<rscale>  0 0.16730861E+04</rscale>
<asrwt>0</asrwt>
<pdfrwt beam="1">  1        2 0.44886947E+00 0.16730861E+04</pdfrwt>
<pdfrwt beam="2">  1       -2 0.36900293E-01 0.16730861E+04</pdfrwt>
<totfact> 0.12985842E+01</totfact>
</mgrwt>
</event>
<event>
 6    1  0.1762360E-005  0.2256915E+04  0.7818608E-02  0.8495105E-01
          1   -1    0    0  501    0  0.00000000000E+00  0.00000000000E+00  0.24970783499E+04  0.24970783499E+04  0.00000000000E+00 0. -1.
         -1   -1    0    0    0  501 -0.00000000000E+00 -0.00000000000E+00 -0.50996267962E+03  0.50996267962E+03  0.00000000000E+00 0.  1.
         23    2    1    2    0    0  0.47729080609E+03  0.10169789236E+04  0.11077572355E+04  0.15803932448E+04  0.92000385112E+02 0.  0.
         13    1    3    3    0    0  0.62757455668E+02  0.22062311883E+03  0.22814022718E+03  0.32351355777E+03  0.00000000000E+00 0. -1.
        -13    1    3    3    0    0  0.41453335042E+03  0.79635580481E+03  0.87961700828E+03  0.12568796871E+04  0.00000000000E+00 0.  1.
         22    1    1    2    0    0 -0.47729080609E+03 -0.10169789236E+04  0.87935843482E+03  0.14266477847E+04  0.00000000000E+00 0. -1.
<mgrwt>
<rscale>  0 0.22569154E+04</rscale>
<asrwt>0</asrwt>
<pdfrwt beam="1">  1        1 0.38416589E+00 0.22569154E+04</pdfrwt>
<pdfrwt beam="2">  1       -1 0.78455799E-01 0.22569154E+04</pdfrwt>
<totfact> 0.20076384E+00</totfact>
</mgrwt>
</event>
<event>
 6    1  0.1762360E-005  0.4347615E+03  0.7818608E-02  0.1032366E+00
         -1   -1    0    0    0  501 -0.00000000000E+00  0.00000000000E+00  0.13158521690E+03  0.13158521690E+03  0.00000000000E+00 0.  1.
          1   -1    0    0  501    0  0.00000000000E+00 -0.00000000000E+00 -0.35911623282E+03  0.35911623282E+03  0.00000000000E+00 0. -1.
         23    2    1    2    0    0  0.92068216831E+02 -0.18603051224E+03 -0.13273603214E+03  0.26251293777E+03  0.90610596719E+02 0.  0.
         13    1    3    3    0    0  0.89702034745E+02 -0.84192766200E+02 -0.87997523176E+02  0.15125620980E+03  0.00000000000E+00 0. -1.
        -13    1    3    3    0    0  0.23661820855E+01 -0.10183774604E+03 -0.44738508960E+02  0.11125672797E+03  0.00000000000E+00 0.  1.
         22    1    1    2    0    0 -0.92068216831E+02  0.18603051224E+03 -0.94794983783E+02  0.22818851194E+03  0.00000000000E+00 0. -1.
<mgrwt>
<rscale>  0 0.43476149E+03</rscale>
<asrwt>0</asrwt>
<pdfrwt beam="1">  1        1 0.55248650E-01 0.43476149E+03</pdfrwt>
<pdfrwt beam="2">  1       -1 0.20243880E-01 0.43476149E+03</pdfrwt>
<totfact> 0.13826556E+03</totfact>
</mgrwt>
</event>
<event>
 6    1  0.1762360E-005  0.1450950E+04  0.7818608E-02  0.8917742E-01
         -2   -1    0    0    0  501 -0.00000000000E+00  0.00000000000E+00  0.64516758069E+03  0.64516758069E+03  0.00000000000E+00 0. -1.
          2   -1    0    0  501    0  0.00000000000E+00 -0.00000000000E+00 -0.81577855565E+03  0.81577855565E+03  0.00000000000E+00 0.  1.
         23    2    1    2    0    0  0.40459574361E+03 -0.55984619933E+03  0.12928850958E+03  0.70790883084E+03  0.85404399257E+02 0.  0.
         11    1    3    3    0    0  0.20757046740E+03 -0.34510663368E+03  0.49491117150E+02  0.40575048764E+03  0.00000000000E+00 0. -1.
        -11    1    3    3    0    0  0.19702527621E+03 -0.21473956566E+03  0.79797392425E+02  0.30215834320E+03  0.00000000000E+00 0.  1.
         22    1    1    2    0    0 -0.40459574361E+03  0.55984619933E+03 -0.29989948453E+03  0.75303730550E+03  0.00000000000E+00 0.  1.
<mgrwt>
<rscale>  0 0.14509499E+04</rscale>
<asrwt>0</asrwt>
<pdfrwt beam="1">  1        2 0.12550439E+00 0.14509499E+04</pdfrwt>
<pdfrwt beam="2">  1       -2 0.99256550E-01 0.14509499E+04</pdfrwt>
<totfact> 0.27364340E+01</totfact>
</mgrwt>
</event>
<event>
 6    1  0.1762360E-005  0.2351820E+04  0.7818608E-02  0.8457765E-01
         -2   -1    0    0    0  501 -0.00000000000E+00  0.00000000000E+00  0.10250708014E+04  0.10250708014E+04  0.00000000000E+00 0. -1.
          2   -1    0    0  501    0  0.00000000000E+00 -0.00000000000E+00 -0.13489452967E+04  0.13489452967E+04  0.00000000000E+00 0.  1.
         23    2    1    2    0    0  0.75804214673E+03  0.28679826651E+03  0.69565897815E+03  0.10715838943E+04  0.86426193077E+02 0.  0.
         11    1    3    3    0    0  0.21474708528E+03  0.95763497814E+02  0.15471282416E+03  0.28146583471E+03  0.00000000000E+00 0. -1.
        -11    1    3    3    0    0  0.54329506144E+03  0.19103476870E+03  0.54094615399E+03  0.79011805963E+03  0.00000000000E+00 0.  1.
         22    1    1    2    0    0 -0.75804214673E+03 -0.28679826651E+03 -0.10195334735E+04  0.13024322038E+04  0.00000000000E+00 0.  1.
<mgrwt>
<rscale>  0 0.23518201E+04</rscale>
<asrwt>0</asrwt>
<pdfrwt beam="1">  1        2 0.20753005E+00 0.23518201E+04</pdfrwt>
<pdfrwt beam="2">  1       -2 0.15770320E+00 0.23518201E+04</pdfrwt>
<totfact> 0.36626939E+00</totfact>
</mgrwt>
</event>
<event>
 6    1  0.1762360E-005  0.1836029E+04  0.7818608E-02  0.8687371E-01
          1   -1    0    0  501    0  0.00000000000E+00  0.00000000000E+00  0.87090207330E+03  0.87090207330E+03  0.00000000000E+00 0. -1.
         -1   -1    0    0    0  501 -0.00000000000E+00 -0.00000000000E+00 -0.96767503477E+03  0.96767503477E+03  0.00000000000E+00 0.  1.
         23    2    1    2    0    0 -0.53943003681E+03 -0.36955289654E+03  0.59379584781E+03  0.88755692516E+03  0.87233471558E+02 0.  0.
         11    1    3    3    0    0 -0.45352712839E+03 -0.30806412029E+03  0.53778000837E+03  0.76798287468E+03  0.00000000000E+00 0. -1.
        -11    1    3    3    0    0 -0.85902908417E+02 -0.61488776249E+02  0.56015839445E+02  0.11957405048E+03  0.00000000000E+00 0.  1.
         22    1    1    2    0    0  0.53943003681E+03  0.36955289654E+03 -0.69056880928E+03  0.95102018291E+03  0.00000000000E+00 0.  1.
<mgrwt>
<rscale>  0 0.18360285E+04</rscale>
<asrwt>0</asrwt>
<pdfrwt beam="1">  1        1 0.13398493E+00 0.18360285E+04</pdfrwt>
<pdfrwt beam="2">  1       -1 0.14887308E+00 0.18360285E+04</pdfrwt>
<totfact> 0.64432353E+00</totfact>
</mgrwt>
</event>
<event>
 6    1  0.1762360E-005  0.1585452E+04  0.7818608E-02  0.8829535E-01
          2   -1    0    0  501    0  0.00000000000E+00  0.00000000000E+00  0.89427983530E+03  0.89427983530E+03  0.00000000000E+00 0. -1.
         -2   -1    0    0    0  501 -0.00000000000E+00 -0.00000000000E+00 -0.70270498973E+03  0.70270498973E+03  0.00000000000E+00 0.  1.
         23    2    1    2    0    0  0.15391173128E+03  0.67981366307E+02 -0.68148639525E+03  0.70785816510E+03  0.91264384049E+02 0.  0.
         13    1    3    3    0    0  0.56538075923E+02  0.74762872004E+02 -0.32420914175E+03  0.33748719776E+03  0.00000000000E+00 0. -1.
        -13    1    3    3    0    0  0.97373655362E+02 -0.67815056961E+01 -0.35727725350E+03  0.37037096734E+03  0.00000000000E+00 0.  1.
         22    1    1    2    0    0 -0.15391173128E+03 -0.67981366307E+02  0.87306124082E+03  0.88912665994E+03  0.00000000000E+00 0. -1.
<mgrwt>
<rscale>  0 0.15854525E+04</rscale>
<asrwt>0</asrwt>
<pdfrwt beam="1">  1        2 0.13758151E+00 0.15854525E+04</pdfrwt>
<pdfrwt beam="2">  1       -2 0.10810846E+00 0.15854525E+04</pdfrwt>
<totfact> 0.19462748E+01</totfact>
</mgrwt>
</event>
<event>
 6    1  0.1762360E-005  0.1456718E+04  0.7818608E-02  0.8913756E-01
          2   -1    0    0  501    0  0.00000000000E+00  0.00000000000E+00  0.24015573942E+04  0.24015573942E+04  0.00000000000E+00 0. -1.
         -2   -1    0    0    0  501 -0.00000000000E+00 -0.00000000000E+00 -0.22090128193E+03  0.22090128193E+03  0.00000000000E+00 0.  1.
         23    2    1    2    0    0 -0.63707912776E+03  0.15491208359E+03  0.16535834051E+04  0.17812255293E+04  0.92513458606E+02 0.  0.
         11    1    3    3    0    0 -0.80686141357E+02  0.50867995106E+02  0.26889854851E+03  0.28531427536E+03  0.00000000000E+00 0.  1.
        -11    1    3    3    0    0 -0.55639298640E+03  0.10404408848E+03  0.13846848566E+04  0.14959112540E+04  0.00000000000E+00 0. -1.
         22    1    1    2    0    0  0.63707912776E+03 -0.15491208359E+03  0.52707270720E+03  0.84123314684E+03  0.00000000000E+00 0.  1.
<mgrwt>
<rscale>  0 0.14567184E+04</rscale>
<asrwt>0</asrwt>
<pdfrwt beam="1">  1        2 0.36947035E+00 0.14567184E+04</pdfrwt>
<pdfrwt beam="2">  1       -2 0.33984814E-01 0.14567184E+04</pdfrwt>
<totfact> 0.31240828E+01</totfact>
</mgrwt>
</event>
<event>
 6    1  0.1762360E-005  0.1592042E+04  0.7818608E-02  0.8825452E-01
          2   -1    0    0  501    0  0.00000000000E+00  0.00000000000E+00  0.32685720310E+04  0.32685720310E+04  0.00000000000E+00 0. -1.
         -2   -1    0    0    0  501 -0.00000000000E+00 -0.00000000000E+00 -0.19386113184E+03  0.19386113184E+03  0.00000000000E+00 0.  1.
         23    2    1    2    0    0  0.44186733887E+03  0.51325302978E+03  0.64308487743E+03  0.93825398393E+03  0.89927532159E+02 0.  0.
         11    1    3    3    0    0  0.24438745671E+03  0.25631593809E+03  0.27906697939E+03  0.45088964071E+03  0.00000000000E+00 0.  1.
        -11    1    3    3    0    0  0.19747988215E+03  0.25693709169E+03  0.36401789804E+03  0.48736434321E+03  0.00000000000E+00 0. -1.
         22    1    1    2    0    0 -0.44186733887E+03 -0.51325302978E+03  0.24316260217E+04  0.25241791789E+04  0.00000000000E+00 0. -1.
<mgrwt>
<rscale>  0 0.15920415E+04</rscale>
<asrwt>0</asrwt>
<pdfrwt beam="1">  1        2 0.50285719E+00 0.15920415E+04</pdfrwt>
<pdfrwt beam="2">  1       -2 0.29824792E-01 0.15920415E+04</pdfrwt>
<totfact> 0.11731787E+01</totfact>
</mgrwt>
</event>
<event>
 6    1  0.1762360E-005  0.4944279E+04  0.7818608E-02  0.7837161E-01
         -2   -1    0    0    0  501 -0.00000000000E+00  0.00000000000E+00  0.30074419569E+04  0.30074419569E+04  0.00000000000E+00 0.  1.
          2   -1    0    0  501    0  0.00000000000E+00 -0.00000000000E+00 -0.20321173145E+04  0.20321173145E+04  0.00000000000E+00 0. -1.
         23    2    1    2    0    0  0.24513901631E+04  0.27801002672E+03  0.34048902247E+03  0.24920860976E+04  0.89202223451E+02 0.  0.
         11    1    3    3    0    0  0.19686489483E+04  0.20872922306E+03  0.30584996051E+03  0.20031701797E+04  0.00000000000E+00 0. -1.
        -11    1    3    3    0    0  0.48274121480E+03  0.69280803661E+02  0.34639061959E+02  0.48891591797E+03  0.00000000000E+00 0.  1.
         22    1    1    2    0    0 -0.24513901631E+04 -0.27801002672E+03  0.63483561992E+03  0.25474731738E+04  0.00000000000E+00 0.  1.
<mgrwt>
<rscale>  0 0.49442795E+04</rscale>
<asrwt>0</asrwt>
<pdfrwt beam="1">  1        2 0.31263343E+00 0.49442795E+04</pdfrwt>
<pdfrwt beam="2">  1       -2 0.46268338E+00 0.49442795E+04</pdfrwt>
<totfact> 0.13469004E-02</totfact>
</mgrwt>
</event>
<event>
 6    1  0.1762360E-005  0.1897145E+04  0.7818608E-02  0.8656279E-01
         -1   -1    0    0    0  501 -0.00000000000E+00  0.00000000000E+00  0.59383351188E+03  0.59383351188E+03  0.00000000000E+00 0.  1.
          1   -1    0    0  501    0  0.00000000000E+00 -0.00000000000E+00 -0.15152224128E+04  0.15152224128E+04  0.00000000000E+00 0. -1.
         23    2    1    2    0    0 -0.92498622550E+03  0.78577961319E+02 -0.25705560054E+03  0.96751628569E+03  0.90753335625E+02 0.  0.
         13    1    3    3    0    0 -0.28912838679E+03  0.43136257688E+02 -0.41942117344E+02  0.29532203098E+03  0.00000000000E+00 0. -1.
        -13    1    3    3    0    0 -0.63585783872E+03  0.35441703631E+02 -0.21511348320E+03  0.67219425471E+03  0.00000000000E+00 0.  1.
         22    1    1    2    0    0  0.92498622550E+03 -0.78577961319E+02 -0.66433330037E+03  0.11415396390E+04  0.00000000000E+00 0. -1.
<mgrwt>
<rscale>  0 0.18971451E+04</rscale>
<asrwt>0</asrwt>
<pdfrwt beam="1">  1        1 0.23311113E+00 0.18971451E+04</pdfrwt>
<pdfrwt beam="2">  1       -1 0.91359004E-01 0.18971451E+04</pdfrwt>
<totfact> 0.69813774E+00</totfact>
</mgrwt>
</event>
<event>
 6    1  0.1762360E-005  0.2547070E+04  0.7818608E-02  0.8386406E-01
         -2   -1    0    0    0  501 -0.00000000000E+00  0.00000000000E+00  0.74934938183E+03  0.74934938183E+03  0.00000000000E+00 0.  1.
          2   -1    0    0  501    0  0.00000000000E+00 -0.00000000000E+00 -0.21643989971E+04  0.21643989971E+04  0.00000000000E+00 0. -1.
         23    2    1    2    0    0  0.26204177365E+03  0.23062823026E+03  0.69065214528E+03  0.77930813003E+03  0.92008173664E+02 0.  0.
         13    1    3    3    0    0  0.52635809794E+02  0.85004384903E+02  0.26307395633E+03  0.28143237274E+03  0.00000000000E+00 0. -1.
        -13    1    3    3    0    0  0.20940596385E+03  0.14562384536E+03  0.42757818896E+03  0.49787575730E+03  0.00000000000E+00 0.  1.
         22    1    1    2    0    0 -0.26204177365E+03 -0.23062823026E+03 -0.21057017606E+04  0.21344402489E+04  0.00000000000E+00 0. -1.
<mgrwt>
<rscale>  0 0.25470697E+04</rscale>
<asrwt>0</asrwt>
<pdfrwt beam="1">  1        2 0.33298446E+00 0.25470697E+04</pdfrwt>
<pdfrwt beam="2">  1       -2 0.11528452E+00 0.25470697E+04</pdfrwt>
<totfact> 0.28154151E+00</totfact>
</mgrwt>
</event>
<event>
 6    1  0.1762360E-005  0.1840596E+04  0.7818608E-02  0.8685004E-01
         -2   -1    0    0    0  501 -0.00000000000E+00  0.00000000000E+00  0.37225839379E+03  0.37225839379E+03  0.00000000000E+00 0.  1.
          2   -1    0    0  501    0  0.00000000000E+00 -0.00000000000E+00 -0.22751621197E+04  0.22751621197E+04  0.00000000000E+00 0. -1.
         23    2    1    2    0    0 -0.70169118811E+03 -0.11144976636E+02 -0.18051020180E+04  0.19388586545E+04  0.91021164958E+02 0.  0.
         11    1    3    3    0    0 -0.43933726269E+03  0.59628882454E+01 -0.10104854368E+04  0.11018773091E+04  0.00000000000E+00 0. -1.
        -11    1    3    3    0    0 -0.26235392542E+03 -0.17107864882E+02 -0.79461658126E+03  0.83698134534E+03  0.00000000000E+00 0.  1.
         22    1    1    2    0    0  0.70169118811E+03  0.11144976636E+02 -0.97801707856E+02  0.70856185901E+03  0.00000000000E+00 0.  1.
<mgrwt>
<rscale>  0 0.18405958E+04</rscale>
<asrwt>0</asrwt>
<pdfrwt beam="1">  1        2 0.35002494E+00 0.18405958E+04</pdfrwt>
<pdfrwt beam="2">  1       -2 0.57270522E-01 0.18405958E+04</pdfrwt>
<totfact> 0.12594487E+01</totfact>
</mgrwt>
</event>
<event>
 6    1  0.1762360E-005  0.2848402E+04  0.7818608E-02  0.8288397E-01
          2   -1    0    0  501    0  0.00000000000E+00  0.00000000000E+00  0.34191012025E+04  0.34191012025E+04  0.00000000000E+00 0. -1.
         -2   -1    0    0    0  501 -0.00000000000E+00 -0.00000000000E+00 -0.59324038605E+03  0.59324038605E+03  0.00000000000E+00 0.  1.
         23    2    1    2    0    0  0.51546210907E+03  0.38809442736E+03  0.32005760083E+04  0.32661982073E+04  0.89696567035E+02 0.  0.
         13    1    3    3    0    0  0.32272365454E+03  0.29347362922E+03  0.22048832158E+04  0.22476181445E+04  0.00000000000E+00 0. -1.
        -13    1    3    3    0    0  0.19273845453E+03  0.94620798135E+02  0.99569279245E+03  0.10185800627E+04  0.00000000000E+00 0.  1.
         22    1    1    2    0    0 -0.51546210907E+03 -0.38809442736E+03 -0.37471519181E+03  0.74614338127E+03  0.00000000000E+00 0.  1.
<mgrwt>
<rscale>  0 0.28484023E+04</rscale>
<asrwt>0</asrwt>
<pdfrwt beam="1">  1        2 0.52601556E+00 0.28484023E+04</pdfrwt>
<pdfrwt beam="2">  1       -2 0.91267754E-01 0.28484023E+04</pdfrwt>
<totfact> 0.82005139E-01</totfact>
</mgrwt>
</event>
<event>
 6    1  0.1762360E-005  0.8566571E+03  0.7818608E-02  0.9481445E-01
          2   -1    0    0  501    0  0.00000000000E+00  0.00000000000E+00  0.24521458498E+04  0.24521458498E+04  0.00000000000E+00 0. -1.
         -2   -1    0    0    0  501 -0.00000000000E+00 -0.00000000000E+00 -0.74818277286E+02  0.74818277286E+02  0.00000000000E+00 0.  1.
         23    2    1    2    0    0 -0.37763192372E+01 -0.28591673235E+03  0.21228954314E+04  0.21442130946E+04  0.95927805862E+02 0.  0.
         13    1    3    3    0    0 -0.43207412688E+02 -0.14679721562E+03  0.12642363877E+04  0.12734637596E+04  0.00000000000E+00 0. -1.
        -13    1    3    3    0    0  0.39431093451E+02 -0.13911951673E+03  0.85865904375E+03  0.87074933505E+03  0.00000000000E+00 0.  1.
         22    1    1    2    0    0  0.37763192372E+01  0.28591673235E+03  0.25443214105E+03  0.38275103243E+03  0.00000000000E+00 0.  1.
<mgrwt>
<rscale>  0 0.85665706E+03</rscale>
<asrwt>0</asrwt>
<pdfrwt beam="1">  1        2 0.37725315E+00 0.85665706E+03</pdfrwt>
<pdfrwt beam="2">  1       -2 0.11510506E-01 0.85665706E+03</pdfrwt>
<totfact> 0.20754118E+02</totfact>
</mgrwt>
</event>
<event>
 6    1  0.1762360E-005  0.3007277E+04  0.7818608E-02  0.8241656E-01
          2   -1    0    0  501    0  0.00000000000E+00  0.00000000000E+00  0.25121267923E+04  0.25121267923E+04  0.00000000000E+00 0. -1.
         -2   -1    0    0    0  501 -0.00000000000E+00 -0.00000000000E+00 -0.90000599062E+03  0.90000599062E+03  0.00000000000E+00 0.  1.
         23    2    1    2    0    0  0.28182336318E+03  0.65940019714E+03 -0.69047763108E+03  0.10004544108E+04  0.99582332891E+02 0.  0.
         13    1    3    3    0    0  0.14424127341E+03  0.31140569640E+03 -0.39785013674E+03  0.52541772335E+03  0.00000000000E+00 0.  1.
        -13    1    3    3    0    0  0.13758208977E+03  0.34799450074E+03 -0.29262749434E+03  0.47503668743E+03  0.00000000000E+00 0. -1.
         22    1    1    2    0    0 -0.28182336318E+03 -0.65940019714E+03  0.23025984327E+04  0.24116783721E+04  0.00000000000E+00 0. -1.
<mgrwt>
<rscale>  0 0.30072773E+04</rscale>
<asrwt>0</asrwt>
<pdfrwt beam="1">  1        2 0.38648104E+00 0.30072773E+04</pdfrwt>
<pdfrwt beam="2">  1       -2 0.13846246E+00 0.30072773E+04</pdfrwt>
<totfact> 0.10828043E+00</totfact>
</mgrwt>
</event>
<event>
 6    1  0.1762360E-005  0.9919709E+03  0.7818608E-02  0.9317395E-01
         -2   -1    0    0    0  501 -0.00000000000E+00  0.00000000000E+00  0.22302522742E+03  0.22302522742E+03  0.00000000000E+00 0. -1.
          2   -1    0    0  501    0  0.00000000000E+00 -0.00000000000E+00 -0.11030211871E+04  0.11030211871E+04  0.00000000000E+00 0.  1.
         23    2    1    2    0    0 -0.19683701384E+03  0.41299823476E+03 -0.20244223998E+03  0.50849433971E+03  0.90946583534E+02 0.  0.
         13    1    3    3    0    0 -0.93937800739E+02  0.26246398865E+03 -0.84345406412E+02  0.29124869670E+03  0.00000000000E+00 0. -1.
        -13    1    3    3    0    0 -0.10289921310E+03  0.15053424611E+03 -0.11809683357E+03  0.21724564301E+03  0.00000000000E+00 0.  1.
         22    1    1    2    0    0  0.19683701384E+03 -0.41299823476E+03 -0.67755371967E+03  0.81755207477E+03  0.00000000000E+00 0.  1.
<mgrwt>
<rscale>  0 0.99197087E+03</rscale>
<asrwt>0</asrwt>
<pdfrwt beam="1">  1        2 0.16969557E+00 0.99197087E+03</pdfrwt>
<pdfrwt beam="2">  1       -2 0.34311573E-01 0.99197087E+03</pdfrwt>
<totfact> 0.17218030E+02</totfact>
</mgrwt>
</event>
<event>
 6    1  0.1762360E-005  0.2398525E+04  0.7818608E-02  0.8440056E-01
          1   -1    0    0  501    0  0.00000000000E+00  0.00000000000E+00  0.28837788353E+04  0.28837788353E+04  0.00000000000E+00 0. -1.
         -1   -1    0    0    0  501 -0.00000000000E+00 -0.00000000000E+00 -0.49873113521E+03  0.49873113521E+03  0.00000000000E+00 0.  1.
         23    2    1    2    0    0  0.55986911499E+03  0.71800555236E+03  0.97389459862E+02  0.92032280799E+03  0.92325320966E+02 0.  0.
         11    1    3    3    0    0  0.41813764339E+03  0.48483118734E+03  0.96396543134E+02  0.64745089587E+03  0.00000000000E+00 0. -1.
        -11    1    3    3    0    0  0.14173147160E+03  0.23317436501E+03  0.99291672772E+00  0.27287191212E+03  0.00000000000E+00 0.  1.
         22    1    1    2    0    0 -0.55986911499E+03 -0.71800555236E+03  0.22876582402E+04  0.24621871625E+04  0.00000000000E+00 0. -1.
<mgrwt>
<rscale>  0 0.23985248E+04</rscale>
<asrwt>0</asrwt>
<pdfrwt beam="1">  1        1 0.44365827E+00 0.23985248E+04</pdfrwt>
<pdfrwt beam="2">  1       -1 0.76727869E-01 0.23985248E+04</pdfrwt>
<totfact> 0.11086917E+00</totfact>
</mgrwt>
</event>
<event>
 6    1  0.1762360E-005  0.1845715E+04  0.7818608E-02  0.8682359E-01
          1   -1    0    0  501    0  0.00000000000E+00  0.00000000000E+00  0.44152093183E+03  0.44152093183E+03  0.00000000000E+00 0. -1.
         -1   -1    0    0    0  501 -0.00000000000E+00 -0.00000000000E+00 -0.19289372400E+04  0.19289372400E+04  0.00000000000E+00 0.  1.
         23    2    1    2    0    0 -0.61321306312E+03  0.47137096413E+03 -0.13867396827E+04  0.15904859739E+04  0.91530536200E+02 0.  0.
         13    1    3    3    0    0 -0.10732557603E+03  0.12178578225E+03 -0.33262105487E+03  0.37011798412E+03  0.00000000000E+00 0. -1.
        -13    1    3    3    0    0 -0.50588748709E+03  0.34958518189E+03 -0.10541186278E+04  0.12203679898E+04  0.00000000000E+00 0.  1.
         22    1    1    2    0    0  0.61321306312E+03 -0.47137096413E+03 -0.10067662547E+03  0.77997219792E+03  0.00000000000E+00 0. -1.
<mgrwt>
<rscale>  0 0.18457152E+04</rscale>
<asrwt>0</asrwt>
<pdfrwt beam="1">  1        1 0.67926297E-01 0.18457152E+04</pdfrwt>
<pdfrwt beam="2">  1       -1 0.29675958E+00 0.18457152E+04</pdfrwt>
<totfact> 0.17133804E+00</totfact>
</mgrwt>
</event>
<event>
 6    1  0.1762360E-005  0.1152032E+04  0.7818608E-02  0.9155911E-01
          1   -1    0    0  501    0  0.00000000000E+00  0.00000000000E+00  0.84560042092E+03  0.84560042092E+03  0.00000000000E+00 0. -1.
         -1   -1    0    0    0  501 -0.00000000000E+00 -0.00000000000E+00 -0.39237740106E+03  0.39237740106E+03  0.00000000000E+00 0.  1.
         23    2    1    2    0    0  0.45621229022E+03  0.97069180384E+02  0.58484314652E+03  0.75333781407E+03  0.89018405651E+02 0.  0.
         11    1    3    3    0    0  0.36767420018E+03  0.77266156290E+02  0.40834792226E+03  0.55488954036E+03  0.00000000000E+00 0.  1.
        -11    1    3    3    0    0  0.88538090041E+02  0.19803024094E+02  0.17649522426E+03  0.19844827371E+03  0.00000000000E+00 0. -1.
         22    1    1    2    0    0 -0.45621229022E+03 -0.97069180384E+02 -0.13162012666E+03  0.48464000792E+03  0.00000000000E+00 0.  1.
<mgrwt>
<rscale>  0 0.11520321E+04</rscale>
<asrwt>0</asrwt>
<pdfrwt beam="1">  1        1 0.13009237E+00 0.11520321E+04</pdfrwt>
<pdfrwt beam="2">  1       -1 0.60365754E-01 0.11520321E+04</pdfrwt>
<totfact> 0.55824799E+01</totfact>
</mgrwt>
</event>
<event>
 6    1  0.1762360E-005  0.1683762E+04  0.7818608E-02  0.8770680E-01
         -2   -1    0    0    0  501 -0.00000000000E+00  0.00000000000E+00  0.27931164486E+03  0.27931164486E+03  0.00000000000E+00 0. -1.
          2   -1    0    0  501    0  0.00000000000E+00 -0.00000000000E+00 -0.25375362872E+04  0.25375362872E+04  0.00000000000E+00 0.  1.
         23    2    1    2    0    0 -0.68249807791E+03 -0.47305353779E+03 -0.92504651196E+03  0.12461960918E+04  0.87808735280E+02 0.  0.
         13    1    3    3    0    0 -0.14788566973E+03 -0.14872666335E+03 -0.23046605832E+03  0.31161578224E+03  0.00000000000E+00 0.  1.
        -13    1    3    3    0    0 -0.53461240818E+03 -0.32432687444E+03 -0.69458045364E+03  0.93458030957E+03  0.00000000000E+00 0. -1.
         22    1    1    2    0    0  0.68249807791E+03  0.47305353779E+03 -0.13331781304E+04  0.15706518403E+04  0.00000000000E+00 0.  1.
<mgrwt>
<rscale>  0 0.16837618E+04</rscale>
<asrwt>0</asrwt>
<pdfrwt beam="1">  1        2 0.39039019E+00 0.16837618E+04</pdfrwt>
<pdfrwt beam="2">  1       -2 0.42971023E-01 0.16837618E+04</pdfrwt>
<totfact> 0.16225653E+01</totfact>
</mgrwt>
</event>
<event>
 6    1  0.1762360E-005  0.2132011E+04  0.7818608E-02  0.8547272E-01
         -1   -1    0    0    0  501 -0.00000000000E+00  0.00000000000E+00  0.68565131499E+03  0.68565131499E+03  0.00000000000E+00 0.  1.
          1   -1    0    0  501    0  0.00000000000E+00 -0.00000000000E+00 -0.16573554533E+04  0.16573554533E+04  0.00000000000E+00 0. -1.
         23    2    1    2    0    0 -0.13180412600E+03 -0.70874783534E+03  0.37323090605E+03  0.81704933268E+03  0.92587693987E+02 0.  0.
         11    1    3    3    0    0 -0.68849512952E+02 -0.24778105444E+03  0.90478901289E+02  0.27262086851E+03  0.00000000000E+00 0.  1.
        -11    1    3    3    0    0 -0.62954613046E+02 -0.46096678090E+03  0.28275200476E+03  0.54442846417E+03  0.00000000000E+00 0. -1.
         22    1    1    2    0    0  0.13180412600E+03  0.70874783534E+03 -0.13449350444E+04  0.15259574356E+04  0.00000000000E+00 0. -1.
<mgrwt>
<rscale>  0 0.21320112E+04</rscale>
<asrwt>0</asrwt>
<pdfrwt beam="1">  1        1 0.25497776E+00 0.21320112E+04</pdfrwt>
<pdfrwt beam="2">  1       -1 0.10548482E+00 0.21320112E+04</pdfrwt>
<totfact> 0.39367958E+00</totfact>
</mgrwt>
</event>
<event>
 6    1  0.1762360E-005  0.1582980E+04  0.7818608E-02  0.8831073E-01
          1   -1    0    0  501    0  0.00000000000E+00  0.00000000000E+00  0.27665311829E+04  0.27665311829E+04  0.00000000000E+00 0. -1.
         -1   -1    0    0    0  501 -0.00000000000E+00 -0.00000000000E+00 -0.22644102332E+03  0.22644102332E+03  0.00000000000E+00 0.  1.
         23    2    1    2    0    0 -0.45846886226E+03  0.60103320215E+03  0.16981980560E+04  0.18615054936E+04  0.99455806287E+02 0.  0.
         13    1    3    3    0    0 -0.36872250215E+03  0.48425587781E+03  0.12618694615E+04  0.14009905698E+04  0.00000000000E+00 0. -1.
        -13    1    3    3    0    0 -0.89746360111E+02  0.11677732433E+03  0.43632859451E+03  0.46051492377E+03  0.00000000000E+00 0.  1.
         22    1    1    2    0    0  0.45846886226E+03 -0.60103320215E+03  0.84189210352E+03  0.11314667126E+04  0.00000000000E+00 0. -1.
<mgrwt>
<rscale>  0 0.15829797E+04</rscale>
<asrwt>0</asrwt>
<pdfrwt beam="1">  1        1 0.42562016E+00 0.15829797E+04</pdfrwt>
<pdfrwt beam="2">  1       -1 0.34837082E-01 0.15829797E+04</pdfrwt>
<totfact> 0.66433291E+00</totfact>
</mgrwt>
</event>
<event>
 6    1  0.1762360E-005  0.3676034E+04  0.7818608E-02  0.8073294E-01
         -2   -1    0    0    0  501 -0.00000000000E+00  0.00000000000E+00  0.27238125951E+04  0.27238125951E+04  0.00000000000E+00 0.  1.
          2   -1    0    0  501    0  0.00000000000E+00 -0.00000000000E+00 -0.12402857224E+04  0.12402857224E+04  0.00000000000E+00 0. -1.
         23    2    1    2    0    0  0.11600219051E+04  0.66153447679E+03 -0.61782661737E+03  0.14743262046E+04  0.93001849560E+02 0.  0.
         13    1    3    3    0    0  0.22009561759E+03  0.11810341858E+03 -0.15582294592E+03  0.29439987914E+03  0.00000000000E+00 0.  1.
        -13    1    3    3    0    0  0.93992628751E+03  0.54343105821E+03 -0.46200367145E+03  0.11799263254E+04  0.00000000000E+00 0. -1.
         22    1    1    2    0    0 -0.11600219051E+04 -0.66153447679E+03  0.21013534901E+04  0.24897721130E+04  0.00000000000E+00 0.  1.
<mgrwt>
<rscale>  0 0.36760337E+04</rscale>
<asrwt>0</asrwt>
<pdfrwt beam="1">  1        2 0.19081319E+00 0.36760337E+04</pdfrwt>
<pdfrwt beam="2">  1       -2 0.41904809E+00 0.36760337E+04</pdfrwt>
<totfact> 0.80693417E-02</totfact>
</mgrwt>
</event>
<event>
 6    1  0.1762360E-005  0.1433205E+04  0.7818608E-02  0.8930128E-01
         -2   -1    0    0    0  501 -0.00000000000E+00  0.00000000000E+00  0.83628521397E+03  0.83628521397E+03  0.00000000000E+00 0.  1.
          2   -1    0    0  501    0  0.00000000000E+00 -0.00000000000E+00 -0.61404805580E+03  0.61404805580E+03  0.00000000000E+00 0. -1.
         23    2    1    2    0    0 -0.35640993858E+03 -0.38268823203E+03 -0.37995199456E+03  0.65276816088E+03  0.90908890854E+02 0.  0.
         11    1    3    3    0    0 -0.17778270072E+03 -0.13002357914E+03 -0.17890351622E+03  0.28375920764E+03  0.00000000000E+00 0. -1.
        -11    1    3    3    0    0 -0.17862723787E+03 -0.25266465289E+03 -0.20104847834E+03  0.36900895324E+03  0.00000000000E+00 0.  1.
         22    1    1    2    0    0  0.35640993858E+03  0.38268823203E+03  0.60218915272E+03  0.79756510889E+03  0.00000000000E+00 0.  1.
<mgrwt>
<rscale>  0 0.14332052E+04</rscale>
<asrwt>0</asrwt>
<pdfrwt beam="1">  1        2 0.94468932E-01 0.14332052E+04</pdfrwt>
<pdfrwt beam="2">  1       -2 0.12865926E+00 0.14332052E+04</pdfrwt>
<totfact> 0.20867183E+01</totfact>
</mgrwt>
</event>
<event>
 6    1  0.1762360E-005  0.4483292E+04  0.7818608E-02  0.7913568E-01
          2   -1    0    0  501    0  0.00000000000E+00  0.00000000000E+00  0.31478855727E+04  0.31478855727E+04  0.00000000000E+00 0. -1.
         -2   -1    0    0    0  501 -0.00000000000E+00 -0.00000000000E+00 -0.15963023209E+04  0.15963023209E+04  0.00000000000E+00 0.  1.
         23    2    1    2    0    0 -0.10225975298E+04 -0.15526882006E+04 -0.54743548429E+03  0.19401861085E+04  0.89945371951E+02 0.  0.
         11    1    3    3    0    0 -0.30196834508E+03 -0.49487342015E+03 -0.20893865087E+03  0.61623043031E+03  0.00000000000E+00 0.  1.
        -11    1    3    3    0    0 -0.72062918474E+03 -0.10578147804E+04 -0.33849683341E+03  0.13239556782E+04  0.00000000000E+00 0. -1.
         22    1    1    2    0    0  0.10225975298E+04  0.15526882006E+04  0.20990187361E+04  0.28040017851E+04  0.00000000000E+00 0. -1.
<mgrwt>
<rscale>  0 0.44832921E+04</rscale>
<asrwt>0</asrwt>
<pdfrwt beam="1">  1        2 0.48429009E+00 0.44832921E+04</pdfrwt>
<pdfrwt beam="2">  1       -2 0.24558497E+00 0.44832921E+04</pdfrwt>
<totfact> 0.72708821E-02</totfact>
</mgrwt>
</event>
<event>
 6    1  0.1762360E-005  0.1145548E+04  0.7818608E-02  0.9161901E-01
          2   -1    0    0  501    0  0.00000000000E+00  0.00000000000E+00  0.23474768685E+04  0.23474768685E+04  0.00000000000E+00 0. -1.
         -2   -1    0    0    0  501 -0.00000000000E+00 -0.00000000000E+00 -0.13975430629E+03  0.13975430629E+03  0.00000000000E+00 0.  1.
         23    2    1    2    0    0 -0.31459913916E+03 -0.47571169893E+03  0.11314331869E+04  0.12691699865E+04  0.73329117751E+02 0.  0.
         11    1    3    3    0    0 -0.16876236726E+03 -0.21249044560E+03  0.59864457005E+03  0.65727334293E+03  0.00000000000E+00 0. -1.
        -11    1    3    3    0    0 -0.14583677190E+03 -0.26322125333E+03  0.53278861682E+03  0.61189664360E+03  0.00000000000E+00 0.  1.
         22    1    1    2    0    0  0.31459913916E+03  0.47571169893E+03  0.10762893753E+04  0.12180611883E+04  0.00000000000E+00 0. -1.
<mgrwt>
<rscale>  0 0.11455479E+04</rscale>
<asrwt>0</asrwt>
<pdfrwt beam="1">  1        2 0.36115026E+00 0.11455479E+04</pdfrwt>
<pdfrwt beam="2">  1       -2 0.21500664E-01 0.11455479E+04</pdfrwt>
<totfact> 0.79771811E+01</totfact>
</mgrwt>
</event>
<event>
 6    1  0.1762360E-005  0.6015139E+03  0.7818608E-02  0.9902270E-01
          3   -1    0    0  501    0  0.00000000000E+00  0.00000000000E+00  0.53535308886E+02  0.53535308886E+02  0.00000000000E+00 0. -1.
         -3   -1    0    0    0  501 -0.00000000000E+00 -0.00000000000E+00 -0.16896277056E+04  0.16896277056E+04  0.00000000000E+00 0.  1.
         23    2    1    2    0    0  0.39796874147E+02  0.26648208307E+03 -0.11761928516E+04  0.12101488651E+04  0.91837682383E+02 0.  0.
         11    1    3    3    0    0  0.40558644715E+02  0.16156285953E+03 -0.53204457680E+03  0.55751142854E+03  0.00000000000E+00 0. -1.
        -11    1    3    3    0    0 -0.76177056739E+00  0.10491922354E+03 -0.64414827476E+03  0.65263743659E+03  0.00000000000E+00 0.  1.
         22    1    1    2    0    0 -0.39796874147E+02 -0.26648208307E+03 -0.45989954514E+03  0.53301414935E+03  0.00000000000E+00 0. -1.
<mgrwt>
<rscale>  0 0.60151389E+03</rscale>
<asrwt>0</asrwt>
<pdfrwt beam="1">  1        3 0.82362025E-02 0.60151389E+03</pdfrwt>
<pdfrwt beam="2">  1       -3 0.25994269E+00 0.60151389E+03</pdfrwt>
<totfact> 0.18459510E+01</totfact>
</mgrwt>
</event>
<event>
 6    1  0.1762360E-005  0.2517148E+04  0.7818608E-02  0.8396902E-01
          2   -1    0    0  501    0  0.00000000000E+00  0.00000000000E+00  0.13377880881E+04  0.13377880881E+04  0.00000000000E+00 0. -1.
         -2   -1    0    0    0  501 -0.00000000000E+00 -0.00000000000E+00 -0.11840507622E+04  0.11840507622E+04  0.00000000000E+00 0.  1.
         23    2    1    2    0    0  0.11482050813E+04  0.43979365775E+03  0.33719555630E+03  0.12786774399E+04  0.97579619641E+02 0.  0.
         11    1    3    3    0    0  0.41616762420E+03  0.18281293395E+03  0.81534767376E+02  0.46180513049E+03  0.00000000000E+00 0.  1.
        -11    1    3    3    0    0  0.73203745707E+03  0.25698072380E+03  0.25566078893E+03  0.81687230945E+03  0.00000000000E+00 0. -1.
         22    1    1    2    0    0 -0.11482050813E+04 -0.43979365775E+03 -0.18345823040E+03  0.12431614104E+04  0.00000000000E+00 0.  1.
<mgrwt>
<rscale>  0 0.25171484E+04</rscale>
<asrwt>0</asrwt>
<pdfrwt beam="1">  1        2 0.20581355E+00 0.25171484E+04</pdfrwt>
<pdfrwt beam="2">  1       -2 0.18216166E+00 0.25171484E+04</pdfrwt>
<totfact> 0.24525895E+00</totfact>
</mgrwt>
</event>
<event>
 6    1  0.1762360E-005  0.3517197E+04  0.7818608E-02  0.8109727E-01
          1   -1    0    0  501    0  0.00000000000E+00  0.00000000000E+00  0.23693420757E+04  0.23693420757E+04  0.00000000000E+00 0.  1.
         -1   -1    0    0    0  501 -0.00000000000E+00 -0.00000000000E+00 -0.13052855189E+04  0.13052855189E+04  0.00000000000E+00 0. -1.
         23    2    1    2    0    0 -0.15739831221E+03 -0.15552283852E+04  0.13715120649E+04  0.20815053619E+04  0.90053698828E+02 0.  0.
         13    1    3    3    0    0 -0.90598510749E+02 -0.62755762399E+03  0.50965023802E+03  0.81349863349E+03  0.00000000000E+00 0. -1.
        -13    1    3    3    0    0 -0.66799801463E+02 -0.92767076120E+03  0.86186182692E+03  0.12680067284E+04  0.00000000000E+00 0.  1.
         22    1    1    2    0    0  0.15739831221E+03  0.15552283852E+04 -0.30745550820E+03  0.15931222327E+04  0.00000000000E+00 0. -1.
<mgrwt>
<rscale>  0 0.35171966E+04</rscale>
<asrwt>0</asrwt>
<pdfrwt beam="1">  1        1 0.36451417E+00 0.35171966E+04</pdfrwt>
<pdfrwt beam="2">  1       -1 0.20081316E+00 0.35171966E+04</pdfrwt>
<totfact> 0.20186275E-01</totfact>
</mgrwt>
</event>
<event>
 6    1  0.1762360E-005  0.2288071E+04  0.7818608E-02  0.8482640E-01
          2   -1    0    0  501    0  0.00000000000E+00  0.00000000000E+00  0.26583946778E+04  0.26583946778E+04  0.00000000000E+00 0. -1.
         -2   -1    0    0    0  501 -0.00000000000E+00 -0.00000000000E+00 -0.49233349380E+03  0.49233349380E+03  0.00000000000E+00 0.  1.
         23    2    1    2    0    0  0.10842472024E+04 -0.76452612510E+02  0.60154764037E+03  0.12456980863E+04  0.92017175525E+02 0.  0.
         11    1    3    3    0    0  0.22926231259E+03 -0.48690080624E+02  0.15178479026E+03  0.27923207996E+03  0.00000000000E+00 0.  1.
        -11    1    3    3    0    0  0.85498488981E+03 -0.27762531886E+02  0.44976285011E+03  0.96646600630E+03  0.00000000000E+00 0. -1.
         22    1    1    2    0    0 -0.10842472024E+04  0.76452612510E+02  0.15645135436E+04  0.19050300854E+04  0.00000000000E+00 0.  1.
<mgrwt>
<rscale>  0 0.22880706E+04</rscale>
<asrwt>0</asrwt>
<pdfrwt beam="1">  1        2 0.40898379E+00 0.22880706E+04</pdfrwt>
<pdfrwt beam="2">  1       -2 0.75743616E-01 0.22880706E+04</pdfrwt>
<totfact> 0.39858793E+00</totfact>
</mgrwt>
</event>
<event>
 6    1  0.1762360E-005  0.2911254E+04  0.7818608E-02  0.8269537E-01
          2   -1    0    0  501    0  0.00000000000E+00  0.00000000000E+00  0.31677659404E+04  0.31677659404E+04  0.00000000000E+00 0. -1.
         -2   -1    0    0    0  501 -0.00000000000E+00 -0.00000000000E+00 -0.66887831684E+03  0.66887831684E+03  0.00000000000E+00 0.  1.
         23    2    1    2    0    0  0.12139846400E+04 -0.43536747765E+03  0.21362095987E+04  0.24969282813E+04  0.89195545661E+02 0.  0.
         11    1    3    3    0    0  0.22977314475E+03 -0.12007065801E+03  0.42095686390E+03  0.49438582325E+03  0.00000000000E+00 0. -1.
        -11    1    3    3    0    0  0.98421149521E+03 -0.31529681964E+03  0.17152527348E+04  0.20025424580E+04  0.00000000000E+00 0.  1.
         22    1    1    2    0    0 -0.12139846400E+04  0.43536747765E+03  0.36267802484E+03  0.13397159760E+04  0.00000000000E+00 0.  1.
<mgrwt>
<rscale>  0 0.29112540E+04</rscale>
<asrwt>0</asrwt>
<pdfrwt beam="1">  1        2 0.48734860E+00 0.29112540E+04</pdfrwt>
<pdfrwt beam="2">  1       -2 0.10290436E+00 0.29112540E+04</pdfrwt>
<totfact> 0.90482350E-01</totfact>
</mgrwt>
</event>
<event>
 6    1  0.1762360E-005  0.2116604E+04  0.7818608E-02  0.8553964E-01
         -2   -1    0    0    0  501 -0.00000000000E+00  0.00000000000E+00  0.12859346092E+04  0.12859346092E+04  0.00000000000E+00 0.  1.
          2   -1    0    0  501    0  0.00000000000E+00 -0.00000000000E+00 -0.87096396033E+03  0.87096396033E+03  0.00000000000E+00 0. -1.
         23    2    1    2    0    0 -0.90275919807E+03 -0.54448545597E+03  0.14016424381E+03  0.10674229426E+04  0.91143521972E+02 0.  0.
         11    1    3    3    0    0 -0.82551595653E+03 -0.48690029506E+03  0.10210841705E+03  0.96383329505E+03  0.00000000000E+00 0. -1.
        -11    1    3    3    0    0 -0.77243241537E+02 -0.57585160912E+02  0.38055826760E+02  0.10358964751E+03  0.00000000000E+00 0.  1.
         22    1    1    2    0    0  0.90275919807E+03  0.54448545597E+03  0.27480640504E+03  0.10894756269E+04  0.00000000000E+00 0.  1.
<mgrwt>
<rscale>  0 0.21166036E+04</rscale>
<asrwt>0</asrwt>
<pdfrwt beam="1">  1        2 0.13399446E+00 0.21166036E+04</pdfrwt>
<pdfrwt beam="2">  1       -2 0.19783609E+00 0.21166036E+04</pdfrwt>
<totfact> 0.38806188E+00</totfact>
</mgrwt>
</event>
<event>
 6    1  0.1762360E-005  0.9614332E+03  0.7818608E-02  0.9351886E-01
          1   -1    0    0  501    0  0.00000000000E+00  0.00000000000E+00  0.21390541212E+03  0.21390541212E+03  0.00000000000E+00 0. -1.
         -1   -1    0    0    0  501 -0.00000000000E+00 -0.00000000000E+00 -0.10803300764E+04  0.10803300764E+04  0.00000000000E+00 0.  1.
         23    2    1    2    0    0  0.43066944987E+03  0.96671704204E+02 -0.19584863968E+03  0.49143177763E+03  0.91251898364E+02 0.  0.
         11    1    3    3    0    0  0.91174162510E+02  0.44090700850E+01 -0.79018430860E+02  0.12073143842E+03  0.00000000000E+00 0.  1.
        -11    1    3    3    0    0  0.33949528736E+03  0.92262634119E+02 -0.11683020882E+03  0.37070033921E+03  0.00000000000E+00 0. -1.
         22    1    1    2    0    0 -0.43066944987E+03 -0.96671704204E+02 -0.67057602461E+03  0.80280371090E+03  0.00000000000E+00 0.  1.
<mgrwt>
<rscale>  0 0.96143320E+03</rscale>
<asrwt>0</asrwt>
<pdfrwt beam="1">  1        1 0.32908524E-01 0.96143320E+03</pdfrwt>
<pdfrwt beam="2">  1       -1 0.16620463E+00 0.96143320E+03</pdfrwt>
<totfact> 0.35976024E+01</totfact>
</mgrwt>
</event>
<event>
 6    1  0.1762360E-005  0.3093069E+04  0.7818608E-02  0.8217643E-01
          1   -1    0    0  501    0  0.00000000000E+00  0.00000000000E+00  0.17090786947E+04  0.17090786947E+04  0.00000000000E+00 0. -1.
         -1   -1    0    0    0  501 -0.00000000000E+00 -0.00000000000E+00 -0.13994492947E+04  0.13994492947E+04  0.00000000000E+00 0.  1.
         23    2    1    2    0    0  0.14197805404E+02 -0.47435090300E+03  0.16328590924E+04  0.17027729695E+04  0.89423783587E+02 0.  0.
         13    1    3    3    0    0  0.30576923300E+02 -0.62889210043E+02  0.19756019628E+03  0.20957106702E+03  0.00000000000E+00 0.  1.
        -13    1    3    3    0    0 -0.16379117896E+02 -0.41146169296E+03  0.14352988961E+04  0.14932019025E+04  0.00000000000E+00 0. -1.
         22    1    1    2    0    0 -0.14197805404E+02  0.47435090300E+03 -0.13232296925E+04  0.14057550199E+04  0.00000000000E+00 0.  1.
<mgrwt>
<rscale>  0 0.30930690E+04</rscale>
<asrwt>0</asrwt>
<pdfrwt beam="1">  1        1 0.26293518E+00 0.30930690E+04</pdfrwt>
<pdfrwt beam="2">  1       -1 0.21529989E+00 0.30930690E+04</pdfrwt>
<totfact> 0.46956620E-01</totfact>
</mgrwt>
</event>
<event>
 6    1  0.1762360E-005  0.1728448E+04  0.7818608E-02  0.8745304E-01
         -1   -1    0    0    0  501 -0.00000000000E+00  0.00000000000E+00  0.15118102574E+04  0.15118102574E+04  0.00000000000E+00 0.  1.
          1   -1    0    0  501    0  0.00000000000E+00 -0.00000000000E+00 -0.49403249964E+03  0.49403249964E+03  0.00000000000E+00 0. -1.
         23    2    1    2    0    0 -0.60399211002E+03  0.38983712437E+03 -0.41455541315E+02  0.72570423547E+03  0.90269723460E+02 0.  0.
         11    1    3    3    0    0 -0.38054509908E+03  0.24111349177E+03  0.17696384631E+02  0.45084748017E+03  0.00000000000E+00 0. -1.
        -11    1    3    3    0    0 -0.22344701094E+03  0.14872363260E+03 -0.59151925947E+02  0.27485675530E+03  0.00000000000E+00 0.  1.
         22    1    1    2    0    0  0.60399211002E+03 -0.38983712437E+03  0.10592332990E+04  0.12801385215E+04  0.00000000000E+00 0.  1.
<mgrwt>
<rscale>  0 0.17284483E+04</rscale>
<asrwt>0</asrwt>
<pdfrwt beam="1">  1        1 0.76005001E-01 0.17284483E+04</pdfrwt>
<pdfrwt beam="2">  1       -1 0.23258619E+00 0.17284483E+04</pdfrwt>
<totfact> 0.38817634E+00</totfact>
</mgrwt>
</event>
<event>
 6    1  0.1762360E-005  0.2018480E+04  0.7818608E-02  0.8598029E-01
          2   -1    0    0  501    0  0.00000000000E+00  0.00000000000E+00  0.14287756614E+04  0.14287756614E+04  0.00000000000E+00 0. -1.
         -2   -1    0    0    0  501 -0.00000000000E+00 -0.00000000000E+00 -0.71289389207E+03  0.71289389207E+03  0.00000000000E+00 0.  1.
         23    2    1    2    0    0  0.34954510127E+03  0.23420597005E+03  0.13297678612E+04  0.13974314545E+04  0.86590364052E+02 0.  0.
         11    1    3    3    0    0  0.32150583093E+03  0.19893040059E+03  0.12487123401E+04  0.13046922288E+04  0.00000000000E+00 0. -1.
        -11    1    3    3    0    0  0.28039270349E+02  0.35275569461E+02  0.81055521059E+02  0.92739225663E+02  0.00000000000E+00 0.  1.
         22    1    1    2    0    0 -0.34954510127E+03 -0.23420597005E+03 -0.61388609184E+03  0.74423809899E+03  0.00000000000E+00 0.  1.
<mgrwt>
<rscale>  0 0.20184801E+04</rscale>
<asrwt>0</asrwt>
<pdfrwt beam="1">  1        2 0.21981164E+00 0.20184801E+04</pdfrwt>
<pdfrwt beam="2">  1       -2 0.10967598E+00 0.20184801E+04</pdfrwt>
<totfact> 0.85542091E+00</totfact>
</mgrwt>
</event>
<event>
 6    1  0.1762360E-005  0.3070514E+04  0.7818608E-02  0.8223877E-01
          1   -1    0    0  501    0  0.00000000000E+00  0.00000000000E+00  0.17353848543E+04  0.17353848543E+04  0.00000000000E+00 0. -1.
         -1   -1    0    0    0  501 -0.00000000000E+00 -0.00000000000E+00 -0.13582078361E+04  0.13582078361E+04  0.00000000000E+00 0.  1.
         23    2    1    2    0    0 -0.76426491275E+03 -0.10600350040E+04 -0.62037576025E+03  0.14495468844E+04  0.92439275636E+02 0.  0.
         13    1    3    3    0    0 -0.59072906386E+03 -0.75571016862E+03 -0.43550770264E+03  0.10534351641E+04  0.00000000000E+00 0. -1.
        -13    1    3    3    0    0 -0.17353584889E+03 -0.30432483535E+03 -0.18486805761E+03  0.39611172033E+03  0.00000000000E+00 0.  1.
         22    1    1    2    0    0  0.76426491275E+03  0.10600350040E+04  0.99755277838E+03  0.16440458060E+04  0.00000000000E+00 0. -1.
<mgrwt>
<rscale>  0 0.30705135E+04</rscale>
<asrwt>0</asrwt>
<pdfrwt beam="1">  1        1 0.26698229E+00 0.30705135E+04</pdfrwt>
<pdfrwt beam="2">  1       -1 0.20895505E+00 0.30705135E+04</pdfrwt>
<totfact> 0.49841252E-01</totfact>
</mgrwt>
</event>
<event>
 6    1  0.1762360E-005  0.1935535E+04  0.7818608E-02  0.8637368E-01
          1   -1    0    0  501    0  0.00000000000E+00  0.00000000000E+00  0.81153829962E+03  0.81153829962E+03  0.00000000000E+00 0. -1.
         -1   -1    0    0    0  501 -0.00000000000E+00 -0.00000000000E+00 -0.11540719904E+04  0.11540719904E+04  0.00000000000E+00 0.  1.
         23    2    1    2    0    0  0.75828932427E+03 -0.89567769595E+02 -0.77198874528E+03  0.10895642134E+04  0.90324236006E+02 0.  0.
         13    1    3    3    0    0  0.21947482214E+03 -0.62100882843E+02 -0.20119642871E+03  0.30414753021E+03  0.00000000000E+00 0. -1.
        -13    1    3    3    0    0  0.53881450213E+03 -0.27466886752E+02 -0.57079231656E+03  0.78541668318E+03  0.00000000000E+00 0.  1.
         22    1    1    2    0    0 -0.75828932427E+03  0.89567769595E+02  0.42945505445E+03  0.87604607667E+03  0.00000000000E+00 0. -1.
<mgrwt>
<rscale>  0 0.19355347E+04</rscale>
<asrwt>0</asrwt>
<pdfrwt beam="1">  1        1 0.12485205E+00 0.19355347E+04</pdfrwt>
<pdfrwt beam="2">  1       -1 0.17754954E+00 0.19355347E+04</pdfrwt>
<totfact> 0.43678692E+00</totfact>
</mgrwt>
</event>
<event>
 6    1  0.1762360E-005  0.1613549E+04  0.7818608E-02  0.8812268E-01
         -1   -1    0    0    0  501 -0.00000000000E+00  0.00000000000E+00  0.27512003665E+03  0.27512003665E+03  0.00000000000E+00 0.  1.
          1   -1    0    0  501    0  0.00000000000E+00 -0.00000000000E+00 -0.23658209988E+04  0.23658209988E+04  0.00000000000E+00 0. -1.
         23    2    1    2    0    0  0.42092004460E+03  0.26933514435E+03 -0.19701467972E+02  0.51050586657E+03  0.10253286317E+03 0.  0.
         11    1    3    3    0    0  0.21139355581E+03  0.19225084984E+03  0.57893303597E+01  0.28579912709E+03  0.00000000000E+00 0. -1.
        -11    1    3    3    0    0  0.20952648879E+03  0.77084294520E+02 -0.25490798331E+02  0.22470673948E+03  0.00000000000E+00 0.  1.
         22    1    1    2    0    0 -0.42092004460E+03 -0.26933514435E+03 -0.20709994942E+04  0.21304351689E+04  0.00000000000E+00 0. -1.
<mgrwt>
<rscale>  0 0.16135486E+04</rscale>
<asrwt>0</asrwt>
<pdfrwt beam="1">  1        1 0.36397247E+00 0.16135486E+04</pdfrwt>
<pdfrwt beam="2">  1       -1 0.42326158E-01 0.16135486E+04</pdfrwt>
<totfact> 0.88356248E+00</totfact>
</mgrwt>
</event>
<event>
 6    1  0.1762360E-005  0.3092971E+04  0.7818608E-02  0.8217670E-01
          2   -1    0    0  501    0  0.00000000000E+00  0.00000000000E+00  0.14892712410E+04  0.14892712410E+04  0.00000000000E+00 0. -1.
         -2   -1    0    0    0  501 -0.00000000000E+00 -0.00000000000E+00 -0.16058976402E+04  0.16058976402E+04  0.00000000000E+00 0.  1.
         23    2    1    2    0    0  0.60266643633E+03 -0.12640183353E+04  0.59515929354E+03  0.15243130452E+04  0.91468516668E+02 0.  0.
         11    1    3    3    0    0  0.31160271213E+03 -0.75666041412E+03  0.35577411676E+03  0.89230401471E+03  0.00000000000E+00 0.  1.
        -11    1    3    3    0    0  0.29106372420E+03 -0.50735792117E+03  0.23938517677E+03  0.63200903045E+03  0.00000000000E+00 0. -1.
         22    1    1    2    0    0 -0.60266643633E+03  0.12640183353E+04 -0.71178569274E+03  0.15708558361E+04  0.00000000000E+00 0.  1.
<mgrwt>
<rscale>  0 0.30929709E+04</rscale>
<asrwt>0</asrwt>
<pdfrwt beam="1">  1        2 0.22911865E+00 0.30929709E+04</pdfrwt>
<pdfrwt beam="2">  1       -2 0.24706118E+00 0.30929709E+04</pdfrwt>
<totfact> 0.73265802E-01</totfact>
</mgrwt>
</event>
<event>
 6    1  0.1762360E-005  0.5339551E+03  0.7818608E-02  0.1005277E+00
         -2   -1    0    0    0  501 -0.00000000000E+00  0.00000000000E+00  0.25549517667E+03  0.25549517667E+03  0.00000000000E+00 0.  1.
          2   -1    0    0  501    0  0.00000000000E+00 -0.00000000000E+00 -0.27897599898E+03  0.27897599898E+03  0.00000000000E+00 0. -1.
         23    2    1    2    0    0 -0.22250275997E+03 -0.11900635855E+03  0.46779236231E+02  0.27254281255E+03  0.91767620443E+02 0.  0.
         13    1    3    3    0    0 -0.14649631032E+03 -0.81631933060E+02 -0.14007675504E+02  0.16828890756E+03  0.00000000000E+00 0.  1.
        -13    1    3    3    0    0 -0.76006449647E+02 -0.37374425493E+02  0.60786911735E+02  0.10425390500E+03  0.00000000000E+00 0. -1.
         22    1    1    2    0    0  0.22250275997E+03  0.11900635855E+03 -0.70260058541E+02  0.26192836310E+03  0.00000000000E+00 0. -1.
<mgrwt>
<rscale>  0 0.53395514E+03</rscale>
<asrwt>0</asrwt>
<pdfrwt beam="1">  1        2 0.42919384E-01 0.53395514E+03</pdfrwt>
<pdfrwt beam="2">  1       -2 0.39306951E-01 0.53395514E+03</pdfrwt>
<totfact> 0.73241906E+02</totfact>
</mgrwt>
</event>
<event>
 6    1  0.1762360E-005  0.2507674E+04  0.7818608E-02  0.8400257E-01
          1   -1    0    0  501    0  0.00000000000E+00  0.00000000000E+00  0.10913118287E+04  0.10913118287E+04  0.00000000000E+00 0. -1.
         -1   -1    0    0    0  501 -0.00000000000E+00 -0.00000000000E+00 -0.14405661031E+04  0.14405661031E+04  0.00000000000E+00 0.  1.
         23    2    1    2    0    0  0.42967319609E+03 -0.11471608901E+04  0.87717128905E+02  0.12312853090E+04  0.88159254675E+02 0.  0.
         11    1    3    3    0    0  0.19363788298E+03 -0.41512165405E+03  0.94313646511E+01  0.45815998082E+03  0.00000000000E+00 0. -1.
        -11    1    3    3    0    0  0.23603531311E+03 -0.73203923606E+03  0.78285764254E+02  0.77312532817E+03  0.00000000000E+00 0.  1.
         22    1    1    2    0    0 -0.42967319609E+03  0.11471608901E+04 -0.43697140337E+03  0.13005926228E+04  0.00000000000E+00 0.  1.
<mgrwt>
<rscale>  0 0.25076737E+04</rscale>
<asrwt>0</asrwt>
<pdfrwt beam="1">  1        1 0.16789413E+00 0.25076737E+04</pdfrwt>
<pdfrwt beam="2">  1       -1 0.22162555E+00 0.25076737E+04</pdfrwt>
<totfact> 0.12264601E+00</totfact>
</mgrwt>
</event>
<event>
 6    1  0.1762360E-005  0.2838504E+04  0.7818608E-02  0.8291413E-01
          2   -1    0    0  501    0  0.00000000000E+00  0.00000000000E+00  0.25162038366E+04  0.25162038366E+04  0.00000000000E+00 0. -1.
         -2   -1    0    0    0  501 -0.00000000000E+00 -0.00000000000E+00 -0.80052182755E+03  0.80052182755E+03  0.00000000000E+00 0.  1.
         23    2    1    2    0    0  0.76312795720E+03 -0.11917993200E+04  0.97540488595E+03  0.17196157377E+04  0.53978656789E+02 0.  0.
         13    1    3    3    0    0  0.20240835531E+03 -0.27540793325E+03  0.24417897672E+03  0.42005005020E+03  0.00000000000E+00 0.  1.
        -13    1    3    3    0    0  0.56071960189E+03 -0.91639138679E+03  0.73122590922E+03  0.12995656875E+04  0.00000000000E+00 0. -1.
         22    1    1    2    0    0 -0.76312795720E+03  0.11917993200E+04  0.74027712311E+03  0.15971099265E+04  0.00000000000E+00 0. -1.
<mgrwt>
<rscale>  0 0.28385039E+04</rscale>
<asrwt>0</asrwt>
<pdfrwt beam="1">  1        2 0.38710828E+00 0.28385039E+04</pdfrwt>
<pdfrwt beam="2">  1       -2 0.12315721E+00 0.28385039E+04</pdfrwt>
<totfact> 0.14702224E+00</totfact>
</mgrwt>
</event>
<event>
 6    1  0.1762360E-005  0.1433122E+04  0.7818608E-02  0.8930186E-01
         -1   -1    0    0    0  501 -0.00000000000E+00  0.00000000000E+00  0.60391170119E+03  0.60391170119E+03  0.00000000000E+00 0.  1.
          1   -1    0    0  501    0  0.00000000000E+00 -0.00000000000E+00 -0.85022325021E+03  0.85022325021E+03  0.00000000000E+00 0. -1.
         23    2    1    2    0    0  0.51324177174E+03 -0.37451742722E+03 -0.45348374261E+03  0.78585302187E+03  0.90758182117E+02 0.  0.
         11    1    3    3    0    0  0.40886551643E+03 -0.25431915688E+03 -0.32044940551E+03  0.57839179245E+03  0.00000000000E+00 0.  1.
        -11    1    3    3    0    0  0.10437625531E+03 -0.12019827034E+03 -0.13303433710E+03  0.20746122942E+03  0.00000000000E+00 0. -1.
         22    1    1    2    0    0 -0.51324177174E+03  0.37451742722E+03  0.20717219359E+03  0.66828192954E+03  0.00000000000E+00 0.  1.
<mgrwt>
<rscale>  0 0.14331221E+04</rscale>
<asrwt>0</asrwt>
<pdfrwt beam="1">  1        1 0.13080358E+00 0.14331221E+04</pdfrwt>
<pdfrwt beam="2">  1       -1 0.92909493E-01 0.14331221E+04</pdfrwt>
<totfact> 0.21920882E+01</totfact>
</mgrwt>
</event>
<event>
 6    1  0.1762360E-005  0.3792249E+04  0.7818608E-02  0.8047820E-01
         -1   -1    0    0    0  501 -0.00000000000E+00  0.00000000000E+00  0.11149044847E+04  0.11149044847E+04  0.00000000000E+00 0.  1.
          1   -1    0    0  501    0  0.00000000000E+00 -0.00000000000E+00 -0.32247506559E+04  0.32247506559E+04  0.00000000000E+00 0. -1.
         23    2    1    2    0    0  0.61530051502E+03 -0.17598222924E+04 -0.14444655716E+04  0.23601853714E+04  0.91787661653E+02 0.  0.
         13    1    3    3    0    0  0.19510076641E+03 -0.55279889239E+03 -0.50870597873E+03  0.77616538010E+03  0.00000000000E+00 0.  1.
        -13    1    3    3    0    0  0.42019974861E+03 -0.12070234001E+04 -0.93575959288E+03  0.15840199913E+04  0.00000000000E+00 0. -1.
         22    1    1    2    0    0 -0.61530051502E+03  0.17598222924E+04 -0.66538059962E+03  0.19794697692E+04  0.00000000000E+00 0. -1.
<mgrwt>
<rscale>  0 0.37922494E+04</rscale>
<asrwt>0</asrwt>
<pdfrwt beam="1">  1        1 0.49611548E+00 0.37922494E+04</pdfrwt>
<pdfrwt beam="2">  1       -1 0.17152377E+00 0.37922494E+04</pdfrwt>
<totfact> 0.77674611E-02</totfact>
</mgrwt>
</event>
<event>
 6    1  0.1762360E-005  0.1378118E+04  0.7818608E-02  0.8969812E-01
          1   -1    0    0  501    0  0.00000000000E+00  0.00000000000E+00  0.13734444183E+04  0.13734444183E+04  0.00000000000E+00 0. -1.
         -1   -1    0    0    0  501 -0.00000000000E+00 -0.00000000000E+00 -0.34570177945E+03  0.34570177945E+03  0.00000000000E+00 0.  1.
         23    2    1    2    0    0  0.30987426585E+03 -0.30344743253E+03  0.11788125907E+04  0.12598809854E+04  0.97972283753E+02 0.  0.
         11    1    3    3    0    0  0.27703046367E+03 -0.26269815006E+03  0.11072565117E+04  0.11712272105E+04  0.00000000000E+00 0.  1.
        -11    1    3    3    0    0  0.32843802185E+02 -0.40749282468E+02  0.71556078991E+02  0.88653774901E+02  0.00000000000E+00 0. -1.
         22    1    1    2    0    0 -0.30987426585E+03  0.30344743253E+03 -0.15106995184E+03  0.45926521237E+03  0.00000000000E+00 0.  1.
<mgrwt>
<rscale>  0 0.13781178E+04</rscale>
<asrwt>0</asrwt>
<pdfrwt beam="1">  1        1 0.21129914E+00 0.13781178E+04</pdfrwt>
<pdfrwt beam="2">  1       -1 0.53184890E-01 0.13781178E+04</pdfrwt>
<totfact> 0.27929823E+01</totfact>
</mgrwt>
</event>
<event>
 6    1  0.1762360E-005  0.5546663E+04  0.7818608E-02  0.7749301E-01
         -2   -1    0    0    0  501 -0.00000000000E+00  0.00000000000E+00  0.37643270995E+04  0.37643270995E+04  0.00000000000E+00 0. -1.
          2   -1    0    0  501    0  0.00000000000E+00 -0.00000000000E+00 -0.20432247699E+04  0.20432247699E+04  0.00000000000E+00 0.  1.
         23    2    1    2    0    0  0.10617650539E+04  0.15929347208E+04 -0.12391403227E+04  0.22822401647E+04  0.91462428296E+02 0.  0.
         11    1    3    3    0    0  0.89984687137E+03  0.13428936039E+04 -0.10061278356E+04  0.19040432886E+04  0.00000000000E+00 0.  1.
        -11    1    3    3    0    0  0.16191818248E+03  0.25004111694E+03 -0.23301248707E+03  0.37819687613E+03  0.00000000000E+00 0. -1.
         22    1    1    2    0    0 -0.10617650539E+04 -0.15929347208E+04  0.29602426523E+04  0.35253117046E+04  0.00000000000E+00 0. -1.
<mgrwt>
<rscale>  0 0.55466626E+04</rscale>
<asrwt>0</asrwt>
<pdfrwt beam="1">  1        2 0.31434227E+00 0.55466626E+04</pdfrwt>
<pdfrwt beam="2">  1       -2 0.57912724E+00 0.55466626E+04</pdfrwt>
<totfact> 0.27771506E-03</totfact>
</mgrwt>
</event>
<event>
 6    1  0.1762360E-005  0.1108353E+04  0.7818608E-02  0.9197089E-01
          2   -1    0    0  501    0  0.00000000000E+00  0.00000000000E+00  0.46135146324E+03  0.46135146324E+03  0.00000000000E+00 0.  1.
         -2   -1    0    0    0  501 -0.00000000000E+00 -0.00000000000E+00 -0.66567770704E+03  0.66567770704E+03  0.00000000000E+00 0. -1.
         23    2    1    2    0    0 -0.35688615258E+03  0.37662682787E+02  0.32141856056E+03  0.49048081950E+03  0.92061607877E+02 0.  0.
         13    1    3    3    0    0 -0.23665048188E+03 -0.39297426750E+01  0.16338942730E+03  0.28760215299E+03  0.00000000000E+00 0. -1.
        -13    1    3    3    0    0 -0.12023567069E+03  0.41592425462E+02  0.15802913326E+03  0.20287866650E+03  0.00000000000E+00 0.  1.
         22    1    1    2    0    0  0.35688615258E+03 -0.37662682787E+02 -0.52574480435E+03  0.63654835078E+03  0.00000000000E+00 0. -1.
<mgrwt>
<rscale>  0 0.11083526E+04</rscale>
<asrwt>0</asrwt>
<pdfrwt beam="1">  1        2 0.70977148E-01 0.11083526E+04</pdfrwt>
<pdfrwt beam="2">  1       -2 0.10241196E+00 0.11083526E+04</pdfrwt>
<totfact> 0.52352050E+01</totfact>
</mgrwt>
</event>
<event>
 6    1  0.1762360E-005  0.3544119E+04  0.7818608E-02  0.8103413E-01
          2   -1    0    0  501    0  0.00000000000E+00  0.00000000000E+00  0.17347900961E+04  0.17347900961E+04  0.00000000000E+00 0. -1.
         -2   -1    0    0    0  501 -0.00000000000E+00 -0.00000000000E+00 -0.18101298638E+04  0.18101298638E+04  0.00000000000E+00 0.  1.
         23    2    1    2    0    0  0.49657045023E+03  0.64339402825E+02  0.16613765931E+04  0.17374616648E+04  0.88764193229E+02 0.  0.
         13    1    3    3    0    0  0.17171884544E+03  0.37024626500E+02  0.72433891562E+03  0.74533552815E+03  0.00000000000E+00 0.  1.
        -13    1    3    3    0    0  0.32485160479E+03  0.27314776324E+02  0.93703767745E+03  0.99212613669E+03  0.00000000000E+00 0. -1.
         22    1    1    2    0    0 -0.49657045023E+03 -0.64339402825E+02 -0.17367163607E+04  0.18074582951E+04  0.00000000000E+00 0.  1.
<mgrwt>
<rscale>  0 0.35441193E+04</rscale>
<asrwt>0</asrwt>
<pdfrwt beam="1">  1        2 0.26689078E+00 0.35441193E+04</pdfrwt>
<pdfrwt beam="2">  1       -2 0.27848152E+00 0.35441193E+04</pdfrwt>
<totfact> 0.33037485E-01</totfact>
</mgrwt>
</event>
<event>
 6    1  0.1762360E-005  0.3008265E+04  0.7818608E-02  0.8241375E-01
          2   -1    0    0  501    0  0.00000000000E+00  0.00000000000E+00  0.18785784127E+04  0.18785784127E+04  0.00000000000E+00 0. -1.
         -2   -1    0    0    0  501 -0.00000000000E+00 -0.00000000000E+00 -0.12043224865E+04  0.12043224865E+04  0.00000000000E+00 0.  1.
         23    2    1    2    0    0 -0.14476697267E+04  0.14704388823E+03 -0.47324833216E+02  0.14586939126E+04  0.90436432206E+02 0.  0.
         11    1    3    3    0    0 -0.92993091667E+03  0.12736522966E+03 -0.58820352409E+02  0.94045374441E+03  0.00000000000E+00 0.  1.
        -11    1    3    3    0    0 -0.51773881003E+03  0.19678658571E+02  0.11495519194E+02  0.51824016824E+03  0.00000000000E+00 0. -1.
         22    1    1    2    0    0  0.14476697267E+04 -0.14704388823E+03  0.72158075942E+03  0.16242069865E+04  0.00000000000E+00 0. -1.
<mgrwt>
<rscale>  0 0.30082648E+04</rscale>
<asrwt>0</asrwt>
<pdfrwt beam="1">  1        2 0.28901206E+00 0.30082648E+04</pdfrwt>
<pdfrwt beam="2">  1       -2 0.18528038E+00 0.30082648E+04</pdfrwt>
<totfact> 0.11138051E+00</totfact>
</mgrwt>
</event>
<event>
 6    1  0.1762360E-005  0.3575699E+04  0.7818608E-02  0.8096081E-01
          2   -1    0    0  501    0  0.00000000000E+00  0.00000000000E+00  0.13727083034E+04  0.13727083034E+04  0.00000000000E+00 0. -1.
         -2   -1    0    0    0  501 -0.00000000000E+00 -0.00000000000E+00 -0.23285402844E+04  0.23285402844E+04  0.00000000000E+00 0.  1.
         23    2    1    2    0    0  0.71801859713E+03 -0.16290746649E+04 -0.63408655402E+03  0.18921175562E+04  0.92779948825E+02 0.  0.
         11    1    3    3    0    0  0.31781892825E+03 -0.61417008963E+03 -0.23160177901E+03  0.72928262984E+03  0.00000000000E+00 0.  1.
        -11    1    3    3    0    0  0.40019966888E+03 -0.10149045752E+04 -0.40248477501E+03  0.11628349263E+04  0.00000000000E+00 0. -1.
         22    1    1    2    0    0 -0.71801859713E+03  0.16290746649E+04 -0.32174542695E+03  0.18091310315E+04  0.00000000000E+00 0. -1.
<mgrwt>
<rscale>  0 0.35756994E+04</rscale>
<asrwt>0</asrwt>
<pdfrwt beam="1">  1        2 0.21118589E+00 0.35756994E+04</pdfrwt>
<pdfrwt beam="2">  1       -2 0.35823697E+00 0.35756994E+04</pdfrwt>
<totfact> 0.16897916E-01</totfact>
</mgrwt>
</event>
<event>
 6    1  0.1762360E-005  0.1159037E+04  0.7818608E-02  0.9149487E-01
         -2   -1    0    0    0  501 -0.00000000000E+00  0.00000000000E+00  0.24568174107E+03  0.24568174107E+03  0.00000000000E+00 0. -1.
          2   -1    0    0  501    0  0.00000000000E+00 -0.00000000000E+00 -0.13669786374E+04  0.13669786374E+04  0.00000000000E+00 0.  1.
         23    2    1    2    0    0 -0.64912035436E+02  0.51931386411E+03 -0.22970648690E+03  0.57881613490E+03  0.91447176512E+02 0.  0.
         11    1    3    3    0    0 -0.54081988362E+02  0.37866826743E+03 -0.21005597948E+03  0.43639206310E+03  0.00000000000E+00 0. -1.
        -11    1    3    3    0    0 -0.10830047074E+02  0.14064559669E+03 -0.19650507427E+02  0.14242407180E+03  0.00000000000E+00 0.  1.
         22    1    1    2    0    0  0.64912035436E+02 -0.51931386411E+03 -0.89159040946E+03  0.10338442436E+04  0.00000000000E+00 0.  1.
<mgrwt>
<rscale>  0 0.11590370E+04</rscale>
<asrwt>0</asrwt>
<pdfrwt beam="1">  1        2 0.21030441E+00 0.11590370E+04</pdfrwt>
<pdfrwt beam="2">  1       -2 0.37797191E-01 0.11590370E+04</pdfrwt>
<totfact> 0.98711008E+01</totfact>
</mgrwt>
</event>
<event>
 6    1  0.1762360E-005  0.6919981E+04  0.7818608E-02  0.7585744E-01
         -1   -1    0    0    0  501 -0.00000000000E+00  0.00000000000E+00  0.41757352889E+04  0.41757352889E+04  0.00000000000E+00 0.  1.
          1   -1    0    0  501    0  0.00000000000E+00 -0.00000000000E+00 -0.28669285522E+04  0.28669285522E+04  0.00000000000E+00 0. -1.
         23    2    1    2    0    0 -0.19357915932E+04 -0.35352758532E+03 -0.22410939848E+04  0.29838381516E+04  0.92287702659E+02 0.  0.
         11    1    3    3    0    0 -0.12416888864E+04 -0.20685646220E+03 -0.13725542963E+04  0.18623872269E+04  0.00000000000E+00 0.  1.
        -11    1    3    3    0    0 -0.69410270684E+03 -0.14667112312E+03 -0.86853968851E+03  0.11214509247E+04  0.00000000000E+00 0. -1.
         22    1    1    2    0    0  0.19357915932E+04  0.35352758532E+03  0.35499007215E+04  0.40588256895E+04  0.00000000000E+00 0.  1.
<mgrwt>
<rscale>  0 0.69199811E+04</rscale>
<asrwt>0</asrwt>
<pdfrwt beam="1">  1        1 0.44106593E+00 0.69199811E+04</pdfrwt>
<pdfrwt beam="2">  1       -1 0.64242081E+00 0.69199811E+04</pdfrwt>
<totfact> 0.14859971E-04</totfact>
</mgrwt>
</event>
<event>
 6    1  0.1762360E-005  0.2348990E+04  0.7818608E-02  0.8458852E-01
          1   -1    0    0  501    0  0.00000000000E+00  0.00000000000E+00  0.16309067485E+04  0.16309067485E+04  0.00000000000E+00 0. -1.
         -1   -1    0    0    0  501 -0.00000000000E+00 -0.00000000000E+00 -0.84581074887E+03  0.84581074887E+03  0.00000000000E+00 0.  1.
         23    2    1    2    0    0  0.95902674831E+03 -0.39137538742E+03 -0.18667434044E+03  0.10564201371E+04  0.90935135107E+02 0.  0.
         13    1    3    3    0    0  0.86473901760E+03 -0.36639627910E+03 -0.14473802058E+03  0.95024675558E+03  0.00000000000E+00 0.  1.
        -13    1    3    3    0    0  0.94287730711E+02 -0.24979108328E+02 -0.41936319861E+02  0.10617338150E+03  0.00000000000E+00 0. -1.
         22    1    1    2    0    0 -0.95902674831E+03  0.39137538742E+03  0.97177034010E+03  0.14202973603E+04  0.00000000000E+00 0. -1.
<mgrwt>
<rscale>  0 0.23489900E+04</rscale>
<asrwt>0</asrwt>
<pdfrwt beam="1">  1        1 0.25090873E+00 0.23489900E+04</pdfrwt>
<pdfrwt beam="2">  1       -1 0.13012473E+00 0.23489900E+04</pdfrwt>
<totfact> 0.24197514E+00</totfact>
</mgrwt>
</event>
<event>
 6    1  0.1762360E-005  0.1787155E+04  0.7818608E-02  0.8713160E-01
          2   -1    0    0  501    0  0.00000000000E+00  0.00000000000E+00  0.14152552199E+04  0.14152552199E+04  0.00000000000E+00 0. -1.
         -2   -1    0    0    0  501 -0.00000000000E+00 -0.00000000000E+00 -0.56419548108E+03  0.56419548108E+03  0.00000000000E+00 0.  1.
         23    2    1    2    0    0 -0.72839420402E+03  0.26210211552E+03  0.91554127492E+03  0.12026537494E+04  0.94364079221E+02 0.  0.
         13    1    3    3    0    0 -0.42132008189E+03  0.18698262529E+03  0.59222907975E+03  0.75047211572E+03  0.00000000000E+00 0.  1.
        -13    1    3    3    0    0 -0.30707412213E+03  0.75119490227E+02  0.32331219517E+03  0.45218163368E+03  0.00000000000E+00 0. -1.
         22    1    1    2    0    0  0.72839420402E+03 -0.26210211552E+03 -0.64481536151E+02  0.77679695154E+03  0.00000000000E+00 0.  1.
<mgrwt>
<rscale>  0 0.17871548E+04</rscale>
<asrwt>0</asrwt>
<pdfrwt beam="1">  1        2 0.21773157E+00 0.17871548E+04</pdfrwt>
<pdfrwt beam="2">  1       -2 0.86799305E-01 0.17871548E+04</pdfrwt>
<totfact> 0.15395630E+01</totfact>
</mgrwt>
</event>
<event>
 6    1  0.1762360E-005  0.1715522E+04  0.7818608E-02  0.8752561E-01
          1   -1    0    0  501    0  0.00000000000E+00  0.00000000000E+00  0.45389163791E+03  0.45389163791E+03  0.00000000000E+00 0. -1.
         -1   -1    0    0    0  501 -0.00000000000E+00 -0.00000000000E+00 -0.16209907231E+04  0.16209907231E+04  0.00000000000E+00 0.  1.
         23    2    1    2    0    0  0.76696324276E+03  0.14478485877E+03 -0.10082722075E+04  0.12783767124E+04  0.91863504228E+02 0.  0.
         13    1    3    3    0    0  0.55338136867E+03  0.73399548530E+02 -0.67119901929E+03  0.87299860046E+03  0.00000000000E+00 0.  1.
        -13    1    3    3    0    0  0.21358187410E+03  0.71385310239E+02 -0.33707318820E+03  0.40537811197E+03  0.00000000000E+00 0. -1.
         22    1    1    2    0    0 -0.76696324276E+03 -0.14478485877E+03 -0.15882687765E+03  0.79650564853E+03  0.00000000000E+00 0. -1.
<mgrwt>
<rscale>  0 0.17155222E+04</rscale>
<asrwt>0</asrwt>
<pdfrwt beam="1">  1        1 0.69829485E-01 0.17155222E+04</pdfrwt>
<pdfrwt beam="2">  1       -1 0.24938318E+00 0.17155222E+04</pdfrwt>
<totfact> 0.33852511E+00</totfact>
</mgrwt>
</event>
<event>
 6    1  0.1762360E-005  0.2904813E+04  0.7818608E-02  0.8271447E-01
         -2   -1    0    0    0  501 -0.00000000000E+00  0.00000000000E+00  0.19044212495E+04  0.19044212495E+04  0.00000000000E+00 0.  1.
          2   -1    0    0  501    0  0.00000000000E+00 -0.00000000000E+00 -0.11076778319E+04  0.11076778319E+04  0.00000000000E+00 0. -1.
         23    2    1    2    0    0  0.44826356526E+03 -0.12399083959E+04  0.10271592544E+04  0.16736654775E+04  0.88243655298E+02 0.  0.
         11    1    3    3    0    0  0.51723732933E+02 -0.21530235393E+03  0.20081898137E+03  0.29892927497E+03  0.00000000000E+00 0. -1.
        -11    1    3    3    0    0  0.39653983233E+03 -0.10246060420E+04  0.82634027298E+03  0.13747362025E+04  0.00000000000E+00 0.  1.
         22    1    1    2    0    0 -0.44826356526E+03  0.12399083959E+04 -0.23041583677E+03  0.13384336039E+04  0.00000000000E+00 0. -1.
<mgrwt>
<rscale>  0 0.29048134E+04</rscale>
<asrwt>0</asrwt>
<pdfrwt beam="1">  1        2 0.17041197E+00 0.29048134E+04</pdfrwt>
<pdfrwt beam="2">  1       -2 0.29298788E+00 0.29048134E+04</pdfrwt>
<totfact> 0.65222184E-01</totfact>
</mgrwt>
</event>
<event>
 6    1  0.1762360E-005  0.1223330E+04  0.7818608E-02  0.9092677E-01
         -2   -1    0    0    0  501 -0.00000000000E+00  0.00000000000E+00  0.39109473866E+03  0.39109473866E+03  0.00000000000E+00 0.  1.
          2   -1    0    0  501    0  0.00000000000E+00 -0.00000000000E+00 -0.95663281097E+03  0.95663281097E+03  0.00000000000E+00 0. -1.
         23    2    1    2    0    0  0.10119568047E+03 -0.94006877553E+02 -0.93690113246E+03  0.95150995636E+03  0.92247527255E+02 0.  0.
         13    1    3    3    0    0  0.63026147200E+02 -0.89683277719E+02 -0.45247289738E+03  0.46556106838E+03  0.00000000000E+00 0. -1.
        -13    1    3    3    0    0  0.38169533271E+02 -0.43235998334E+01 -0.48442823508E+03  0.48594888798E+03  0.00000000000E+00 0.  1.
         22    1    1    2    0    0 -0.10119568047E+03  0.94006877553E+02  0.37136306015E+03  0.39621759327E+03  0.00000000000E+00 0.  1.
<mgrwt>
<rscale>  0 0.12233300E+04</rscale>
<asrwt>0</asrwt>
<pdfrwt beam="1">  1        2 0.14717428E+00 0.12233300E+04</pdfrwt>
<pdfrwt beam="2">  1       -2 0.60168422E-01 0.12233300E+04</pdfrwt>
<totfact> 0.68191142E+01</totfact>
</mgrwt>
</event>
<event>
 6    1  0.1762360E-005  0.2693517E+04  0.7818608E-02  0.8337112E-01
         -2   -1    0    0    0  501 -0.00000000000E+00  0.00000000000E+00  0.75907922615E+03  0.75907922615E+03  0.00000000000E+00 0. -1.
          2   -1    0    0  501    0  0.00000000000E+00 -0.00000000000E+00 -0.23894186751E+04  0.23894186751E+04  0.00000000000E+00 0.  1.
         23    2    1    2    0    0 -0.37515860734E+03 -0.12626987563E+04 -0.11363981420E+04  0.17416822969E+04  0.83092457062E+02 0.  0.
         11    1    3    3    0    0 -0.72051373109E+02 -0.17444080229E+03 -0.19222374887E+03  0.26938998403E+03  0.00000000000E+00 0.  1.
        -11    1    3    3    0    0 -0.30310723423E+03 -0.10882579540E+04 -0.94417439309E+03  0.14722923129E+04  0.00000000000E+00 0. -1.
         22    1    1    2    0    0  0.37515860734E+03  0.12626987563E+04 -0.49394130698E+03  0.14068156043E+04  0.00000000000E+00 0. -1.
<mgrwt>
<rscale>  0 0.26935167E+04</rscale>
<asrwt>0</asrwt>
<pdfrwt beam="1">  1        2 0.36760288E+00 0.26935167E+04</pdfrwt>
<pdfrwt beam="2">  1       -2 0.11678142E+00 0.26935167E+04</pdfrwt>
<totfact> 0.20091221E+00</totfact>
</mgrwt>
</event>
<event>
 6    1  0.1762360E-005  0.3704190E+04  0.7818608E-02  0.8067034E-01
         -1   -1    0    0    0  501 -0.00000000000E+00  0.00000000000E+00  0.80255634579E+03  0.80255634579E+03  0.00000000000E+00 0.  1.
          1   -1    0    0  501    0  0.00000000000E+00 -0.00000000000E+00 -0.42741617450E+04  0.42741617450E+04  0.00000000000E+00 0. -1.
         23    2    1    2    0    0  0.60871953506E+03 -0.10264680438E+04  0.20230129933E+03  0.12138478436E+04  0.91239543605E+02 0.  0.
         13    1    3    3    0    0  0.26881955770E+03 -0.45632921947E+03  0.13579516877E+03  0.54675464242E+03  0.00000000000E+00 0. -1.
        -13    1    3    3    0    0  0.33989997736E+03 -0.57013882432E+03  0.66506130554E+02  0.66709320114E+03  0.00000000000E+00 0.  1.
         22    1    1    2    0    0 -0.60871953506E+03  0.10264680438E+04 -0.36739066985E+04  0.38628702472E+04  0.00000000000E+00 0. -1.
<mgrwt>
<rscale>  0 0.37041899E+04</rscale>
<asrwt>0</asrwt>
<pdfrwt beam="1">  1        1 0.65756336E+00 0.37041899E+04</pdfrwt>
<pdfrwt beam="2">  1       -1 0.12347020E+00 0.37041899E+04</pdfrwt>
<totfact> 0.24828468E-02</totfact>
</mgrwt>
</event>
<event>
 6    1  0.1762360E-005  0.1177438E+04  0.7818608E-02  0.9132838E-01
          1   -1    0    0  501    0  0.00000000000E+00  0.00000000000E+00  0.76190327885E+03  0.76190327885E+03  0.00000000000E+00 0. -1.
         -1   -1    0    0    0  501 -0.00000000000E+00 -0.00000000000E+00 -0.45489997989E+03  0.45489997989E+03  0.00000000000E+00 0.  1.
         23    2    1    2    0    0 -0.47331413325E+03 -0.24427921339E+03 -0.96627517582E+02  0.54850958162E+03  0.88471922962E+02 0.  0.
         13    1    3    3    0    0 -0.83088323062E+02 -0.72117398012E+02  0.47051410199E+01  0.11012141879E+03  0.00000000000E+00 0.  1.
        -13    1    3    3    0    0 -0.39022581019E+03 -0.17216181537E+03 -0.10133265860E+03  0.43838816283E+03  0.00000000000E+00 0. -1.
         22    1    1    2    0    0  0.47331413325E+03  0.24427921339E+03  0.40363081654E+03  0.66829367712E+03  0.00000000000E+00 0. -1.
<mgrwt>
<rscale>  0 0.11774375E+04</rscale>
<asrwt>0</asrwt>
<pdfrwt beam="1">  1        1 0.11721589E+00 0.11774375E+04</pdfrwt>
<pdfrwt beam="2">  1       -1 0.69984612E-01 0.11774375E+04</pdfrwt>
<totfact> 0.48909757E+01</totfact>
</mgrwt>
</event>
<event>
 6    1  0.1762360E-005  0.2072041E+04  0.7818608E-02  0.8573661E-01
         -1   -1    0    0    0  501 -0.00000000000E+00  0.00000000000E+00  0.81229111197E+03  0.81229111197E+03  0.00000000000E+00 0.  1.
          1   -1    0    0  501    0  0.00000000000E+00 -0.00000000000E+00 -0.13213713235E+04  0.13213713235E+04  0.00000000000E+00 0. -1.
         23    2    1    2    0    0 -0.99185106829E+03  0.11350156956E+03  0.22398084753E+02  0.10026804164E+04  0.90637714680E+02 0.  0.
         13    1    3    3    0    0 -0.56701800058E+03  0.60532789985E+02 -0.31882901654E+02  0.57113059020E+03  0.00000000000E+00 0. -1.
        -13    1    3    3    0    0 -0.42483306770E+03  0.52968779575E+02  0.54280986407E+02  0.43154982622E+03  0.00000000000E+00 0.  1.
         22    1    1    2    0    0  0.99185106829E+03 -0.11350156956E+03 -0.53147829625E+03  0.11309820190E+04  0.00000000000E+00 0. -1.
<mgrwt>
<rscale>  0 0.20720407E+04</rscale>
<asrwt>0</asrwt>
<pdfrwt beam="1">  1        1 0.20328789E+00 0.20720407E+04</pdfrwt>
<pdfrwt beam="2">  1       -1 0.12496786E+00 0.20720407E+04</pdfrwt>
<totfact> 0.45088493E+00</totfact>
</mgrwt>
</event>
<event>
 6    1  0.1762360E-005  0.2647119E+04  0.7818608E-02  0.8352370E-01
          2   -1    0    0  501    0  0.00000000000E+00  0.00000000000E+00  0.87347996364E+03  0.87347996364E+03  0.00000000000E+00 0.  1.
         -2   -1    0    0    0  501 -0.00000000000E+00 -0.00000000000E+00 -0.20055520772E+04  0.20055520772E+04  0.00000000000E+00 0. -1.
         23    2    1    2    0    0  0.90876650134E+03  0.78918038736E+03 -0.11612900518E+04  0.16750736007E+04  0.92815654069E+02 0.  0.
         13    1    3    3    0    0  0.39648419766E+03  0.40497795411E+03 -0.53569453580E+03  0.77985607518E+03  0.00000000000E+00 0. -1.
        -13    1    3    3    0    0  0.51228230368E+03  0.38420243324E+03 -0.62559551600E+03  0.89521752553E+03  0.00000000000E+00 0.  1.
         22    1    1    2    0    0 -0.90876650134E+03 -0.78918038736E+03  0.29217938199E+02  0.12039584402E+04  0.00000000000E+00 0.  1.
<mgrwt>
<rscale>  0 0.26471189E+04</rscale>
<asrwt>0</asrwt>
<pdfrwt beam="1">  1        2 0.13438154E+00 0.26471189E+04</pdfrwt>
<pdfrwt beam="2">  1       -2 0.30854647E+00 0.26471189E+04</pdfrwt>
<totfact> 0.75883901E-01</totfact>
</mgrwt>
</event>
<event>
 6    1  0.1762360E-005  0.4435793E+04  0.7818608E-02  0.7921975E-01
          2   -1    0    0  501    0  0.00000000000E+00  0.00000000000E+00  0.34060224689E+04  0.34060224689E+04  0.00000000000E+00 0. -1.
         -2   -1    0    0    0  501 -0.00000000000E+00 -0.00000000000E+00 -0.14442258004E+04  0.14442258004E+04  0.00000000000E+00 0.  1.
         23    2    1    2    0    0 -0.10612288736E+04 -0.14606880778E+04 -0.42522060025E+03  0.18573119480E+04  0.94756162898E+02 0.  0.
         11    1    3    3    0    0 -0.38420165359E+03 -0.60297912843E+03 -0.18432392328E+03  0.73835631550E+03  0.00000000000E+00 0.  1.
        -11    1    3    3    0    0 -0.67702722002E+03 -0.85770894935E+03 -0.24089667697E+03  0.11189556325E+04  0.00000000000E+00 0. -1.
         22    1    1    2    0    0  0.10612288736E+04  0.14606880778E+04  0.23870172687E+04  0.29929363214E+04  0.00000000000E+00 0. -1.
<mgrwt>
<rscale>  0 0.44357933E+04</rscale>
<asrwt>0</asrwt>
<pdfrwt beam="1">  1        2 0.52400346E+00 0.44357933E+04</pdfrwt>
<pdfrwt beam="2">  1       -2 0.22218859E+00 0.44357933E+04</pdfrwt>
<totfact> 0.68751746E-02</totfact>
</mgrwt>
</event>
<event>
 6    1  0.1762360E-005  0.6895067E+03  0.7818608E-02  0.9735347E-01
         -1   -1    0    0    0  501 -0.00000000000E+00  0.00000000000E+00  0.33416456572E+03  0.33416456572E+03  0.00000000000E+00 0.  1.
          1   -1    0    0  501    0  0.00000000000E+00 -0.00000000000E+00 -0.35567761887E+03  0.35567761887E+03  0.00000000000E+00 0. -1.
         23    2    1    2    0    0 -0.41201680503E+02  0.20534185583E+03 -0.27688893963E+03  0.35957002465E+03  0.93596268655E+02 0.  0.
         11    1    3    3    0    0  0.14160199619E+02  0.70455561559E+02 -0.14982064343E+03  0.16616474537E+03  0.00000000000E+00 0. -1.
        -11    1    3    3    0    0 -0.55361880122E+02  0.13488629428E+03 -0.12706829621E+03  0.19340527928E+03  0.00000000000E+00 0.  1.
         22    1    1    2    0    0  0.41201680503E+02 -0.20534185583E+03  0.25537588649E+03  0.33027215994E+03  0.00000000000E+00 0.  1.
<mgrwt>
<rscale>  0 0.68950666E+03</rscale>
<asrwt>0</asrwt>
<pdfrwt beam="1">  1        1 0.54719634E-01 0.68950666E+03</pdfrwt>
<pdfrwt beam="2">  1       -1 0.51409933E-01 0.68950666E+03</pdfrwt>
<totfact> 0.27055116E+02</totfact>
</mgrwt>
</event>
<event>
 6    1  0.1762360E-005  0.1569755E+04  0.7818608E-02  0.8839347E-01
         -1   -1    0    0    0  501 -0.00000000000E+00  0.00000000000E+00  0.38697928827E+03  0.38697928827E+03  0.00000000000E+00 0.  1.
          1   -1    0    0  501    0  0.00000000000E+00 -0.00000000000E+00 -0.15919010472E+04  0.15919010472E+04  0.00000000000E+00 0. -1.
         23    2    1    2    0    0  0.53991977496E+03 -0.16816891437E+03 -0.12859664341E+04  0.14075989806E+04  0.88493351481E+02 0.  0.
         11    1    3    3    0    0  0.28287755915E+03 -0.10724052378E+03 -0.58680885319E+03  0.66020063132E+03  0.00000000000E+00 0. -1.
        -11    1    3    3    0    0  0.25704221581E+03 -0.60928390598E+02 -0.69915758092E+03  0.74739834923E+03  0.00000000000E+00 0.  1.
         22    1    1    2    0    0 -0.53991977496E+03  0.16816891437E+03  0.81044675133E+02  0.57128135495E+03  0.00000000000E+00 0.  1.
<mgrwt>
<rscale>  0 0.15697551E+04</rscale>
<asrwt>0</asrwt>
<pdfrwt beam="1">  1        1 0.24490785E+00 0.15697551E+04</pdfrwt>
<pdfrwt beam="2">  1       -1 0.59535276E-01 0.15697551E+04</pdfrwt>
<totfact> 0.15550065E+01</totfact>
</mgrwt>
</event>
<event>
 6    1  0.1762360E-005  0.2351269E+04  0.7818608E-02  0.8457976E-01
          4   -1    0    0  501    0  0.00000000000E+00  0.00000000000E+00  0.73781319049E+03  0.73781319049E+03  0.00000000000E+00 0.  1.
         -4   -1    0    0    0  501 -0.00000000000E+00 -0.00000000000E+00 -0.18732611078E+04  0.18732611078E+04  0.00000000000E+00 0. -1.
         23    2    1    2    0    0  0.14406461856E+03 -0.14139638617E+03 -0.18527368042E+04  0.18659227032E+04  0.91029205892E+02 0.  0.
         11    1    3    3    0    0  0.63351802854E+02 -0.12297938385E+02 -0.39250050415E+03  0.39777045639E+03  0.00000000000E+00 0. -1.
        -11    1    3    3    0    0  0.80712815707E+02 -0.12909844779E+03 -0.14602363001E+04  0.14681522468E+04  0.00000000000E+00 0.  1.
         22    1    1    2    0    0 -0.14406461856E+03  0.14139638617E+03  0.71728888692E+03  0.74515159507E+03  0.00000000000E+00 0.  1.
<mgrwt>
<rscale>  0 0.23512692E+04</rscale>
<asrwt>0</asrwt>
<pdfrwt beam="1">  1        4 0.11350972E+00 0.23512692E+04</pdfrwt>
<pdfrwt beam="2">  1       -4 0.28819402E+00 0.23512692E+04</pdfrwt>
<totfact> 0.40079307E-02</totfact>
</mgrwt>
</event>
<event>
 6    1  0.1762360E-005  0.1796954E+04  0.7818608E-02  0.8707921E-01
         -2   -1    0    0    0  501 -0.00000000000E+00  0.00000000000E+00  0.33815269932E+03  0.33815269932E+03  0.00000000000E+00 0.  1.
          2   -1    0    0  501    0  0.00000000000E+00 -0.00000000000E+00 -0.23872663338E+04  0.23872663338E+04  0.00000000000E+00 0. -1.
         23    2    1    2    0    0  0.68589295271E+03  0.14657494812E+03 -0.18732420435E+04  0.20023255575E+04  0.91315533382E+02 0.  0.
         11    1    3    3    0    0  0.38807869837E+03  0.55446718384E+02 -0.11461764176E+04  0.12113627842E+04  0.00000000000E+00 0. -1.
        -11    1    3    3    0    0  0.29781425434E+03  0.91128229738E+02 -0.72706562588E+03  0.79096277326E+03  0.00000000000E+00 0.  1.
         22    1    1    2    0    0 -0.68589295271E+03 -0.14657494812E+03 -0.17587159099E+03  0.72309347564E+03  0.00000000000E+00 0.  1.
<mgrwt>
<rscale>  0 0.17969536E+04</rscale>
<asrwt>0</asrwt>
<pdfrwt beam="1">  1        2 0.36727173E+00 0.17969536E+04</pdfrwt>
<pdfrwt beam="2">  1       -2 0.52023494E-01 0.17969536E+04</pdfrwt>
<totfact> 0.13328593E+01</totfact>
</mgrwt>
</event>
<event>
 6    1  0.2438391E-005  0.4357644E+04  0.7818608E-02  0.7936044E-01
          2   -1    0    0  501    0  0.00000000000E+00  0.00000000000E+00  0.34075924988E+04  0.34075924988E+04  0.00000000000E+00 0. -1.
         -2   -1    0    0    0  501 -0.00000000000E+00 -0.00000000000E+00 -0.13931434731E+04  0.13931434731E+04  0.00000000000E+00 0.  1.
         23    2    1    2    0    0 -0.77685214458E+03  0.52267018250E+03  0.31739460222E+04  0.33103948502E+04  0.89985208990E+02 0.  0.
         11    1    3    3    0    0 -0.56160353998E+03  0.40721577885E+03  0.22336661341E+04  0.23389073571E+04  0.00000000000E+00 0. -1.
        -11    1    3    3    0    0 -0.21524860460E+03  0.11545440365E+03  0.94027988813E+03  0.97148749304E+03  0.00000000000E+00 0.  1.
         22    1    1    2    0    0  0.77685214458E+03 -0.52267018250E+03 -0.11594969965E+04  0.14903411217E+04  0.00000000000E+00 0.  1.
<mgrwt>
<rscale>  0 0.43576440E+04</rscale>
<asrwt>0</asrwt>
<pdfrwt beam="1">  1        2 0.52424500E+00 0.43576440E+04</pdfrwt>
<pdfrwt beam="2">  1       -2 0.21432977E+00 0.43576440E+04</pdfrwt>
<totfact> 0.77431146E-02</totfact>
</mgrwt>
</event>
<event>
 6    1  0.1762360E-005  0.1587628E+04  0.7818608E-02  0.8828185E-01
         -1   -1    0    0    0  501 -0.00000000000E+00  0.00000000000E+00  0.30397782585E+03  0.30397782585E+03  0.00000000000E+00 0.  1.
          1   -1    0    0  501    0  0.00000000000E+00 -0.00000000000E+00 -0.20729823185E+04  0.20729823185E+04  0.00000000000E+00 0. -1.
         23    2    1    2    0    0  0.37068558724E+03  0.46632090464E+03 -0.10816725104E+03  0.61252161218E+03  0.92841695909E+02 0.  0.
         13    1    3    3    0    0  0.59166135366E+01  0.43215554869E+02 -0.59709257089E+00  0.43622780951E+02  0.00000000000E+00 0.  1.
        -13    1    3    3    0    0  0.36476897370E+03  0.42310534977E+03 -0.10757015847E+03  0.56889883123E+03  0.00000000000E+00 0. -1.
         22    1    1    2    0    0 -0.37068558724E+03 -0.46632090464E+03 -0.16608372416E+04  0.17644385322E+04  0.00000000000E+00 0. -1.
<mgrwt>
<rscale>  0 0.15876280E+04</rscale>
<asrwt>0</asrwt>
<pdfrwt beam="1">  1        1 0.31892036E+00 0.15876280E+04</pdfrwt>
<pdfrwt beam="2">  1       -1 0.46765819E-01 0.15876280E+04</pdfrwt>
<totfact> 0.11641449E+01</totfact>
</mgrwt>
</event>
<event>
 6    1  0.1762360E-005  0.2067369E+04  0.7818608E-02  0.8575755E-01
         -2   -1    0    0    0  501 -0.00000000000E+00  0.00000000000E+00  0.43234136652E+03  0.43234136652E+03  0.00000000000E+00 0.  1.
          2   -1    0    0  501    0  0.00000000000E+00 -0.00000000000E+00 -0.24714348798E+04  0.24714348798E+04  0.00000000000E+00 0. -1.
         23    2    1    2    0    0  0.26037854108E+03  0.45210494327E+03 -0.22714661093E+04  0.23326432603E+04  0.97316133133E+02 0.  0.
         11    1    3    3    0    0  0.53210810640E+02  0.65981010382E+02 -0.53881369104E+03  0.54544026048E+03  0.00000000000E+00 0.  1.
        -11    1    3    3    0    0  0.20716773044E+03  0.38612393289E+03 -0.17326524182E+04  0.17872029998E+04  0.00000000000E+00 0. -1.
         22    1    1    2    0    0 -0.26037854108E+03 -0.45210494327E+03  0.23237259598E+03  0.57113298605E+03  0.00000000000E+00 0.  1.
<mgrwt>
<rscale>  0 0.20673689E+04</rscale>
<asrwt>0</asrwt>
<pdfrwt beam="1">  1        2 0.38022074E+00 0.20673689E+04</pdfrwt>
<pdfrwt beam="2">  1       -2 0.66514058E-01 0.20673689E+04</pdfrwt>
<totfact> 0.69435412E+00</totfact>
</mgrwt>
</event>
<event>
 6    1  0.1762360E-005  0.7398409E+03  0.7818608E-02  0.9651425E-01
         -2   -1    0    0    0  501 -0.00000000000E+00  0.00000000000E+00  0.36193293558E+03  0.36193293558E+03  0.00000000000E+00 0.  1.
          2   -1    0    0  501    0  0.00000000000E+00 -0.00000000000E+00 -0.37808422479E+03  0.37808422479E+03  0.00000000000E+00 0. -1.
         23    2    1    2    0    0 -0.39747021113E+02 -0.32217778966E+03  0.15692452460E+03  0.37214001897E+03  0.92111527305E+02 0.  0.
         11    1    3    3    0    0  0.13495095618E+02 -0.19654952774E+03  0.64353061057E+02  0.20725624460E+03  0.00000000000E+00 0. -1.
        -11    1    3    3    0    0 -0.53242116731E+02 -0.12562826192E+03  0.92571463548E+02  0.16488377437E+03  0.00000000000E+00 0.  1.
         22    1    1    2    0    0  0.39747021113E+02  0.32217778966E+03 -0.17307581381E+03  0.36787714140E+03  0.00000000000E+00 0. -1.
<mgrwt>
<rscale>  0 0.73984088E+03</rscale>
<asrwt>0</asrwt>
<pdfrwt beam="1">  1        2 0.58166804E-01 0.73984088E+03</pdfrwt>
<pdfrwt beam="2">  1       -2 0.55681990E-01 0.73984088E+03</pdfrwt>
<totfact> 0.25906133E+02</totfact>
</mgrwt>
</event>
<event>
 6    1  0.1762360E-005  0.3274383E+04  0.7818608E-02  0.8169444E-01
          2   -1    0    0  501    0  0.00000000000E+00  0.00000000000E+00  0.29825244928E+04  0.29825244928E+04  0.00000000000E+00 0.  1.
         -2   -1    0    0    0  501 -0.00000000000E+00 -0.00000000000E+00 -0.89870048473E+03  0.89870048473E+03  0.00000000000E+00 0. -1.
         23    2    1    2    0    0 -0.12616529488E+04  0.10118693776E+03 -0.18586107169E+03  0.12824796416E+04  0.90568944148E+02 0.  0.
         11    1    3    3    0    0 -0.27996502223E+03 -0.88636948593E+01 -0.62244404030E+02  0.28693787584E+03  0.00000000000E+00 0.  1.
        -11    1    3    3    0    0 -0.98168792658E+03  0.11005063262E+03 -0.12361666766E+03  0.99554176580E+03  0.00000000000E+00 0. -1.
         22    1    1    2    0    0  0.12616529488E+04 -0.10118693776E+03  0.22696850797E+04  0.25987453359E+04  0.00000000000E+00 0.  1.
<mgrwt>
<rscale>  0 0.32743831E+04</rscale>
<asrwt>0</asrwt>
<pdfrwt beam="1">  1        2 0.45884992E+00 0.32743831E+04</pdfrwt>
<pdfrwt beam="2">  1       -2 0.13826161E+00 0.32743831E+04</pdfrwt>
<totfact> 0.55405635E-01</totfact>
</mgrwt>
</event>
<event>
 6    1  0.1762360E-005  0.2341255E+04  0.7818608E-02  0.8461830E-01
          1   -1    0    0  501    0  0.00000000000E+00  0.00000000000E+00  0.20368249180E+04  0.20368249180E+04  0.00000000000E+00 0. -1.
         -1   -1    0    0    0  501 -0.00000000000E+00 -0.00000000000E+00 -0.67279631494E+03  0.67279631494E+03  0.00000000000E+00 0.  1.
         23    2    1    2    0    0  0.18066350664E+03  0.11301192432E+04  0.95813594537E+03  0.14953075766E+04  0.90063601082E+02 0.  0.
         11    1    3    3    0    0  0.65963640843E+02  0.68326421951E+03  0.55846480859E+03  0.88492041338E+03  0.00000000000E+00 0. -1.
        -11    1    3    3    0    0  0.11469986579E+03  0.44685502369E+03  0.39967113678E+03  0.61038716319E+03  0.00000000000E+00 0.  1.
         22    1    1    2    0    0 -0.18066350664E+03 -0.11301192432E+04  0.40589265767E+03  0.12143136564E+04  0.00000000000E+00 0.  1.
<mgrwt>
<rscale>  0 0.23412546E+04</rscale>
<asrwt>0</asrwt>
<pdfrwt beam="1">  1        1 0.31335768E+00 0.23412546E+04</pdfrwt>
<pdfrwt beam="2">  1       -1 0.10350713E+00 0.23412546E+04</pdfrwt>
<totfact> 0.22298757E+00</totfact>
</mgrwt>
</event>
<event>
 6    1  0.1762360E-005  0.2844379E+04  0.7818608E-02  0.8289622E-01
         -1   -1    0    0    0  501 -0.00000000000E+00  0.00000000000E+00  0.26352330289E+04  0.26352330289E+04  0.00000000000E+00 0.  1.
          1   -1    0    0  501    0  0.00000000000E+00 -0.00000000000E+00 -0.76753072069E+03  0.76753072069E+03  0.00000000000E+00 0. -1.
         23    2    1    2    0    0 -0.19638527467E+03  0.45569320181E+03 -0.65784143799E+03  0.82893495104E+03  0.90301302588E+02 0.  0.
         13    1    3    3    0    0 -0.55909339329E+01  0.60309207396E+02 -0.12208510440E+03  0.13628364449E+03  0.00000000000E+00 0. -1.
        -13    1    3    3    0    0 -0.19079434073E+03  0.39538399441E+03 -0.53575633359E+03  0.69265130656E+03  0.00000000000E+00 0.  1.
         22    1    1    2    0    0  0.19638527467E+03 -0.45569320181E+03  0.25255437462E+04  0.25738287986E+04  0.00000000000E+00 0.  1.
<mgrwt>
<rscale>  0 0.28443785E+04</rscale>
<asrwt>0</asrwt>
<pdfrwt beam="1">  1        1 0.11808165E+00 0.28443785E+04</pdfrwt>
<pdfrwt beam="2">  1       -1 0.40542046E+00 0.28443785E+04</pdfrwt>
<totfact> 0.13370969E-01</totfact>
</mgrwt>
</event>
<event>
 6    1  0.1762360E-005  0.1743684E+04  0.7818608E-02  0.8736834E-01
         -2   -1    0    0    0  501 -0.00000000000E+00  0.00000000000E+00  0.13268303054E+04  0.13268303054E+04  0.00000000000E+00 0. -1.
          2   -1    0    0  501    0  0.00000000000E+00 -0.00000000000E+00 -0.57287557193E+03  0.57287557193E+03  0.00000000000E+00 0.  1.
         23    2    1    2    0    0 -0.40286028087E+03  0.93590903571E+02  0.12111610274E+04  0.12831888391E+04  0.92773376278E+02 0.  0.
         13    1    3    3    0    0 -0.69824306979E+02  0.53360322340E+02  0.22627450585E+03  0.24274041658E+03  0.00000000000E+00 0.  1.
        -13    1    3    3    0    0 -0.33303597389E+03  0.40230581231E+02  0.98488652158E+03  0.10404484225E+04  0.00000000000E+00 0. -1.
         22    1    1    2    0    0  0.40286028087E+03 -0.93590903571E+02 -0.45720629398E+03  0.61651703820E+03  0.00000000000E+00 0.  1.
<mgrwt>
<rscale>  0 0.17436842E+04</rscale>
<asrwt>0</asrwt>
<pdfrwt beam="1">  1        2 0.88134704E-01 0.17436842E+04</pdfrwt>
<pdfrwt beam="2">  1       -2 0.20412774E+00 0.17436842E+04</pdfrwt>
<totfact> 0.62098477E+00</totfact>
</mgrwt>
</event>
<event>
 6    1  0.1762360E-005  0.4960128E+03  0.7818608E-02  0.1014825E+00
         -2   -1    0    0    0  501 -0.00000000000E+00  0.00000000000E+00  0.42578251340E+03  0.42578251340E+03  0.00000000000E+00 0. -1.
          2   -1    0    0  501    0  0.00000000000E+00 -0.00000000000E+00 -0.14445677391E+03  0.14445677391E+03  0.00000000000E+00 0.  1.
         23    2    1    2    0    0 -0.10760895432E+02 -0.11786528452E+03  0.38472872331E+03  0.41307631703E+03  0.92778397196E+02 0.  0.
         11    1    3    3    0    0  0.35483076982E+02 -0.57715467311E+02  0.24359782773E+03  0.25284387592E+03  0.00000000000E+00 0. -1.
        -11    1    3    3    0    0 -0.46243972414E+02 -0.60149817207E+02  0.14113089558E+03  0.16023244111E+03  0.00000000000E+00 0.  1.
         22    1    1    2    0    0  0.10760895432E+02  0.11786528452E+03 -0.10340298382E+03  0.15716297028E+03  0.00000000000E+00 0.  1.
<mgrwt>
<rscale>  0 0.49601278E+03</rscale>
<asrwt>0</asrwt>
<pdfrwt beam="1">  1        2 0.22224119E-01 0.49601278E+03</pdfrwt>
<pdfrwt beam="2">  1       -2 0.65505001E-01 0.49601278E+03</pdfrwt>
<totfact> 0.54346312E+02</totfact>
</mgrwt>
</event>
<event>
 6    1  0.1762360E-005  0.2884800E+04  0.7818608E-02  0.8277414E-01
         -2   -1    0    0    0  501 -0.00000000000E+00  0.00000000000E+00  0.13681697585E+04  0.13681697585E+04  0.00000000000E+00 0.  1.
          2   -1    0    0  501    0  0.00000000000E+00 -0.00000000000E+00 -0.15206577409E+04  0.15206577409E+04  0.00000000000E+00 0. -1.
         23    2    1    2    0    0 -0.59285892900E+03 -0.81010769571E+03  0.95885934785E+03  0.13912130374E+04  0.91138784713E+02 0.  0.
         13    1    3    3    0    0 -0.38519891395E+03 -0.54850267088E+03  0.69523369630E+03  0.96570351337E+03  0.00000000000E+00 0.  1.
        -13    1    3    3    0    0 -0.20766001505E+03 -0.26160502483E+03  0.26362565155E+03  0.42550952401E+03  0.00000000000E+00 0. -1.
         22    1    1    2    0    0  0.59285892900E+03  0.81010769571E+03 -0.11113473303E+04  0.14976144620E+04  0.00000000000E+00 0. -1.
<mgrwt>
<rscale>  0 0.28848001E+04</rscale>
<asrwt>0</asrwt>
<pdfrwt beam="1">  1        2 0.23394734E+00 0.28848001E+04</pdfrwt>
<pdfrwt beam="2">  1       -2 0.21048766E+00 0.28848001E+04</pdfrwt>
<totfact> 0.12140929E+00</totfact>
</mgrwt>
</event>
<event>
 6    1  0.1762360E-005  0.2005757E+04  0.7818608E-02  0.8603934E-01
         -2   -1    0    0    0  501 -0.00000000000E+00  0.00000000000E+00  0.54538203634E+03  0.54538203634E+03  0.00000000000E+00 0.  1.
          2   -1    0    0  501    0  0.00000000000E+00 -0.00000000000E+00 -0.18441487853E+04  0.18441487853E+04  0.00000000000E+00 0. -1.
         23    2    1    2    0    0 -0.35947496407E+03 -0.61232678484E+03  0.18970711171E+03  0.74037322603E+03  0.89428096044E+02 0.  0.
         11    1    3    3    0    0 -0.27466050339E+03 -0.52333477121E+03  0.17598072321E+03  0.61667405477E+03  0.00000000000E+00 0.  1.
        -11    1    3    3    0    0 -0.84814460677E+02 -0.88992013625E+02  0.13726388508E+02  0.12369917126E+03  0.00000000000E+00 0. -1.
         22    1    1    2    0    0  0.35947496407E+03  0.61232678484E+03 -0.14884738607E+04  0.16491575956E+04  0.00000000000E+00 0. -1.
<mgrwt>
<rscale>  0 0.20057573E+04</rscale>
<asrwt>0</asrwt>
<pdfrwt beam="1">  1        2 0.28371520E+00 0.20057573E+04</pdfrwt>
<pdfrwt beam="2">  1       -2 0.83904928E-01 0.20057573E+04</pdfrwt>
<totfact> 0.93978142E+00</totfact>
</mgrwt>
</event>
<event>
 6    1  0.1762360E-005  0.2480051E+04  0.7818608E-02  0.8410127E-01
          2   -1    0    0  501    0  0.00000000000E+00  0.00000000000E+00  0.27197708726E+04  0.27197708726E+04  0.00000000000E+00 0. -1.
         -2   -1    0    0    0  501 -0.00000000000E+00 -0.00000000000E+00 -0.56536505673E+03  0.56536505673E+03  0.00000000000E+00 0.  1.
         23    2    1    2    0    0 -0.37849194745E+03 -0.11517714436E+04  0.74415394866E+03  0.14253929520E+04  0.90257165118E+02 0.  0.
         11    1    3    3    0    0 -0.17441371779E+03 -0.42035899520E+03  0.24757920965E+03  0.51809004512E+03  0.00000000000E+00 0.  1.
        -11    1    3    3    0    0 -0.20407822966E+03 -0.73141244840E+03  0.49657473900E+03  0.90730290692E+03  0.00000000000E+00 0. -1.
         22    1    1    2    0    0  0.37849194745E+03  0.11517714436E+04  0.14102518672E+04  0.18597429772E+04  0.00000000000E+00 0.  1.
<mgrwt>
<rscale>  0 0.24800511E+04</rscale>
<asrwt>0</asrwt>
<pdfrwt beam="1">  1        2 0.41842628E+00 0.24800511E+04</pdfrwt>
<pdfrwt beam="2">  1       -2 0.86979241E-01 0.24800511E+04</pdfrwt>
<totfact> 0.26389749E+00</totfact>
</mgrwt>
</event>
<event>
 6    1  0.1762360E-005  0.3288398E+04  0.7818608E-02  0.8165854E-01
         -1   -1    0    0    0  501 -0.00000000000E+00  0.00000000000E+00  0.14073899289E+04  0.14073899289E+04  0.00000000000E+00 0.  1.
          1   -1    0    0  501    0  0.00000000000E+00 -0.00000000000E+00 -0.19208542216E+04  0.19208542216E+04  0.00000000000E+00 0. -1.
         23    2    1    2    0    0  0.12342029796E+04  0.61047065327E+03  0.65011249079E+03  0.15255122390E+04  0.92789694537E+02 0.  0.
         11    1    3    3    0    0  0.41986607377E+03  0.20361297881E+03  0.17239094027E+03  0.49745793926E+03  0.00000000000E+00 0. -1.
        -11    1    3    3    0    0  0.81433690584E+03  0.40685767446E+03  0.47772155052E+03  0.10280542998E+04  0.00000000000E+00 0.  1.
         22    1    1    2    0    0 -0.12342029796E+04 -0.61047065327E+03 -0.11635767835E+04  0.18027319114E+04  0.00000000000E+00 0. -1.
<mgrwt>
<rscale>  0 0.32883983E+04</rscale>
<asrwt>0</asrwt>
<pdfrwt beam="1">  1        1 0.29551603E+00 0.32883983E+04</pdfrwt>
<pdfrwt beam="2">  1       -1 0.21652153E+00 0.32883983E+04</pdfrwt>
<totfact> 0.32526476E-01</totfact>
</mgrwt>
</event>
<event>
 6    1  0.1762360E-005  0.3916838E+04  0.7818608E-02  0.8021536E-01
          2   -1    0    0  501    0  0.00000000000E+00  0.00000000000E+00  0.32892751064E+04  0.32892751064E+04  0.00000000000E+00 0. -1.
         -2   -1    0    0    0  501 -0.00000000000E+00 -0.00000000000E+00 -0.11660334501E+04  0.11660334501E+04  0.00000000000E+00 0.  1.
         23    2    1    2    0    0 -0.17920130867E+04 -0.66148531426E+03  0.57428339270E+03  0.19960108059E+04  0.73375735302E+02 0.  0.
         13    1    3    3    0    0 -0.14226610870E+04 -0.53102753302E+03  0.48668389265E+03  0.15946209646E+04  0.00000000000E+00 0. -1.
        -13    1    3    3    0    0 -0.36935199967E+03 -0.13045778124E+03  0.87599500051E+02  0.40138984137E+03  0.00000000000E+00 0.  1.
         22    1    1    2    0    0  0.17920130867E+04  0.66148531426E+03  0.15489582635E+04  0.24592977506E+04  0.00000000000E+00 0. -1.
<mgrwt>
<rscale>  0 0.39168379E+04</rscale>
<asrwt>0</asrwt>
<pdfrwt beam="1">  1        2 0.50604232E+00 0.39168379E+04</pdfrwt>
<pdfrwt beam="2">  1       -2 0.17938976E+00 0.39168379E+04</pdfrwt>
<totfact> 0.16445738E-01</totfact>
</mgrwt>
</event>
<event>
 6    1  0.1762360E-005  0.2482136E+04  0.7818608E-02  0.8409377E-01
          2   -1    0    0  501    0  0.00000000000E+00  0.00000000000E+00  0.76490017301E+03  0.76490017301E+03  0.00000000000E+00 0. -1.
         -2   -1    0    0    0  501 -0.00000000000E+00 -0.00000000000E+00 -0.20136617914E+04  0.20136617914E+04  0.00000000000E+00 0.  1.
         23    2    1    2    0    0  0.78102041655E+03 -0.47226062952E+03 -0.15640272330E+04  0.18129453733E+04  0.86987054151E+02 0.  0.
         11    1    3    3    0    0  0.53456321290E+03 -0.35038083988E+03 -0.10275869015E+04  0.12101485040E+04  0.00000000000E+00 0.  1.
        -11    1    3    3    0    0  0.24645720365E+03 -0.12187978964E+03 -0.53644033156E+03  0.60279686934E+03  0.00000000000E+00 0. -1.
         22    1    1    2    0    0 -0.78102041655E+03  0.47226062952E+03  0.31526561465E+03  0.96561659112E+03  0.00000000000E+00 0. -1.
<mgrwt>
<rscale>  0 0.24821364E+04</rscale>
<asrwt>0</asrwt>
<pdfrwt beam="1">  1        2 0.11767695E+00 0.24821364E+04</pdfrwt>
<pdfrwt beam="2">  1       -2 0.30979412E+00 0.24821364E+04</pdfrwt>
<totfact> 0.90375322E-01</totfact>
</mgrwt>
</event>
<event>
 6    1  0.1762360E-005  0.1872003E+04  0.7818608E-02  0.8668919E-01
          4   -1    0    0  501    0  0.00000000000E+00  0.00000000000E+00  0.47568022136E+03  0.47568022136E+03  0.00000000000E+00 0. -1.
         -4   -1    0    0    0  501 -0.00000000000E+00 -0.00000000000E+00 -0.18417813035E+04  0.18417813035E+04  0.00000000000E+00 0.  1.
         23    2    1    2    0    0  0.11035071624E+03 -0.89391442138E+03 -0.98958620370E+03  0.13412321835E+04  0.91447482688E+02 0.  0.
         13    1    3    3    0    0  0.14060351420E+02 -0.15719944191E+03 -0.12550196577E+03  0.20164350084E+03  0.00000000000E+00 0.  1.
        -13    1    3    3    0    0  0.96290364815E+02 -0.73671497947E+03 -0.86408423794E+03  0.11395886826E+04  0.00000000000E+00 0. -1.
         22    1    1    2    0    0 -0.11035071624E+03  0.89391442138E+03 -0.37651487846E+03  0.97622934141E+03  0.00000000000E+00 0. -1.
<mgrwt>
<rscale>  0 0.18720031E+04</rscale>
<asrwt>0</asrwt>
<pdfrwt beam="1">  1        4 0.73181572E-01 0.18720031E+04</pdfrwt>
<pdfrwt beam="2">  1       -4 0.28335097E+00 0.18720031E+04</pdfrwt>
<totfact> 0.12514061E-01</totfact>
</mgrwt>
</event>
<event>
 6    1  0.1762360E-005  0.2753334E+04  0.7818608E-02  0.8317905E-01
         -2   -1    0    0    0  501 -0.00000000000E+00  0.00000000000E+00  0.65679245419E+03  0.65679245419E+03  0.00000000000E+00 0.  1.
          2   -1    0    0  501    0  0.00000000000E+00 -0.00000000000E+00 -0.28855560009E+04  0.28855560009E+04  0.00000000000E+00 0. -1.
         23    2    1    2    0    0  0.11817050269E+04  0.12531581215E+03 -0.22740470276E+03  0.12147814753E+04  0.10885913155E+03 0.  0.
         13    1    3    3    0    0  0.93653186821E+03  0.11673765542E+03 -0.22132239206E+03  0.96938290762E+03  0.00000000000E+00 0.  1.
        -13    1    3    3    0    0  0.24517315866E+03  0.85781567291E+01 -0.60823106986E+01  0.24539856764E+03  0.00000000000E+00 0. -1.
         22    1    1    2    0    0 -0.11817050269E+04 -0.12531581215E+03 -0.20013588440E+04  0.23275669798E+04  0.00000000000E+00 0. -1.
<mgrwt>
<rscale>  0 0.27533335E+04</rscale>
<asrwt>0</asrwt>
<pdfrwt beam="1">  1        2 0.44393169E+00 0.27533335E+04</pdfrwt>
<pdfrwt beam="2">  1       -2 0.10104499E+00 0.27533335E+04</pdfrwt>
<totfact> 0.14428476E+00</totfact>
</mgrwt>
</event>
<event>
 6    1  0.1762360E-005  0.1879050E+04  0.7818608E-02  0.8665356E-01
         -1   -1    0    0    0  501 -0.00000000000E+00  0.00000000000E+00  0.12426147004E+04  0.12426147004E+04  0.00000000000E+00 0.  1.
          1   -1    0    0  501    0  0.00000000000E+00 -0.00000000000E+00 -0.71036240842E+03  0.71036240842E+03  0.00000000000E+00 0. -1.
         23    2    1    2    0    0 -0.85974201487E+03  0.22254022812E+03  0.57807310573E+03  0.10637189729E+04  0.93000282576E+02 0.  0.
         11    1    3    3    0    0 -0.59708148310E+03  0.19571520536E+03  0.38959078678E+03  0.73931841598E+03  0.00000000000E+00 0. -1.
        -11    1    3    3    0    0 -0.26266053177E+03  0.26825022757E+02  0.18848231895E+03  0.32440055695E+03  0.00000000000E+00 0.  1.
         22    1    1    2    0    0  0.85974201487E+03 -0.22254022812E+03 -0.45820813753E+02  0.88925813588E+03  0.00000000000E+00 0. -1.
<mgrwt>
<rscale>  0 0.18790495E+04</rscale>
<asrwt>0</asrwt>
<pdfrwt beam="1">  1        1 0.10928652E+00 0.18790495E+04</pdfrwt>
<pdfrwt beam="2">  1       -1 0.19117149E+00 0.18790495E+04</pdfrwt>
<totfact> 0.43286443E+00</totfact>
</mgrwt>
</event>
<event>
 6    1  0.1762360E-005  0.3667692E+04  0.7818608E-02  0.8075160E-01
         -2   -1    0    0    0  501 -0.00000000000E+00  0.00000000000E+00  0.11853463096E+04  0.11853463096E+04  0.00000000000E+00 0.  1.
          2   -1    0    0  501    0  0.00000000000E+00 -0.00000000000E+00 -0.28371375127E+04  0.28371375127E+04  0.00000000000E+00 0. -1.
         23    2    1    2    0    0 -0.70120970282E+03 -0.16647563361E+04 -0.11657898207E+04  0.21518406040E+04  0.90793024251E+02 0.  0.
         11    1    3    3    0    0 -0.20356812933E+03 -0.59455549708E+03 -0.40721086779E+03  0.74883704050E+03  0.00000000000E+00 0.  1.
        -11    1    3    3    0    0 -0.49764157349E+03 -0.10702008390E+04 -0.75857895287E+03  0.14030035635E+04  0.00000000000E+00 0. -1.
         22    1    1    2    0    0  0.70120970282E+03  0.16647563361E+04 -0.48600138243E+03  0.18706432182E+04  0.00000000000E+00 0.  1.
<mgrwt>
<rscale>  0 0.36676916E+04</rscale>
<asrwt>0</asrwt>
<pdfrwt beam="1">  1        2 0.43648269E+00 0.36676916E+04</pdfrwt>
<pdfrwt beam="2">  1       -2 0.18236097E+00 0.36676916E+04</pdfrwt>
<totfact> 0.31066331E-01</totfact>
</mgrwt>
</event>
<event>
 6    1  0.1762360E-005  0.2939455E+04  0.7818608E-02  0.8261234E-01
         -2   -1    0    0    0  501 -0.00000000000E+00  0.00000000000E+00  0.10055852773E+04  0.10055852773E+04  0.00000000000E+00 0.  1.
          2   -1    0    0  501    0  0.00000000000E+00 -0.00000000000E+00 -0.21481007585E+04  0.21481007585E+04  0.00000000000E+00 0. -1.
         23    2    1    2    0    0 -0.13881935798E+04  0.46037488869E+03 -0.43244500652E+03  0.15278857614E+04  0.91650220877E+02 0.  0.
         11    1    3    3    0    0 -0.10624315677E+04  0.34988847606E+03 -0.28980254750E+03  0.11554948283E+04  0.00000000000E+00 0.  1.
        -11    1    3    3    0    0 -0.32576201209E+03  0.11048641263E+03 -0.14264245902E+03  0.37239093304E+03  0.00000000000E+00 0. -1.
         22    1    1    2    0    0  0.13881935798E+04 -0.46037488869E+03 -0.71007047466E+03  0.16258002744E+04  0.00000000000E+00 0. -1.
<mgrwt>
<rscale>  0 0.29394547E+04</rscale>
<asrwt>0</asrwt>
<pdfrwt beam="1">  1        2 0.33047704E+00 0.29394547E+04</pdfrwt>
<pdfrwt beam="2">  1       -2 0.15470543E+00 0.29394547E+04</pdfrwt>
<totfact> 0.13109051E+00</totfact>
</mgrwt>
</event>
<event>
 6    1  0.1762360E-005  0.2148991E+04  0.7818608E-02  0.8539964E-01
         -2   -1    0    0    0  501 -0.00000000000E+00  0.00000000000E+00  0.10173136893E+04  0.10173136893E+04  0.00000000000E+00 0.  1.
          2   -1    0    0  501    0  0.00000000000E+00 -0.00000000000E+00 -0.11348916173E+04  0.11348916173E+04  0.00000000000E+00 0. -1.
         23    2    1    2    0    0 -0.23803554997E+03 -0.53039054060E+03  0.84384264555E+03  0.10286820234E+04  0.90228854760E+02 0.  0.
         11    1    3    3    0    0 -0.13340086078E+03 -0.27417671084E+03  0.36483948274E+03  0.47547503256E+03  0.00000000000E+00 0. -1.
        -11    1    3    3    0    0 -0.10463468919E+03 -0.25621382977E+03  0.47900316281E+03  0.55320699085E+03  0.00000000000E+00 0.  1.
         22    1    1    2    0    0  0.23803554997E+03  0.53039054060E+03 -0.96142057350E+03  0.11235232831E+04  0.00000000000E+00 0. -1.
<mgrwt>
<rscale>  0 0.21489912E+04</rscale>
<asrwt>0</asrwt>
<pdfrwt beam="1">  1        2 0.17459871E+00 0.21489912E+04</pdfrwt>
<pdfrwt beam="2">  1       -2 0.15650980E+00 0.21489912E+04</pdfrwt>
<totfact> 0.50904341E+00</totfact>
</mgrwt>
</event>
<event>
 6    1  0.1762360E-005  0.5201949E+04  0.7818608E-02  0.7798088E-01
          1   -1    0    0  501    0  0.00000000000E+00  0.00000000000E+00  0.35249617982E+04  0.35249617982E+04  0.00000000000E+00 0. -1.
         -1   -1    0    0    0  501 -0.00000000000E+00 -0.00000000000E+00 -0.19191892677E+04  0.19191892677E+04  0.00000000000E+00 0.  1.
         23    2    1    2    0    0  0.69905993861E+03 -0.95302410725E+03 -0.16207413291E+04  0.20079712928E+04  0.90589790480E+02 0.  0.
         13    1    3    3    0    0  0.45163670715E+03 -0.68124249248E+03 -0.10908311532E+04  0.13630772735E+04  0.00000000000E+00 0. -1.
        -13    1    3    3    0    0  0.24742323146E+03 -0.27178161477E+03 -0.52991017586E+03  0.64489401926E+03  0.00000000000E+00 0.  1.
         22    1    1    2    0    0 -0.69905993861E+03  0.95302410725E+03  0.32265138596E+04  0.34361797731E+04  0.00000000000E+00 0. -1.
<mgrwt>
<rscale>  0 0.52019492E+04</rscale>
<asrwt>0</asrwt>
<pdfrwt beam="1">  1        1 0.54230181E+00 0.52019492E+04</pdfrwt>
<pdfrwt beam="2">  1       -1 0.29525989E+00 0.52019492E+04</pdfrwt>
<totfact> 0.60072439E-03</totfact>
</mgrwt>
</event>
<event>
 6    1  0.1762360E-005  0.1474348E+04  0.7818608E-02  0.8901693E-01
         -1   -1    0    0    0  501 -0.00000000000E+00  0.00000000000E+00  0.17351317346E+03  0.17351317346E+03  0.00000000000E+00 0.  1.
          1   -1    0    0  501    0  0.00000000000E+00 -0.00000000000E+00 -0.31318969850E+04  0.31318969850E+04  0.00000000000E+00 0. -1.
         23    2    1    2    0    0  0.46687444719E+03  0.54073473027E+03 -0.11030628563E+04  0.13173000898E+04  0.90366275766E+02 0.  0.
         13    1    3    3    0    0  0.34973525792E+03  0.44342499082E+03 -0.81639717778E+03  0.99269573636E+03  0.00000000000E+00 0. -1.
        -13    1    3    3    0    0  0.11713918927E+03  0.97309739453E+02 -0.28666567852E+03  0.32460435348E+03  0.00000000000E+00 0.  1.
         22    1    1    2    0    0 -0.46687444719E+03 -0.54073473027E+03 -0.18553209553E+04  0.19881100686E+04  0.00000000000E+00 0. -1.
<mgrwt>
<rscale>  0 0.14743478E+04</rscale>
<asrwt>0</asrwt>
<pdfrwt beam="1">  1        1 0.48183030E+00 0.14743478E+04</pdfrwt>
<pdfrwt beam="2">  1       -1 0.26694335E-01 0.14743478E+04</pdfrwt>
<totfact> 0.58412354E+00</totfact>
</mgrwt>
</event>
<event>
 6    1  0.1762360E-005  0.2086951E+04  0.7818608E-02  0.8567014E-01
          1   -1    0    0  501    0  0.00000000000E+00  0.00000000000E+00  0.11324204449E+04  0.11324204449E+04  0.00000000000E+00 0. -1.
         -1   -1    0    0    0  501 -0.00000000000E+00 -0.00000000000E+00 -0.96151630155E+03  0.96151630155E+03  0.00000000000E+00 0.  1.
         23    2    1    2    0    0  0.41734419997E+03 -0.62384506291E+03  0.81013670018E+03  0.11080477540E+04  0.89941693853E+02 0.  0.
         13    1    3    3    0    0  0.20513199841E+03 -0.26074396153E+03  0.30398719169E+03  0.44997195797E+03  0.00000000000E+00 0. -1.
        -13    1    3    3    0    0  0.21221220156E+03 -0.36310110138E+03  0.50614950850E+03  0.65807579599E+03  0.00000000000E+00 0.  1.
         22    1    1    2    0    0 -0.41734419997E+03  0.62384506291E+03 -0.63923255685E+03  0.98588899249E+03  0.00000000000E+00 0.  1.
<mgrwt>
<rscale>  0 0.20869506E+04</rscale>
<asrwt>0</asrwt>
<pdfrwt beam="1">  1        1 0.17421853E+00 0.20869506E+04</pdfrwt>
<pdfrwt beam="2">  1       -1 0.14792558E+00 0.20869506E+04</pdfrwt>
<totfact> 0.39985070E+00</totfact>
</mgrwt>
</event>
<event>
 6    1  0.1762360E-005  0.1042555E+04  0.7818608E-02  0.9263065E-01
          3   -1    0    0  501    0  0.00000000000E+00  0.00000000000E+00  0.24846324360E+03  0.24846324360E+03  0.00000000000E+00 0. -1.
         -3   -1    0    0    0  501 -0.00000000000E+00 -0.00000000000E+00 -0.10936428786E+04  0.10936428786E+04  0.00000000000E+00 0.  1.
         23    2    1    2    0    0 -0.27815509244E+03 -0.41652037182E+03 -0.25812592752E+03  0.57042514468E+03  0.88861553213E+02 0.  0.
         11    1    3    3    0    0 -0.21365508974E+03 -0.26167246542E+03 -0.14223215381E+03  0.36653916858E+03  0.00000000000E+00 0.  1.
        -11    1    3    3    0    0 -0.64500002700E+02 -0.15484790640E+03 -0.11589377371E+03  0.20388597610E+03  0.00000000000E+00 0. -1.
         22    1    1    2    0    0  0.27815509244E+03  0.41652037182E+03 -0.58705370747E+03  0.77168097750E+03  0.00000000000E+00 0.  1.
<mgrwt>
<rscale>  0 0.10425547E+04</rscale>
<asrwt>0</asrwt>
<pdfrwt beam="1">  1        3 0.38225114E-01 0.10425547E+04</pdfrwt>
<pdfrwt beam="2">  1       -3 0.16825275E+00 0.10425547E+04</pdfrwt>
<totfact> 0.42229179E+00</totfact>
</mgrwt>
</event>
<event>
 6    1  0.1762360E-005  0.2868744E+04  0.7818608E-02  0.8282238E-01
          2   -1    0    0  501    0  0.00000000000E+00  0.00000000000E+00  0.15462876023E+04  0.15462876023E+04  0.00000000000E+00 0. -1.
         -2   -1    0    0    0  501 -0.00000000000E+00 -0.00000000000E+00 -0.13305564289E+04  0.13305564289E+04  0.00000000000E+00 0.  1.
         23    2    1    2    0    0  0.99741802478E+03 -0.20602635309E+03 -0.90285092973E+03  0.13640600097E+04  0.90721190954E+02 0.  0.
         13    1    3    3    0    0  0.80986695362E+03 -0.13976698502E+03 -0.75765615024E+03  0.11177934222E+04  0.00000000000E+00 0. -1.
        -13    1    3    3    0    0  0.18755107116E+03 -0.66259368064E+02 -0.14519477948E+03  0.24626658754E+03  0.00000000000E+00 0.  1.
         22    1    1    2    0    0 -0.99741802478E+03  0.20602635309E+03  0.11185821031E+04  0.15127840215E+04  0.00000000000E+00 0. -1.
<mgrwt>
<rscale>  0 0.28687439E+04</rscale>
<asrwt>0</asrwt>
<pdfrwt beam="1">  1        2 0.23789040E+00 0.28687439E+04</pdfrwt>
<pdfrwt beam="2">  1       -2 0.20470099E+00 0.28687439E+04</pdfrwt>
<totfact> 0.12817695E+00</totfact>
</mgrwt>
</event>
<event>
 6    1  0.1762360E-005  0.1014992E+04  0.7818608E-02  0.9292253E-01
          2   -1    0    0  501    0  0.00000000000E+00  0.00000000000E+00  0.10147665461E+04  0.10147665461E+04  0.00000000000E+00 0. -1.
         -2   -1    0    0    0  501 -0.00000000000E+00 -0.00000000000E+00 -0.25380421250E+03  0.25380421250E+03  0.00000000000E+00 0.  1.
         23    2    1    2    0    0  0.17966682172E+03 -0.37488845611E+03  0.73822468089E+03  0.85223132712E+03  0.92201052561E+02 0.  0.
         13    1    3    3    0    0  0.19014036382E+03 -0.35049680129E+03  0.70162628350E+03  0.80701970693E+03  0.00000000000E+00 0. -1.
        -13    1    3    3    0    0 -0.10473542097E+02 -0.24391654823E+02  0.36598397394E+02  0.45211620198E+02  0.00000000000E+00 0.  1.
         22    1    1    2    0    0 -0.17966682172E+03  0.37488845611E+03  0.22737652720E+02  0.41633943148E+03  0.00000000000E+00 0.  1.
<mgrwt>
<rscale>  0 0.10149917E+04</rscale>
<asrwt>0</asrwt>
<pdfrwt beam="1">  1        2 0.15611793E+00 0.10149917E+04</pdfrwt>
<pdfrwt beam="2">  1       -2 0.39046803E-01 0.10149917E+04</pdfrwt>
<totfact> 0.15228984E+02</totfact>
</mgrwt>
</event>
<event>
 6    1  0.1762360E-005  0.4668526E+04  0.7818608E-02  0.7881779E-01
          1   -1    0    0  501    0  0.00000000000E+00  0.00000000000E+00  0.21459255972E+04  0.21459255972E+04  0.00000000000E+00 0. -1.
         -1   -1    0    0    0  501 -0.00000000000E+00 -0.00000000000E+00 -0.25391300352E+04  0.25391300352E+04  0.00000000000E+00 0.  1.
         23    2    1    2    0    0  0.15826626068E+04 -0.10339580229E+04 -0.15691110538E+04  0.24587029000E+04  0.96022556697E+02 0.  0.
         13    1    3    3    0    0  0.73208007298E+03 -0.53184670537E+03 -0.72814635961E+03  0.11614642794E+04  0.00000000000E+00 0. -1.
        -13    1    3    3    0    0  0.85058253386E+03 -0.50211131750E+03 -0.84096469420E+03  0.12972386207E+04  0.00000000000E+00 0.  1.
         22    1    1    2    0    0 -0.15826626068E+04  0.10339580229E+04  0.11759066158E+04  0.22263527324E+04  0.00000000000E+00 0. -1.
<mgrwt>
<rscale>  0 0.46685262E+04</rscale>
<asrwt>0</asrwt>
<pdfrwt beam="1">  1        1 0.33014240E+00 0.46685262E+04</pdfrwt>
<pdfrwt beam="2">  1       -1 0.39063539E+00 0.46685262E+04</pdfrwt>
<totfact> 0.14567432E-02</totfact>
</mgrwt>
</event>
<event>
 6    1  0.1762360E-005  0.2093302E+04  0.7818608E-02  0.8564200E-01
         -2   -1    0    0    0  501 -0.00000000000E+00  0.00000000000E+00  0.42378143270E+03  0.42378143270E+03  0.00000000000E+00 0.  1.
          2   -1    0    0  501    0  0.00000000000E+00 -0.00000000000E+00 -0.25850070517E+04  0.25850070517E+04  0.00000000000E+00 0. -1.
         23    2    1    2    0    0  0.94774162587E+03 -0.23694250719E+03 -0.16144965239E+04  0.18892936678E+04  0.92063001155E+02 0.  0.
         11    1    3    3    0    0  0.86139716757E+03 -0.18956903334E+03 -0.14292206753E+04  0.16794681413E+04  0.00000000000E+00 0. -1.
        -11    1    3    3    0    0  0.86344458291E+02 -0.47373473850E+02 -0.18527584858E+03  0.20982552650E+03  0.00000000000E+00 0.  1.
         22    1    1    2    0    0 -0.94774162587E+03  0.23694250719E+03 -0.54672909511E+03  0.11194948167E+04  0.00000000000E+00 0.  1.
<mgrwt>
<rscale>  0 0.20933017E+04</rscale>
<asrwt>0</asrwt>
<pdfrwt beam="1">  1        2 0.39769339E+00 0.20933017E+04</pdfrwt>
<pdfrwt beam="2">  1       -2 0.65197144E-01 0.20933017E+04</pdfrwt>
<totfact> 0.62138431E+00</totfact>
</mgrwt>
</event>
<event>
 6    1  0.1762360E-005  0.5054178E+04  0.7818608E-02  0.7820204E-01
          2   -1    0    0  501    0  0.00000000000E+00  0.00000000000E+00  0.40397625897E+04  0.40397625897E+04  0.00000000000E+00 0. -1.
         -2   -1    0    0    0  501 -0.00000000000E+00 -0.00000000000E+00 -0.15808300463E+04  0.15808300463E+04  0.00000000000E+00 0.  1.
         23    2    1    2    0    0  0.22737669592E+03 -0.19453985737E+04  0.30041433017E+04  0.35874840448E+04  0.94281614017E+02 0.  0.
         13    1    3    3    0    0  0.10204299842E+02 -0.39831923177E+03  0.58949117143E+03  0.71152103224E+03  0.00000000000E+00 0. -1.
        -13    1    3    3    0    0  0.21717239607E+03 -0.15470793419E+04  0.24146521302E+04  0.28759630126E+04  0.00000000000E+00 0.  1.
         22    1    1    2    0    0 -0.22737669592E+03  0.19453985737E+04 -0.54521075828E+03  0.20331085911E+04  0.00000000000E+00 0.  1.
<mgrwt>
<rscale>  0 0.50541777E+04</rscale>
<asrwt>0</asrwt>
<pdfrwt beam="1">  1        2 0.62150193E+00 0.50541777E+04</pdfrwt>
<pdfrwt beam="2">  1       -2 0.24320462E+00 0.50541777E+04</pdfrwt>
<totfact> 0.16207163E-02</totfact>
</mgrwt>
</event>
<event>
 6    1  0.1762360E-005  0.2090850E+04  0.7818608E-02  0.8565285E-01
         -2   -1    0    0    0  501 -0.00000000000E+00  0.00000000000E+00  0.10931392149E+04  0.10931392149E+04  0.00000000000E+00 0.  1.
          2   -1    0    0  501    0  0.00000000000E+00 -0.00000000000E+00 -0.99979306938E+03  0.99979306938E+03  0.00000000000E+00 0. -1.
         23    2    1    2    0    0 -0.85610274482E+03 -0.14175043426E+03 -0.53305143488E+03  0.10227084647E+04  0.93721268877E+02 0.  0.
         11    1    3    3    0    0 -0.48741206019E+03 -0.11324749621E+03 -0.34542636616E+03  0.60804184581E+03  0.00000000000E+00 0. -1.
        -11    1    3    3    0    0 -0.36869068463E+03 -0.28502938053E+02 -0.18762506872E+03  0.41466661889E+03  0.00000000000E+00 0.  1.
         22    1    1    2    0    0  0.85610274482E+03  0.14175043426E+03  0.62639758042E+03  0.10702238196E+04  0.00000000000E+00 0.  1.
<mgrwt>
<rscale>  0 0.20908496E+04</rscale>
<asrwt>0</asrwt>
<pdfrwt beam="1">  1        2 0.15381432E+00 0.20908496E+04</pdfrwt>
<pdfrwt beam="2">  1       -2 0.16817526E+00 0.20908496E+04</pdfrwt>
<totfact> 0.51025436E+00</totfact>
</mgrwt>
</event>
<event>
 6    1  0.1762360E-005  0.1097518E+04  0.7818608E-02  0.9207614E-01
          2   -1    0    0  501    0  0.00000000000E+00  0.00000000000E+00  0.91326388177E+03  0.91326388177E+03  0.00000000000E+00 0. -1.
         -2   -1    0    0    0  501 -0.00000000000E+00 -0.00000000000E+00 -0.32973670379E+03  0.32973670379E+03  0.00000000000E+00 0.  1.
         23    2    1    2    0    0 -0.15435483173E+03 -0.35489987707E+03 -0.14108918285E+03  0.42150913266E+03  0.89355775285E+02 0.  0.
         13    1    3    3    0    0 -0.76359762892E+02 -0.17350460681E+03 -0.11657494277E+03  0.22254073617E+03  0.00000000000E+00 0. -1.
        -13    1    3    3    0    0 -0.77995068837E+02 -0.18139527026E+03 -0.24514240079E+02  0.19896839649E+03  0.00000000000E+00 0.  1.
         22    1    1    2    0    0  0.15435483173E+03  0.35489987707E+03  0.72461636083E+03  0.82149145291E+03  0.00000000000E+00 0. -1.
<mgrwt>
<rscale>  0 0.10975183E+04</rscale>
<asrwt>0</asrwt>
<pdfrwt beam="1">  1        2 0.14050213E+00 0.10975183E+04</pdfrwt>
<pdfrwt beam="2">  1       -2 0.50728724E-01 0.10975183E+04</pdfrwt>
<totfact> 0.10477734E+02</totfact>
</mgrwt>
</event>
<event>
 6    1  0.1762360E-005  0.3328536E+04  0.7818608E-02  0.8155672E-01
         -2   -1    0    0    0  501 -0.00000000000E+00  0.00000000000E+00  0.10105860365E+04  0.10105860365E+04  0.00000000000E+00 0.  1.
          2   -1    0    0  501    0  0.00000000000E+00 -0.00000000000E+00 -0.27407742050E+04  0.27407742050E+04  0.00000000000E+00 0. -1.
         23    2    1    2    0    0 -0.88506292400E+03 -0.10865396081E+04  0.14351553104E+03  0.14115589138E+04  0.89426842688E+02 0.  0.
         11    1    3    3    0    0 -0.72780876529E+03 -0.84459381427E+03  0.95120816761E+02  0.11189692935E+04  0.00000000000E+00 0. -1.
        -11    1    3    3    0    0 -0.15725415871E+03 -0.24194579382E+03  0.48394714279E+02  0.29258962037E+03  0.00000000000E+00 0.  1.
         22    1    1    2    0    0  0.88506292400E+03  0.10865396081E+04 -0.18737036995E+04  0.23398013277E+04  0.00000000000E+00 0. -1.
<mgrwt>
<rscale>  0 0.33285361E+04</rscale>
<asrwt>0</asrwt>
<pdfrwt beam="1">  1        2 0.42165757E+00 0.33285361E+04</pdfrwt>
<pdfrwt beam="2">  1       -2 0.15547478E+00 0.33285361E+04</pdfrwt>
<totfact> 0.56935138E-01</totfact>
</mgrwt>
</event>
<event>
 6    1  0.1762360E-005  0.2406494E+04  0.7818608E-02  0.8437076E-01
          2   -1    0    0  501    0  0.00000000000E+00  0.00000000000E+00  0.11479182011E+04  0.11479182011E+04  0.00000000000E+00 0.  1.
         -2   -1    0    0    0  501 -0.00000000000E+00 -0.00000000000E+00 -0.12612424564E+04  0.12612424564E+04  0.00000000000E+00 0. -1.
         23    2    1    2    0    0  0.51254848662E+03  0.14332062082E+03 -0.11352141725E+04  0.12569862983E+04  0.89758482469E+02 0.  0.
         11    1    3    3    0    0  0.54983020303E+02 -0.12034252287E+02 -0.12980109067E+03  0.14147889909E+03  0.00000000000E+00 0.  1.
        -11    1    3    3    0    0  0.45756546632E+03  0.15535487310E+03 -0.10054130818E+04  0.11155073992E+04  0.00000000000E+00 0. -1.
         22    1    1    2    0    0 -0.51254848662E+03 -0.14332062082E+03  0.10218899172E+04  0.11521743593E+04  0.00000000000E+00 0.  1.
<mgrwt>
<rscale>  0 0.24064939E+04</rscale>
<asrwt>0</asrwt>
<pdfrwt beam="1">  1        2 0.17660280E+00 0.24064939E+04</pdfrwt>
<pdfrwt beam="2">  1       -2 0.19403730E+00 0.24064939E+04</pdfrwt>
<totfact> 0.26652667E+00</totfact>
</mgrwt>
</event>
<event>
 6    1  0.1762360E-005  0.2603150E+04  0.7818608E-02  0.8367132E-01
         -2   -1    0    0    0  501 -0.00000000000E+00  0.00000000000E+00  0.40134385293E+03  0.40134385293E+03  0.00000000000E+00 0. -1.
          2   -1    0    0  501    0  0.00000000000E+00 -0.00000000000E+00 -0.42210640851E+04  0.42210640851E+04  0.00000000000E+00 0.  1.
         23    2    1    2    0    0 -0.26623277158E+03  0.12554372120E+04 -0.15434991327E+04  0.20093283419E+04  0.89489278458E+02 0.  0.
         11    1    3    3    0    0 -0.17395220365E+03  0.70453821774E+03 -0.93010028401E+03  0.11797118325E+04  0.00000000000E+00 0.  1.
        -11    1    3    3    0    0 -0.92280567931E+02  0.55089899429E+03 -0.61339884869E+03  0.82961650942E+03  0.00000000000E+00 0. -1.
         22    1    1    2    0    0  0.26623277158E+03 -0.12554372120E+04 -0.22762210995E+04  0.26130795961E+04  0.00000000000E+00 0.  1.
<mgrwt>
<rscale>  0 0.26031505E+04</rscale>
<asrwt>0</asrwt>
<pdfrwt beam="1">  1        2 0.64939441E+00 0.26031505E+04</pdfrwt>
<pdfrwt beam="2">  1       -2 0.61745215E-01 0.26031505E+04</pdfrwt>
<totfact> 0.48191078E-01</totfact>
</mgrwt>
</event>
<event>
 6    1  0.1762360E-005  0.4477864E+04  0.7818608E-02  0.7914524E-01
          1   -1    0    0  501    0  0.00000000000E+00  0.00000000000E+00  0.23607416236E+04  0.23607416236E+04  0.00000000000E+00 0. -1.
         -1   -1    0    0    0  501 -0.00000000000E+00 -0.00000000000E+00 -0.21234074117E+04  0.21234074117E+04  0.00000000000E+00 0.  1.
         23    2    1    2    0    0 -0.10490008181E+04 -0.17454093952E+04 -0.81090305067E+03  0.21938088790E+04  0.91525770477E+02 0.  0.
         11    1    3    3    0    0 -0.41697530996E+03 -0.71404135689E+03 -0.28234075167E+03  0.87375040402E+03  0.00000000000E+00 0. -1.
        -11    1    3    3    0    0 -0.63202550812E+03 -0.10313680383E+04 -0.52856229900E+03  0.13200584749E+04  0.00000000000E+00 0.  1.
         22    1    1    2    0    0  0.10490008181E+04  0.17454093952E+04  0.10482372626E+04  0.22903401564E+04  0.00000000000E+00 0. -1.
<mgrwt>
<rscale>  0 0.44778639E+04</rscale>
<asrwt>0</asrwt>
<pdfrwt beam="1">  1        1 0.36319102E+00 0.44778639E+04</pdfrwt>
<pdfrwt beam="2">  1       -1 0.32667806E+00 0.44778639E+04</pdfrwt>
<totfact> 0.28171388E-02</totfact>
</mgrwt>
</event>
<event>
 6    1  0.1762360E-005  0.6126892E+03  0.7818608E-02  0.9879424E-01
          3   -1    0    0  501    0  0.00000000000E+00  0.00000000000E+00  0.93885916334E+02  0.93885916334E+02  0.00000000000E+00 0. -1.
         -3   -1    0    0    0  501 -0.00000000000E+00 -0.00000000000E+00 -0.99958558518E+03  0.99958558518E+03  0.00000000000E+00 0.  1.
         23    2    1    2    0    0 -0.98335246536E+02  0.20449470502E+03 -0.11084286681E+03  0.26686080667E+03  0.86259167170E+02 0.  0.
         13    1    3    3    0    0 -0.73519942259E+02  0.19130276699E+03 -0.68593599623E+02  0.21611805218E+03  0.00000000000E+00 0. -1.
        -13    1    3    3    0    0 -0.24815304277E+02  0.13191938026E+02 -0.42249267187E+02  0.50742754488E+02  0.00000000000E+00 0.  1.
         22    1    1    2    0    0  0.98335246536E+02 -0.20449470502E+03 -0.79485680203E+03  0.82661069484E+03  0.00000000000E+00 0. -1.
<mgrwt>
<rscale>  0 0.61268918E+03</rscale>
<asrwt>0</asrwt>
<pdfrwt beam="1">  1        3 0.14443988E-01 0.61268918E+03</pdfrwt>
<pdfrwt beam="2">  1       -3 0.15378239E+00 0.61268918E+03</pdfrwt>
<totfact> 0.32670270E+01</totfact>
</mgrwt>
</event>
<event>
 6    1  0.1762360E-005  0.2637604E+04  0.7818608E-02  0.8355539E-01
         -2   -1    0    0    0  501 -0.00000000000E+00  0.00000000000E+00  0.16322099207E+04  0.16322099207E+04  0.00000000000E+00 0.  1.
          2   -1    0    0  501    0  0.00000000000E+00 -0.00000000000E+00 -0.10655727112E+04  0.10655727112E+04  0.00000000000E+00 0. -1.
         23    2    1    2    0    0  0.52127113532E+02 -0.23131391681E+03  0.16089410466E+04  0.16288482781E+04  0.90730685724E+02 0.  0.
         13    1    3    3    0    0  0.43683343435E+02 -0.20211735109E+03  0.11176697158E+04  0.11366376959E+04  0.00000000000E+00 0. -1.
        -13    1    3    3    0    0  0.84437700969E+01 -0.29196565720E+02  0.49127133079E+03  0.49221058213E+03  0.00000000000E+00 0.  1.
         22    1    1    2    0    0 -0.52127113532E+02  0.23131391681E+03 -0.10423038371E+04  0.10689343539E+04  0.00000000000E+00 0. -1.
<mgrwt>
<rscale>  0 0.26376037E+04</rscale>
<asrwt>0</asrwt>
<pdfrwt beam="1">  1        2 0.16393426E+00 0.26376037E+04</pdfrwt>
<pdfrwt beam="2">  1       -2 0.25110922E+00 0.26376037E+04</pdfrwt>
<totfact> 0.12766376E+00</totfact>
</mgrwt>
</event>
<event>
 6    1  0.1762360E-005  0.1833220E+04  0.7818608E-02  0.8688830E-01
         -1   -1    0    0    0  501 -0.00000000000E+00  0.00000000000E+00  0.99311104179E+03  0.99311104179E+03  0.00000000000E+00 0.  1.
          1   -1    0    0  501    0  0.00000000000E+00 -0.00000000000E+00 -0.84600219144E+03  0.84600219144E+03  0.00000000000E+00 0. -1.
         23    2    1    2    0    0 -0.32406623542E+03  0.17956491544E+03 -0.76484187828E+03  0.85477761199E+03  0.91647058790E+02 0.  0.
         11    1    3    3    0    0 -0.28630072088E+02  0.41653008103E+02 -0.15810478664E+03  0.16598728165E+03  0.00000000000E+00 0.  1.
        -11    1    3    3    0    0 -0.29543616333E+03  0.13791190734E+03 -0.60673709164E+03  0.68879033034E+03  0.00000000000E+00 0. -1.
         22    1    1    2    0    0  0.32406623542E+03 -0.17956491544E+03  0.91195072863E+03  0.98433562124E+03  0.00000000000E+00 0.  1.
<mgrwt>
<rscale>  0 0.18332202E+04</rscale>
<asrwt>0</asrwt>
<pdfrwt beam="1">  1        1 0.13015418E+00 0.18332202E+04</pdfrwt>
<pdfrwt beam="2">  1       -1 0.15278631E+00 0.18332202E+04</pdfrwt>
<totfact> 0.63042948E+00</totfact>
</mgrwt>
</event>
<event>
 6    1  0.1762360E-005  0.3030616E+04  0.7818608E-02  0.8235042E-01
          2   -1    0    0  501    0  0.00000000000E+00  0.00000000000E+00  0.32462336577E+04  0.32462336577E+04  0.00000000000E+00 0. -1.
         -2   -1    0    0    0  501 -0.00000000000E+00 -0.00000000000E+00 -0.70732987552E+03  0.70732987552E+03  0.00000000000E+00 0.  1.
         23    2    1    2    0    0  0.78954234580E+03 -0.83421890115E+03  0.25571003103E+04  0.28048122962E+04  0.94401955431E+02 0.  0.
         13    1    3    3    0    0  0.78492860207E+02 -0.69435671453E+02  0.30194197603E+03  0.31961132405E+03  0.00000000000E+00 0.  1.
        -13    1    3    3    0    0  0.71104948559E+03 -0.76478322970E+03  0.22551583342E+04  0.24852009721E+04  0.00000000000E+00 0. -1.
         22    1    1    2    0    0 -0.78954234580E+03  0.83421890115E+03 -0.18196528135E+02  0.11487512370E+04  0.00000000000E+00 0.  1.
<mgrwt>
<rscale>  0 0.30306158E+04</rscale>
<asrwt>0</asrwt>
<pdfrwt beam="1">  1        2 0.49942056E+00 0.30306158E+04</pdfrwt>
<pdfrwt beam="2">  1       -2 0.10881998E+00 0.30306158E+04</pdfrwt>
<totfact> 0.69579341E-01</totfact>
</mgrwt>
</event>
<event>
 6    1  0.1762360E-005  0.5297562E+03  0.7818608E-02  0.1006291E+00
         -2   -1    0    0    0  501 -0.00000000000E+00  0.00000000000E+00  0.24205706277E+02  0.24205706277E+02  0.00000000000E+00 0. -1.
          2   -1    0    0  501    0  0.00000000000E+00 -0.00000000000E+00 -0.28985065789E+04  0.28985065789E+04  0.00000000000E+00 0.  1.
         23    2    1    2    0    0  0.14762013442E+03  0.82715496078E+01 -0.26399696685E+04  0.26456360577E+04  0.89945408031E+02 0.  0.
         11    1    3    3    0    0  0.92878558348E+02 -0.38547630471E+02 -0.14410017711E+04  0.14445063000E+04  0.00000000000E+00 0.  1.
        -11    1    3    3    0    0  0.54741576076E+02  0.46819180079E+02 -0.11989678974E+04  0.12011297577E+04  0.00000000000E+00 0. -1.
         22    1    1    2    0    0 -0.14762013442E+03 -0.82715496078E+01 -0.23433120408E+03  0.27707622747E+03  0.00000000000E+00 0. -1.
<mgrwt>
<rscale>  0 0.52975617E+03</rscale>
<asrwt>0</asrwt>
<pdfrwt beam="1">  1        2 0.44592391E+00 0.52975617E+03</pdfrwt>
<pdfrwt beam="2">  1       -2 0.37239563E-02 0.52975617E+03</pdfrwt>
<totfact> 0.70427678E+02</totfact>
</mgrwt>
</event>
<event>
 6    1  0.1762360E-005  0.2389706E+04  0.7818608E-02  0.8443368E-01
          1   -1    0    0  501    0  0.00000000000E+00  0.00000000000E+00  0.92014944056E+03  0.92014944056E+03  0.00000000000E+00 0. -1.
         -1   -1    0    0    0  501 -0.00000000000E+00 -0.00000000000E+00 -0.15515672409E+04  0.15515672409E+04  0.00000000000E+00 0.  1.
         23    2    1    2    0    0  0.17819701239E+03 -0.99861045043E+03  0.33348712470E+03  0.10717100667E+04  0.91497529136E+02 0.  0.
         11    1    3    3    0    0  0.22287058948E+02 -0.22559158685E+03  0.39487322637E+02  0.23010329355E+03  0.00000000000E+00 0.  1.
        -11    1    3    3    0    0  0.15590995344E+03 -0.77301886358E+03  0.29399980206E+03  0.84160677317E+03  0.00000000000E+00 0. -1.
         22    1    1    2    0    0 -0.17819701239E+03  0.99861045043E+03 -0.96490492502E+03  0.14000066147E+04  0.00000000000E+00 0.  1.
<mgrwt>
<rscale>  0 0.23897060E+04</rscale>
<asrwt>0</asrwt>
<pdfrwt beam="1">  1        1 0.14156145E+00 0.23897060E+04</pdfrwt>
<pdfrwt beam="2">  1       -1 0.23870265E+00 0.23897060E+04</pdfrwt>
<totfact> 0.12991833E+00</totfact>
</mgrwt>
</event>
<event>
 6    1  0.1762360E-005  0.1793454E+04  0.7818608E-02  0.8709788E-01
          2   -1    0    0  501    0  0.00000000000E+00  0.00000000000E+00  0.39840565454E+04  0.39840565454E+04  0.00000000000E+00 0. -1.
         -2   -1    0    0    0  501 -0.00000000000E+00 -0.00000000000E+00 -0.20183431959E+03  0.20183431959E+03  0.00000000000E+00 0.  1.
         23    2    1    2    0    0  0.52708335958E+03 -0.71941642464E+03  0.17375587680E+04  0.19551901868E+04  0.91001837053E+02 0.  0.
         11    1    3    3    0    0  0.25486430254E+03 -0.37376136117E+03  0.97419357077E+03  0.10741072950E+04  0.00000000000E+00 0. -1.
        -11    1    3    3    0    0  0.27221905704E+03 -0.34565506347E+03  0.76336519723E+03  0.88108289182E+03  0.00000000000E+00 0.  1.
         22    1    1    2    0    0 -0.52708335958E+03  0.71941642464E+03  0.20446634578E+04  0.22307006782E+04  0.00000000000E+00 0. -1.
<mgrwt>
<rscale>  0 0.17934540E+04</rscale>
<asrwt>0</asrwt>
<pdfrwt beam="1">  1        2 0.61293172E+00 0.17934540E+04</pdfrwt>
<pdfrwt beam="2">  1       -2 0.31051437E-01 0.17934540E+04</pdfrwt>
<totfact> 0.32472506E+00</totfact>
</mgrwt>
</event>
<event>
 6    1  0.1762360E-005  0.8473993E+03  0.7818608E-02  0.9493834E-01
         -2   -1    0    0    0  501 -0.00000000000E+00  0.00000000000E+00  0.31577158219E+03  0.31577158219E+03  0.00000000000E+00 0. -1.
          2   -1    0    0  501    0  0.00000000000E+00 -0.00000000000E+00 -0.56851665246E+03  0.56851665246E+03  0.00000000000E+00 0.  1.
         23    2    1    2    0    0  0.35386154249E+03 -0.33309821524E+02  0.10092656288E+03  0.38287906085E+03  0.10041249265E+03 0.  0.
         11    1    3    3    0    0  0.28275052412E+03  0.68038072230E+00  0.11030651165E+03  0.30350592799E+03  0.00000000000E+00 0.  1.
        -11    1    3    3    0    0  0.71111018368E+02 -0.33990202246E+02 -0.93799487732E+01  0.79373132866E+02  0.00000000000E+00 0. -1.
         22    1    1    2    0    0 -0.35386154249E+03  0.33309821524E+02 -0.35367163315E+03  0.50140917379E+03  0.00000000000E+00 0.  1.
<mgrwt>
<rscale>  0 0.84739932E+03</rscale>
<asrwt>0</asrwt>
<pdfrwt beam="1">  1        2 0.87464100E-01 0.84739932E+03</pdfrwt>
<pdfrwt beam="2">  1       -2 0.48580244E-01 0.84739932E+03</pdfrwt>
<totfact> 0.21351091E+02</totfact>
</mgrwt>
</event>
<event>
 6    1  0.1762360E-005  0.1714933E+04  0.7818608E-02  0.8752893E-01
          2   -1    0    0  501    0  0.00000000000E+00  0.00000000000E+00  0.31821954585E+04  0.31821954585E+04  0.00000000000E+00 0. -1.
         -2   -1    0    0    0  501 -0.00000000000E+00 -0.00000000000E+00 -0.23105071270E+03  0.23105071270E+03  0.00000000000E+00 0.  1.
         23    2    1    2    0    0 -0.54245085556E+03  0.46941507684E+03  0.55364625389E+03  0.91072694775E+03  0.91082126934E+02 0.  0.
         11    1    3    3    0    0 -0.27654848920E+03  0.21164006895E+03  0.21750318285E+03  0.41058278119E+03  0.00000000000E+00 0. -1.
        -11    1    3    3    0    0 -0.26590236636E+03  0.25777500790E+03  0.33614307104E+03  0.50014416656E+03  0.00000000000E+00 0.  1.
         22    1    1    2    0    0  0.54245085556E+03 -0.46941507684E+03  0.23974984919E+04  0.25025192235E+04  0.00000000000E+00 0.  1.
<mgrwt>
<rscale>  0 0.17149327E+04</rscale>
<asrwt>0</asrwt>
<pdfrwt beam="1">  1        2 0.48956850E+00 0.17149327E+04</pdfrwt>
<pdfrwt beam="2">  1       -2 0.35546266E-01 0.17149327E+04</pdfrwt>
<totfact> 0.94731267E+00</totfact>
</mgrwt>
</event>
<event>
 6    1  0.1762360E-005  0.2650603E+04  0.7818608E-02  0.8351213E-01
          2   -1    0    0  501    0  0.00000000000E+00  0.00000000000E+00  0.39208128169E+04  0.39208128169E+04  0.00000000000E+00 0. -1.
         -2   -1    0    0    0  501 -0.00000000000E+00 -0.00000000000E+00 -0.44797448144E+03  0.44797448144E+03  0.00000000000E+00 0.  1.
         23    2    1    2    0    0  0.75364078598E+03  0.10647779870E+04  0.21094982769E+04  0.24818790571E+04  0.89521380230E+02 0.  0.
         11    1    3    3    0    0  0.24162902526E+03  0.40873616979E+03  0.80155417025E+03  0.93163240078E+03  0.00000000000E+00 0.  1.
        -11    1    3    3    0    0  0.51201176072E+03  0.65604181721E+03  0.13079441067E+04  0.15502466563E+04  0.00000000000E+00 0. -1.
         22    1    1    2    0    0 -0.75364078598E+03 -0.10647779870E+04  0.13633400585E+04  0.18869082413E+04  0.00000000000E+00 0.  1.
<mgrwt>
<rscale>  0 0.26506030E+04</rscale>
<asrwt>0</asrwt>
<pdfrwt beam="1">  1        2 0.60320195E+00 0.26506030E+04</pdfrwt>
<pdfrwt beam="2">  1       -2 0.68919154E-01 0.26506030E+04</pdfrwt>
<totfact> 0.67167971E-01</totfact>
</mgrwt>
</event>
<event>
 6    1  0.1762360E-005  0.2848516E+04  0.7818608E-02  0.8288362E-01
         -2   -1    0    0    0  501 -0.00000000000E+00  0.00000000000E+00  0.87171181612E+03  0.87171181612E+03  0.00000000000E+00 0.  1.
          2   -1    0    0  501    0  0.00000000000E+00 -0.00000000000E+00 -0.23270427653E+04  0.23270427653E+04  0.00000000000E+00 0. -1.
         23    2    1    2    0    0  0.11122923375E+04  0.10744288491E+03  0.26050232030E+03  0.11511164234E+04  0.92029037228E+02 0.  0.
         11    1    3    3    0    0  0.29605627197E+03  0.43997251822E+02  0.31300280193E+02  0.30093983100E+03  0.00000000000E+00 0. -1.
        -11    1    3    3    0    0  0.81623606554E+03  0.63445633083E+02  0.22920204011E+03  0.85017659239E+03  0.00000000000E+00 0.  1.
         22    1    1    2    0    0 -0.11122923375E+04 -0.10744288491E+03 -0.17158332695E+04  0.20476381581E+04  0.00000000000E+00 0. -1.
<mgrwt>
<rscale>  0 0.28485159E+04</rscale>
<asrwt>0</asrwt>
<pdfrwt beam="1">  1        2 0.35800658E+00 0.28485159E+04</pdfrwt>
<pdfrwt beam="2">  1       -2 0.13410951E+00 0.28485159E+04</pdfrwt>
<totfact> 0.15215994E+00</totfact>
</mgrwt>
</event>
<event>
 6    1  0.1762360E-005  0.2454062E+04  0.7818608E-02  0.8419536E-01
         -1   -1    0    0    0  501 -0.00000000000E+00  0.00000000000E+00  0.83174052963E+03  0.83174052963E+03  0.00000000000E+00 0.  1.
          1   -1    0    0  501    0  0.00000000000E+00 -0.00000000000E+00 -0.18101859361E+04  0.18101859361E+04  0.00000000000E+00 0. -1.
         23    2    1    2    0    0 -0.41312022927E+03  0.80957625683E+03  0.39472106884E+03  0.99521209816E+03  0.92522206446E+02 0.  0.
         11    1    3    3    0    0 -0.10129433452E+03  0.29469112322E+03  0.13812458222E+03  0.34085451519E+03  0.00000000000E+00 0. -1.
        -11    1    3    3    0    0 -0.31182589474E+03  0.51488513360E+03  0.25659648662E+03  0.65435758296E+03  0.00000000000E+00 0.  1.
         22    1    1    2    0    0  0.41312022927E+03 -0.80957625683E+03 -0.13731664753E+04  0.16467143676E+04  0.00000000000E+00 0. -1.
<mgrwt>
<rscale>  0 0.24540619E+04</rscale>
<asrwt>0</asrwt>
<pdfrwt beam="1">  1        1 0.27849014E+00 0.24540619E+04</pdfrwt>
<pdfrwt beam="2">  1       -1 0.12796008E+00 0.24540619E+04</pdfrwt>
<totfact> 0.18873384E+00</totfact>
</mgrwt>
</event>
<event>
 6    1  0.1762360E-005  0.4992391E+04  0.7818608E-02  0.7829682E-01
          2   -1    0    0  501    0  0.00000000000E+00  0.00000000000E+00  0.31747308260E+04  0.31747308260E+04  0.00000000000E+00 0. -1.
         -2   -1    0    0    0  501 -0.00000000000E+00 -0.00000000000E+00 -0.19626835541E+04  0.19626835541E+04  0.00000000000E+00 0.  1.
         23    2    1    2    0    0  0.10131478791E+04 -0.17422364605E+04  0.21202215863E+04  0.29268404513E+04  0.95911119579E+02 0.  0.
         11    1    3    3    0    0  0.73084294787E+03 -0.11782109388E+04  0.14274826957E+04  0.19899797178E+04  0.00000000000E+00 0.  1.
        -11    1    3    3    0    0  0.28230493127E+03 -0.56402552172E+03  0.69273889064E+03  0.93686073350E+03  0.00000000000E+00 0. -1.
         22    1    1    2    0    0 -0.10131478791E+04  0.17422364605E+04 -0.90817431451E+03  0.22105739288E+04  0.00000000000E+00 0.  1.
<mgrwt>
<rscale>  0 0.49923910E+04</rscale>
<asrwt>0</asrwt>
<pdfrwt beam="1">  1        2 0.48842013E+00 0.49923910E+04</pdfrwt>
<pdfrwt beam="2">  1       -2 0.30195131E+00 0.49923910E+04</pdfrwt>
<totfact> 0.30310616E-02</totfact>
</mgrwt>
</event>
<event>
 6    1  0.1762360E-005  0.2906047E+04  0.7818608E-02  0.8271080E-01
         -2   -1    0    0    0  501 -0.00000000000E+00  0.00000000000E+00  0.16715728206E+04  0.16715728206E+04  0.00000000000E+00 0. -1.
          2   -1    0    0  501    0  0.00000000000E+00 -0.00000000000E+00 -0.12630487698E+04  0.12630487698E+04  0.00000000000E+00 0.  1.
         23    2    1    2    0    0 -0.30430108712E+03  0.65569195145E+03 -0.10667940130E+04  0.12917294831E+04  0.89356055259E+02 0.  0.
         13    1    3    3    0    0 -0.20995041363E+03  0.49706742161E+03 -0.85245468230E+03  0.10088776849E+04  0.00000000000E+00 0.  1.
        -13    1    3    3    0    0 -0.94350673483E+02  0.15862452984E+03 -0.21433933072E+03  0.28285179820E+03  0.00000000000E+00 0. -1.
         22    1    1    2    0    0  0.30430108712E+03 -0.65569195145E+03  0.14753180638E+04  0.16428921073E+04  0.00000000000E+00 0. -1.
<mgrwt>
<rscale>  0 0.29060475E+04</rscale>
<asrwt>0</asrwt>
<pdfrwt beam="1">  1        2 0.19431519E+00 0.29060475E+04</pdfrwt>
<pdfrwt beam="2">  1       -2 0.25716505E+00 0.29060475E+04</pdfrwt>
<totfact> 0.87044817E-01</totfact>
</mgrwt>
</event>
<event>
 6    1  0.1762360E-005  0.3168163E+04  0.7818608E-02  0.8197276E-01
          1   -1    0    0  501    0  0.00000000000E+00  0.00000000000E+00  0.30277930923E+04  0.30277930923E+04  0.00000000000E+00 0. -1.
         -1   -1    0    0    0  501 -0.00000000000E+00 -0.00000000000E+00 -0.82875989162E+03  0.82875989162E+03  0.00000000000E+00 0.  1.
         23    2    1    2    0    0 -0.18446766930E+03 -0.15184633138E+04  0.15952413160E+04  0.22120701484E+04  0.93275553464E+02 0.  0.
         13    1    3    3    0    0 -0.48049727995E+02 -0.76042306838E+03  0.81560761755E+03  0.11161396889E+04  0.00000000000E+00 0. -1.
        -13    1    3    3    0    0 -0.13641794131E+03 -0.75804024538E+03  0.77963369843E+03  0.10959304595E+04  0.00000000000E+00 0.  1.
         22    1    1    2    0    0  0.18446766930E+03  0.15184633138E+04  0.60379188466E+03  0.16444828355E+04  0.00000000000E+00 0.  1.
<mgrwt>
<rscale>  0 0.31681625E+04</rscale>
<asrwt>0</asrwt>
<pdfrwt beam="1">  1        1 0.46581432E+00 0.31681625E+04</pdfrwt>
<pdfrwt beam="2">  1       -1 0.12750152E+00 0.31681625E+04</pdfrwt>
<totfact> 0.25462770E-01</totfact>
</mgrwt>
</event>
<event>
 6    1  0.1762360E-005  0.4442998E+04  0.7818608E-02  0.7920693E-01
         -2   -1    0    0    0  501 -0.00000000000E+00  0.00000000000E+00  0.25225995657E+04  0.25225995657E+04  0.00000000000E+00 0.  1.
          2   -1    0    0  501    0  0.00000000000E+00 -0.00000000000E+00 -0.19563384143E+04  0.19563384143E+04  0.00000000000E+00 0. -1.
         23    2    1    2    0    0 -0.41320330161E+03 -0.18603424949E+04 -0.86582549431E+03  0.20951419888E+04  0.91405688677E+02 0.  0.
         11    1    3    3    0    0 -0.14949236379E+03 -0.72644374561E+03 -0.38441020926E+03  0.83536799756E+03  0.00000000000E+00 0. -1.
        -11    1    3    3    0    0 -0.26371093782E+03 -0.11338987493E+04 -0.48141528505E+03  0.12597739913E+04  0.00000000000E+00 0.  1.
         22    1    1    2    0    0  0.41320330161E+03  0.18603424949E+04  0.14320866457E+04  0.23837959912E+04  0.00000000000E+00 0.  1.
<mgrwt>
<rscale>  0 0.44429983E+04</rscale>
<asrwt>0</asrwt>
<pdfrwt beam="1">  1        2 0.30097514E+00 0.44429983E+04</pdfrwt>
<pdfrwt beam="2">  1       -2 0.38809224E+00 0.44429983E+04</pdfrwt>
<totfact> 0.47728594E-02</totfact>
</mgrwt>
</event>
<event>
 6    1  0.1762360E-005  0.3815003E+04  0.7818608E-02  0.8042943E-01
         -1   -1    0    0    0  501 -0.00000000000E+00  0.00000000000E+00  0.15023669083E+04  0.15023669083E+04  0.00000000000E+00 0.  1.
          1   -1    0    0  501    0  0.00000000000E+00 -0.00000000000E+00 -0.24218863251E+04  0.24218863251E+04  0.00000000000E+00 0. -1.
         23    2    1    2    0    0 -0.78346146626E+03 -0.67360635743E+03 -0.21080456275E+04  0.23494034161E+04  0.91009065733E+02 0.  0.
         13    1    3    3    0    0 -0.33102124366E+03 -0.23164423865E+03 -0.86481163266E+03  0.95453301517E+03  0.00000000000E+00 0.  1.
        -13    1    3    3    0    0 -0.45244022260E+03 -0.44196211878E+03 -0.12432339948E+04  0.13948704009E+04  0.00000000000E+00 0. -1.
         22    1    1    2    0    0  0.78346146626E+03  0.67360635743E+03  0.11885262106E+04  0.15748498174E+04  0.00000000000E+00 0.  1.
<mgrwt>
<rscale>  0 0.38150029E+04</rscale>
<asrwt>0</asrwt>
<pdfrwt beam="1">  1        1 0.37259789E+00 0.38150029E+04</pdfrwt>
<pdfrwt beam="2">  1       -1 0.23113337E+00 0.38150029E+04</pdfrwt>
<totfact> 0.11312396E-01</totfact>
</mgrwt>
</event>
<event>
 6    1  0.1762360E-005  0.1245014E+04  0.7818608E-02  0.9074344E-01
          3   -1    0    0  501    0  0.00000000000E+00  0.00000000000E+00  0.31991561016E+04  0.31991561016E+04  0.00000000000E+00 0. -1.
         -3   -1    0    0    0  501 -0.00000000000E+00 -0.00000000000E+00 -0.12113028659E+03  0.12113028659E+03  0.00000000000E+00 0.  1.
         23    2    1    2    0    0  0.84853640360E+02  0.43962282227E+03  0.26896009634E+04  0.27275451027E+04  0.71278180640E+02 0.  0.
         13    1    3    3    0    0  0.68445300715E+02  0.40909409190E+03  0.23648017907E+04  0.24009019648E+04  0.00000000000E+00 0. -1.
        -13    1    3    3    0    0  0.16408339645E+02  0.30528730367E+02  0.32479917267E+03  0.32664313793E+03  0.00000000000E+00 0.  1.
         22    1    1    2    0    0 -0.84853640360E+02 -0.43962282227E+03  0.38842485165E+03  0.59274128548E+03  0.00000000000E+00 0.  1.
<mgrwt>
<rscale>  0 0.12450136E+04</rscale>
<asrwt>0</asrwt>
<pdfrwt beam="1">  1        3 0.49217780E+00 0.12450136E+04</pdfrwt>
<pdfrwt beam="2">  1       -3 0.18635431E-01 0.12450136E+04</pdfrwt>
<totfact> 0.25754930E-01</totfact>
</mgrwt>
</event>
<event>
 6    1  0.1762360E-005  0.2832582E+04  0.7818608E-02  0.8293224E-01
          2   -1    0    0  501    0  0.00000000000E+00  0.00000000000E+00  0.15285755349E+04  0.15285755349E+04  0.00000000000E+00 0. -1.
         -2   -1    0    0    0  501 -0.00000000000E+00 -0.00000000000E+00 -0.13122543112E+04  0.13122543112E+04  0.00000000000E+00 0.  1.
         23    2    1    2    0    0  0.48656239830E+03 -0.11217693198E+04  0.82266665790E+03  0.14759986625E+04  0.81745013744E+02 0.  0.
         13    1    3    3    0    0  0.37088805225E+03 -0.77152103888E+03  0.59564018573E+03  0.10428757796E+04  0.00000000000E+00 0.  1.
        -13    1    3    3    0    0  0.11567434604E+03 -0.35024828096E+03  0.22702647217E+03  0.43312288293E+03  0.00000000000E+00 0. -1.
         22    1    1    2    0    0 -0.48656239830E+03  0.11217693198E+04 -0.60634543418E+03  0.13648311837E+04  0.00000000000E+00 0.  1.
<mgrwt>
<rscale>  0 0.28325817E+04</rscale>
<asrwt>0</asrwt>
<pdfrwt beam="1">  1        2 0.23516547E+00 0.28325817E+04</pdfrwt>
<pdfrwt beam="2">  1       -2 0.20188528E+00 0.28325817E+04</pdfrwt>
<totfact> 0.13722655E+00</totfact>
</mgrwt>
</event>
<event>
 6    1  0.1762360E-005  0.3456809E+04  0.7818608E-02  0.8124103E-01
          2   -1    0    0  501    0  0.00000000000E+00  0.00000000000E+00  0.37687142057E+04  0.37687142057E+04  0.00000000000E+00 0. -1.
         -2   -1    0    0    0  501 -0.00000000000E+00 -0.00000000000E+00 -0.79267925298E+03  0.79267925298E+03  0.00000000000E+00 0.  1.
         23    2    1    2    0    0 -0.32988955574E+03 -0.59066491545E+03 -0.60803332756E+03  0.91403035652E+03  0.89637067558E+02 0.  0.
         13    1    3    3    0    0 -0.61826209112E+01  0.42055943671E+00 -0.15397238991E+02  0.16597488970E+02  0.00000000000E+00 0.  1.
        -13    1    3    3    0    0 -0.32370693483E+03 -0.59108547489E+03 -0.59263608857E+03  0.89743286755E+03  0.00000000000E+00 0. -1.
         22    1    1    2    0    0  0.32988955574E+03  0.59066491545E+03  0.35840682803E+04  0.36473631022E+04  0.00000000000E+00 0. -1.
<mgrwt>
<rscale>  0 0.34568087E+04</rscale>
<asrwt>0</asrwt>
<pdfrwt beam="1">  1        2 0.57980217E+00 0.34568087E+04</pdfrwt>
<pdfrwt beam="2">  1       -2 0.12195066E+00 0.34568087E+04</pdfrwt>
<totfact> 0.21770795E-01</totfact>
</mgrwt>
</event>
<event>
 6    1  0.1762360E-005  0.2795072E+04  0.7818608E-02  0.8304800E-01
          1   -1    0    0  501    0  0.00000000000E+00  0.00000000000E+00  0.11925860973E+04  0.11925860973E+04  0.00000000000E+00 0.  1.
         -1   -1    0    0    0  501 -0.00000000000E+00 -0.00000000000E+00 -0.16377073356E+04  0.16377073356E+04  0.00000000000E+00 0. -1.
         23    2    1    2    0    0 -0.18758982070E+03 -0.39496946780E+03 -0.15652581745E+04  0.16278386199E+04  0.92922538683E+02 0.  0.
         13    1    3    3    0    0 -0.40248569822E+02 -0.11901368030E+03 -0.60508468309E+03  0.61799003000E+03  0.00000000000E+00 0.  1.
        -13    1    3    3    0    0 -0.14734125087E+03 -0.27595578750E+03 -0.96017349144E+03  0.10098485899E+04  0.00000000000E+00 0. -1.
         22    1    1    2    0    0  0.18758982070E+03  0.39496946780E+03  0.11201369363E+04  0.12024548130E+04  0.00000000000E+00 0.  1.
<mgrwt>
<rscale>  0 0.27950721E+04</rscale>
<asrwt>0</asrwt>
<pdfrwt beam="1">  1        1 0.18347478E+00 0.27950721E+04</pdfrwt>
<pdfrwt beam="2">  1       -1 0.25195497E+00 0.27950721E+04</pdfrwt>
<totfact> 0.63439622E-01</totfact>
</mgrwt>
</event>
<event>
 6    1  0.1762360E-005  0.2960453E+04  0.7818608E-02  0.8255115E-01
          1   -1    0    0  501    0  0.00000000000E+00  0.00000000000E+00  0.11243078732E+04  0.11243078732E+04  0.00000000000E+00 0. -1.
         -1   -1    0    0    0  501 -0.00000000000E+00 -0.00000000000E+00 -0.19488174509E+04  0.19488174509E+04  0.00000000000E+00 0.  1.
         23    2    1    2    0    0  0.12088058543E+04 -0.11944013266E+03 -0.12881372858E+04  0.17729606460E+04  0.92812964146E+02 0.  0.
         13    1    3    3    0    0  0.59809213768E+03 -0.82838709841E+02 -0.58171680619E+03  0.83843359881E+03  0.00000000000E+00 0.  1.
        -13    1    3    3    0    0  0.61071371666E+03 -0.36601422814E+02 -0.70642047959E+03  0.93452704715E+03  0.00000000000E+00 0. -1.
         22    1    1    2    0    0 -0.12088058543E+04  0.11944013266E+03  0.46362770804E+03  0.13001646782E+04  0.00000000000E+00 0. -1.
<mgrwt>
<rscale>  0 0.29604532E+04</rscale>
<asrwt>0</asrwt>
<pdfrwt beam="1">  1        1 0.17297045E+00 0.29604532E+04</pdfrwt>
<pdfrwt beam="2">  1       -1 0.29981806E+00 0.29604532E+04</pdfrwt>
<totfact> 0.34373034E-01</totfact>
</mgrwt>
</event>
<event>
 6    1  0.1762360E-005  0.5460259E+03  0.7818608E-02  0.1002418E+00
         -2   -1    0    0    0  501 -0.00000000000E+00  0.00000000000E+00  0.20961692692E+03  0.20961692692E+03  0.00000000000E+00 0.  1.
          2   -1    0    0  501    0  0.00000000000E+00 -0.00000000000E+00 -0.35558232757E+03  0.35558232757E+03  0.00000000000E+00 0. -1.
         23    2    1    2    0    0 -0.21953418471E+03 -0.14616883355E+03 -0.10536080304E+03  0.29834851062E+03  0.91380243039E+02 0.  0.
         11    1    3    3    0    0 -0.12737518832E+03 -0.40864988999E+02 -0.22294486062E+02  0.13561500667E+03  0.00000000000E+00 0. -1.
        -11    1    3    3    0    0 -0.92158996384E+02 -0.10530384455E+03 -0.83066316974E+02  0.16273350395E+03  0.00000000000E+00 0.  1.
         22    1    1    2    0    0  0.21953418471E+03  0.14616883355E+03 -0.40604597615E+02  0.26685074387E+03  0.00000000000E+00 0.  1.
<mgrwt>
<rscale>  0 0.54602591E+03</rscale>
<asrwt>0</asrwt>
<pdfrwt beam="1">  1        2 0.54704973E-01 0.54602591E+03</pdfrwt>
<pdfrwt beam="2">  1       -2 0.32248758E-01 0.54602591E+03</pdfrwt>
<totfact> 0.81602539E+02</totfact>
</mgrwt>
</event>
<event>
 6    1  0.1762360E-005  0.7075766E+03  0.7818608E-02  0.9704362E-01
          4   -1    0    0  501    0  0.00000000000E+00  0.00000000000E+00  0.77619592251E+03  0.77619592251E+03  0.00000000000E+00 0.  1.
         -4   -1    0    0    0  501 -0.00000000000E+00 -0.00000000000E+00 -0.16125589418E+03  0.16125589418E+03  0.00000000000E+00 0. -1.
         23    2    1    2    0    0 -0.89707415291E+02  0.10949127478E+03 -0.10857291160E+03  0.20022272485E+03  0.90913710742E+02 0.  0.
         13    1    3    3    0    0 -0.60182070609E+02  0.10344513710E+02 -0.61158595142E+02  0.86424905822E+02  0.00000000000E+00 0. -1.
        -13    1    3    3    0    0 -0.29525344682E+02  0.99146761075E+02 -0.47414316460E+02  0.11379781903E+03  0.00000000000E+00 0.  1.
         22    1    1    2    0    0  0.89707415291E+02 -0.10949127478E+03  0.72351293993E+03  0.73722909184E+03  0.00000000000E+00 0.  1.
<mgrwt>
<rscale>  0 0.70757662E+03</rscale>
<asrwt>0</asrwt>
<pdfrwt beam="1">  1        4 0.11941476E+00 0.70757662E+03</pdfrwt>
<pdfrwt beam="2">  1       -4 0.24808600E-01 0.70757662E+03</pdfrwt>
<totfact> 0.16478755E+01</totfact>
</mgrwt>
</event>
<event>
 6    1  0.1762360E-005  0.1840376E+04  0.7818608E-02  0.8685118E-01
          2   -1    0    0  501    0  0.00000000000E+00  0.00000000000E+00  0.15822823720E+04  0.15822823720E+04  0.00000000000E+00 0.  1.
         -2   -1    0    0    0  501 -0.00000000000E+00 -0.00000000000E+00 -0.53514199215E+03  0.53514199215E+03  0.00000000000E+00 0. -1.
         23    2    1    2    0    0  0.63373250898E+03  0.61184258727E+03  0.82258820568E+03  0.12083633522E+04  0.86731714329E+02 0.  0.
         11    1    3    3    0    0  0.10739713376E+03  0.62651919351E+02  0.10843432588E+03  0.16497699951E+03  0.00000000000E+00 0.  1.
        -11    1    3    3    0    0  0.52633537522E+03  0.54919066792E+03  0.71415387980E+03  0.10433863527E+04  0.00000000000E+00 0. -1.
         22    1    1    2    0    0 -0.63373250898E+03 -0.61184258727E+03  0.22455217417E+03  0.90906101196E+03  0.00000000000E+00 0.  1.
<mgrwt>
<rscale>  0 0.18403758E+04</rscale>
<asrwt>0</asrwt>
<pdfrwt beam="1">  1        2 0.24342805E+00 0.18403758E+04</pdfrwt>
<pdfrwt beam="2">  1       -2 0.82329538E-01 0.18403758E+04</pdfrwt>
<totfact> 0.13909726E+01</totfact>
</mgrwt>
</event>
<event>
 6    1  0.1762360E-005  0.1609025E+04  0.7818608E-02  0.8815022E-01
          2   -1    0    0  501    0  0.00000000000E+00  0.00000000000E+00  0.19595553281E+04  0.19595553281E+04  0.00000000000E+00 0. -1.
         -2   -1    0    0    0  501 -0.00000000000E+00 -0.00000000000E+00 -0.33029979454E+03  0.33029979454E+03  0.00000000000E+00 0.  1.
         23    2    1    2    0    0  0.76815649808E+03 -0.22773659573E+03  0.77414416512E+03  0.11180429299E+04  0.93768023197E+02 0.  0.
         11    1    3    3    0    0  0.27337920194E+03 -0.55447249616E+02  0.21836940757E+03  0.35425384078E+03  0.00000000000E+00 0.  1.
        -11    1    3    3    0    0  0.49477729614E+03 -0.17228934612E+03  0.55577475755E+03  0.76378908914E+03  0.00000000000E+00 0. -1.
         22    1    1    2    0    0 -0.76815649808E+03  0.22773659573E+03  0.85511136843E+03  0.11718121927E+04  0.00000000000E+00 0.  1.
<mgrwt>
<rscale>  0 0.16090254E+04</rscale>
<asrwt>0</asrwt>
<pdfrwt beam="1">  1        2 0.30147004E+00 0.16090254E+04</pdfrwt>
<pdfrwt beam="2">  1       -2 0.50815354E-01 0.16090254E+04</pdfrwt>
<totfact> 0.24689126E+01</totfact>
</mgrwt>
</event>
<event>
 6    1  0.1762360E-005  0.4242354E+04  0.7818608E-02  0.7957364E-01
         -2   -1    0    0    0  501 -0.00000000000E+00  0.00000000000E+00  0.24144556796E+04  0.24144556796E+04  0.00000000000E+00 0.  1.
          2   -1    0    0  501    0  0.00000000000E+00 -0.00000000000E+00 -0.18635224213E+04  0.18635224213E+04  0.00000000000E+00 0. -1.
         23    2    1    2    0    0  0.15089195230E+04  0.67738703413E+03  0.16131973660E+04  0.23122476119E+04  0.91607620373E+02 0.  0.
         11    1    3    3    0    0  0.85761188945E+03  0.37386829488E+03  0.85033081941E+03  0.12642539924E+04  0.00000000000E+00 0.  1.
        -11    1    3    3    0    0  0.65130763355E+03  0.30351873925E+03  0.76286654656E+03  0.10479936195E+04  0.00000000000E+00 0. -1.
         22    1    1    2    0    0 -0.15089195230E+04 -0.67738703413E+03 -0.10622641077E+04  0.19657304890E+04  0.00000000000E+00 0. -1.
<mgrwt>
<rscale>  0 0.42423542E+04</rscale>
<asrwt>0</asrwt>
<pdfrwt beam="1">  1        2 0.28669576E+00 0.42423542E+04</pdfrwt>
<pdfrwt beam="2">  1       -2 0.37145472E+00 0.42423542E+04</pdfrwt>
<totfact> 0.69924832E-02</totfact>
</mgrwt>
</event>
<event>
 6    1  0.1762360E-005  0.2018252E+04  0.7818608E-02  0.8598134E-01
         -1   -1    0    0    0  501 -0.00000000000E+00  0.00000000000E+00  0.64485789447E+03  0.64485789447E+03  0.00000000000E+00 0.  1.
          1   -1    0    0  501    0  0.00000000000E+00 -0.00000000000E+00 -0.15791627669E+04  0.15791627669E+04  0.00000000000E+00 0. -1.
         23    2    1    2    0    0  0.44419764720E+03  0.20235860992E+03 -0.14386996131E+04  0.15221128246E+04  0.93329079863E+02 0.  0.
         11    1    3    3    0    0  0.29721246237E+03  0.17787143227E+03 -0.94849055499E+03  0.10097563207E+04  0.00000000000E+00 0. -1.
        -11    1    3    3    0    0  0.14698518483E+03  0.24487177648E+02 -0.49020905815E+03  0.51235650393E+03  0.00000000000E+00 0.  1.
         22    1    1    2    0    0 -0.44419764720E+03 -0.20235860992E+03  0.50439474074E+03  0.70190783674E+03  0.00000000000E+00 0.  1.
<mgrwt>
<rscale>  0 0.20182523E+04</rscale>
<asrwt>0</asrwt>
<pdfrwt beam="1">  1        1 0.24294812E+00 0.20182523E+04</pdfrwt>
<pdfrwt beam="2">  1       -1 0.99208907E-01 0.20182523E+04</pdfrwt>
<totfact> 0.51842729E+00</totfact>
</mgrwt>
</event>
<event>
 6    1  0.1762360E-005  0.1032511E+04  0.7818608E-02  0.9273589E-01
          1   -1    0    0  501    0  0.00000000000E+00  0.00000000000E+00  0.11235616087E+04  0.11235616087E+04  0.00000000000E+00 0. -1.
         -1   -1    0    0    0  501 -0.00000000000E+00 -0.00000000000E+00 -0.23720958833E+03  0.23720958833E+03  0.00000000000E+00 0.  1.
         23    2    1    2    0    0 -0.30211248168E+03 -0.26412084396E+03  0.25568088776E+02  0.41104452652E+03  0.85276631162E+02 0.  0.
         11    1    3    3    0    0 -0.27410043079E+03 -0.19822719452E+03  0.27808508645E+02  0.33940886842E+03  0.00000000000E+00 0. -1.
        -11    1    3    3    0    0 -0.28012050885E+02 -0.65893649435E+02 -0.22404198693E+01  0.71635658102E+02  0.00000000000E+00 0.  1.
         22    1    1    2    0    0  0.30211248168E+03  0.26412084396E+03  0.86078393162E+03  0.94972667054E+03  0.00000000000E+00 0. -1.
<mgrwt>
<rscale>  0 0.10325107E+04</rscale>
<asrwt>0</asrwt>
<pdfrwt beam="1">  1        1 0.17285563E+00 0.10325107E+04</pdfrwt>
<pdfrwt beam="2">  1       -1 0.36493784E-01 0.10325107E+04</pdfrwt>
<totfact> 0.87582456E+01</totfact>
</mgrwt>
</event>
<event>
 6    1  0.1762360E-005  0.2122796E+04  0.7818608E-02  0.8551268E-01
         -1   -1    0    0    0  501 -0.00000000000E+00  0.00000000000E+00  0.11016582843E+04  0.11016582843E+04  0.00000000000E+00 0.  1.
          1   -1    0    0  501    0  0.00000000000E+00 -0.00000000000E+00 -0.10226087742E+04  0.10226087742E+04  0.00000000000E+00 0. -1.
         23    2    1    2    0    0  0.53543125203E+03 -0.52568169420E+03 -0.70882510938E+03  0.10362531407E+04  0.91431212323E+02 0.  0.
         13    1    3    3    0    0  0.91822847743E+02 -0.55008889394E+02 -0.12897162199E+03  0.16760397537E+03  0.00000000000E+00 0. -1.
        -13    1    3    3    0    0  0.44360840429E+03 -0.47067280481E+03 -0.57985348739E+03  0.86864916530E+03  0.00000000000E+00 0.  1.
         22    1    1    2    0    0 -0.53543125203E+03  0.52568169420E+03  0.78787461947E+03  0.10880139178E+04  0.00000000000E+00 0.  1.
<mgrwt>
<rscale>  0 0.21227957E+04</rscale>
<asrwt>0</asrwt>
<pdfrwt beam="1">  1        1 0.15732443E+00 0.21227957E+04</pdfrwt>
<pdfrwt beam="2">  1       -1 0.16948589E+00 0.21227957E+04</pdfrwt>
<totfact> 0.33103662E+00</totfact>
</mgrwt>
</event>
<event>
 6    1  0.1935273E-005  0.3200785E+04  0.7818608E-02  0.8188610E-01
          3   -1    0    0  501    0  0.00000000000E+00  0.00000000000E+00  0.14134008173E+04  0.14134008173E+04  0.00000000000E+00 0. -1.
         -3   -1    0    0    0  501 -0.00000000000E+00 -0.00000000000E+00 -0.18121228303E+04  0.18121228303E+04  0.00000000000E+00 0.  1.
         23    2    1    2    0    0  0.12364094521E+04  0.99751102440E+03 -0.15209070072E+02  0.15912596682E+04  0.90218838789E+02 0.  0.
         13    1    3    3    0    0  0.78125474264E+03  0.58103697367E+03  0.12192914063E+02  0.97371022631E+03  0.00000000000E+00 0.  1.
        -13    1    3    3    0    0  0.45515470943E+03  0.41647405074E+03 -0.27401984134E+02  0.61754944190E+03  0.00000000000E+00 0. -1.
         22    1    1    2    0    0 -0.12364094521E+04 -0.99751102440E+03 -0.38351294296E+03  0.16342639794E+04  0.00000000000E+00 0. -1.
<mgrwt>
<rscale>  0 0.32007848E+04</rscale>
<asrwt>0</asrwt>
<pdfrwt beam="1">  1        3 0.21744628E+00 0.32007848E+04</pdfrwt>
<pdfrwt beam="2">  1       -3 0.27878813E+00 0.32007848E+04</pdfrwt>
<totfact> 0.12532906E-02</totfact>
</mgrwt>
</event>
<event>
 6    1  0.1762360E-005  0.1568068E+04  0.7818608E-02  0.8840409E-01
         -1   -1    0    0    0  501 -0.00000000000E+00  0.00000000000E+00  0.55439178405E+03  0.55439178405E+03  0.00000000000E+00 0.  1.
          1   -1    0    0  501    0  0.00000000000E+00 -0.00000000000E+00 -0.11087993828E+04  0.11087993828E+04  0.00000000000E+00 0. -1.
         23    2    1    2    0    0 -0.39130565999E+03  0.40328454753E+03 -0.85387153909E+03  0.10264516617E+04  0.93530009916E+02 0.  0.
         11    1    3    3    0    0 -0.14410974426E+03  0.18504094761E+03 -0.42553566036E+03  0.48588925582E+03  0.00000000000E+00 0.  1.
        -11    1    3    3    0    0 -0.24719591574E+03  0.21824359993E+03 -0.42833587873E+03  0.54056240590E+03  0.00000000000E+00 0. -1.
         22    1    1    2    0    0  0.39130565999E+03 -0.40328454753E+03  0.29946394034E+03  0.63673950513E+03  0.00000000000E+00 0.  1.
<mgrwt>
<rscale>  0 0.15680679E+04</rscale>
<asrwt>0</asrwt>
<pdfrwt beam="1">  1        1 0.17058452E+00 0.15680679E+04</pdfrwt>
<pdfrwt beam="2">  1       -1 0.85291043E-01 0.15680679E+04</pdfrwt>
<totfact> 0.16327398E+01</totfact>
</mgrwt>
</event>
<event>
 6    1  0.1762360E-005  0.1722632E+04  0.7818608E-02  0.8748561E-01
         -1   -1    0    0    0  501 -0.00000000000E+00  0.00000000000E+00  0.46857832611E+03  0.46857832611E+03  0.00000000000E+00 0.  1.
          1   -1    0    0  501    0  0.00000000000E+00 -0.00000000000E+00 -0.15832257932E+04  0.15832257932E+04  0.00000000000E+00 0. -1.
         23    2    1    2    0    0  0.31967543083E+03  0.41392206485E+03 -0.13703909536E+04  0.14696283832E+04  0.91172156409E+02 0.  0.
         11    1    3    3    0    0  0.25458545775E+03  0.37811165145E+03 -0.11495934550E+04  0.12366678163E+04  0.00000000000E+00 0. -1.
        -11    1    3    3    0    0  0.65089973077E+02  0.35810413401E+02 -0.22079749861E+03  0.23296056682E+03  0.00000000000E+00 0.  1.
         22    1    1    2    0    0 -0.31967543083E+03 -0.41392206485E+03  0.25574348652E+03  0.58217573613E+03  0.00000000000E+00 0.  1.
<mgrwt>
<rscale>  0 0.17226320E+04</rscale>
<asrwt>0</asrwt>
<pdfrwt beam="1">  1        1 0.24357320E+00 0.17226320E+04</pdfrwt>
<pdfrwt beam="2">  1       -1 0.72088973E-01 0.17226320E+04</pdfrwt>
<totfact> 0.10567369E+01</totfact>
</mgrwt>
</event>
<event>
 6    1  0.1762360E-005  0.1794157E+04  0.7818608E-02  0.8709413E-01
         -3   -1    0    0    0  501 -0.00000000000E+00  0.00000000000E+00  0.98416611761E+03  0.98416611761E+03  0.00000000000E+00 0.  1.
          3   -1    0    0  501    0  0.00000000000E+00 -0.00000000000E+00 -0.81769687240E+03  0.81769687240E+03  0.00000000000E+00 0. -1.
         23    2    1    2    0    0 -0.79676637138E+03  0.11200070476E+03  0.47653932016E+03  0.93958446204E+03  0.91369739081E+02 0.  0.
         11    1    3    3    0    0 -0.52127499744E+02 -0.49274902668E+01  0.10556790155E+02  0.53413502116E+02  0.00000000000E+00 0. -1.
        -11    1    3    3    0    0 -0.74463887164E+03  0.11692819502E+03  0.46598253000E+03  0.88617095992E+03  0.00000000000E+00 0.  1.
         22    1    1    2    0    0  0.79676637138E+03 -0.11200070476E+03 -0.31007007494E+03  0.86227852797E+03  0.00000000000E+00 0. -1.
<mgrwt>
<rscale>  0 0.17941567E+04</rscale>
<asrwt>0</asrwt>
<pdfrwt beam="1">  1        3 0.12579952E+00 0.17941567E+04</pdfrwt>
<pdfrwt beam="2">  1       -3 0.15141017E+00 0.17941567E+04</pdfrwt>
<totfact> 0.39236342E-01</totfact>
</mgrwt>
</event>
<event>
 6    1  0.1762360E-005  0.2426174E+04  0.7818608E-02  0.8429769E-01
          1   -1    0    0  501    0  0.00000000000E+00  0.00000000000E+00  0.16949907963E+04  0.16949907963E+04  0.00000000000E+00 0. -1.
         -1   -1    0    0    0  501 -0.00000000000E+00 -0.00000000000E+00 -0.86819361431E+03  0.86819361431E+03  0.00000000000E+00 0.  1.
         23    2    1    2    0    0 -0.11231867894E+04 -0.45102739205E+03  0.46321182388E+03  0.12993930572E+04  0.94248877337E+02 0.  0.
         13    1    3    3    0    0 -0.57669955434E+03 -0.23853437787E+03  0.28872239360E+03  0.68763482021E+03  0.00000000000E+00 0. -1.
        -13    1    3    3    0    0 -0.54648723509E+03 -0.21249301418E+03  0.17448943028E+03  0.61175823695E+03  0.00000000000E+00 0.  1.
         22    1    1    2    0    0  0.11231867894E+04  0.45102739205E+03  0.36358535807E+03  0.12637913534E+04  0.00000000000E+00 0.  1.
<mgrwt>
<rscale>  0 0.24261741E+04</rscale>
<asrwt>0</asrwt>
<pdfrwt beam="1">  1        1 0.26076781E+00 0.24261741E+04</pdfrwt>
<pdfrwt beam="2">  1       -1 0.13356825E+00 0.24261741E+04</pdfrwt>
<totfact> 0.20331432E+00</totfact>
</mgrwt>
</event>
<event>
 6    1  0.1762360E-005  0.1111510E+04  0.7818608E-02  0.9194046E-01
          1   -1    0    0  501    0  0.00000000000E+00  0.00000000000E+00  0.30065887076E+03  0.30065887076E+03  0.00000000000E+00 0. -1.
         -1   -1    0    0    0  501 -0.00000000000E+00 -0.00000000000E+00 -0.10272889151E+04  0.10272889151E+04  0.00000000000E+00 0.  1.
         23    2    1    2    0    0  0.43637037440E+03 -0.26482323831E+03 -0.61753100780E+03  0.80597743135E+03  0.87775982133E+02 0.  0.
         11    1    3    3    0    0  0.35084472539E+03 -0.22362945798E+03 -0.54925464594E+03  0.68904486203E+03  0.00000000000E+00 0. -1.
        -11    1    3    3    0    0  0.85525649013E+02 -0.41193780328E+02 -0.68276361862E+02  0.11693256931E+03  0.00000000000E+00 0.  1.
         22    1    1    2    0    0 -0.43637037440E+03  0.26482323831E+03 -0.10909903651E+03  0.52197035450E+03  0.00000000000E+00 0. -1.
<mgrwt>
<rscale>  0 0.11115098E+04</rscale>
<asrwt>0</asrwt>
<pdfrwt beam="1">  1        1 0.46255212E-01 0.11115098E+04</pdfrwt>
<pdfrwt beam="2">  1       -1 0.15804445E+00 0.11115098E+04</pdfrwt>
<totfact> 0.26328607E+01</totfact>
</mgrwt>
</event>
<event>
 6    1  0.1762360E-005  0.1088381E+04  0.7818608E-02  0.9216591E-01
          2   -1    0    0  501    0  0.00000000000E+00  0.00000000000E+00  0.27059296506E+03  0.27059296506E+03  0.00000000000E+00 0.  1.
         -2   -1    0    0    0  501 -0.00000000000E+00 -0.00000000000E+00 -0.10944230406E+04  0.10944230406E+04  0.00000000000E+00 0. -1.
         23    2    1    2    0    0  0.42743765683E+03 -0.13036352798E+02 -0.77579200573E+00  0.43749713760E+03  0.92359334032E+02 0.  0.
         11    1    3    3    0    0  0.13123907148E+03 -0.42417420990E+02  0.18814168303E+02  0.13920094977E+03  0.00000000000E+00 0.  1.
        -11    1    3    3    0    0  0.29619858535E+03  0.29381068192E+02 -0.19589960309E+02  0.29829618783E+03  0.00000000000E+00 0. -1.
         22    1    1    2    0    0 -0.42743765683E+03  0.13036352798E+02 -0.82305428352E+03  0.92751886805E+03  0.00000000000E+00 0. -1.
<mgrwt>
<rscale>  0 0.10883808E+04</rscale>
<asrwt>0</asrwt>
<pdfrwt beam="1">  1        2 0.41629687E-01 0.10883808E+04</pdfrwt>
<pdfrwt beam="2">  1       -2 0.16837277E+00 0.10883808E+04</pdfrwt>
<totfact> 0.26766081E+01</totfact>
</mgrwt>
</event>
<event>
 6    1  0.1762360E-005  0.1352627E+04  0.7818608E-02  0.8988842E-01
         -2   -1    0    0    0  501 -0.00000000000E+00  0.00000000000E+00  0.22013699049E+03  0.22013699049E+03  0.00000000000E+00 0.  1.
          2   -1    0    0  501    0  0.00000000000E+00 -0.00000000000E+00 -0.20777972858E+04  0.20777972858E+04  0.00000000000E+00 0. -1.
         23    2    1    2    0    0 -0.39481873100E+02  0.59564025716E+03 -0.40515435934E+03  0.72754590768E+03  0.93951363129E+02 0.  0.
         13    1    3    3    0    0  0.15440728254E+02  0.35991375599E+03 -0.27114652705E+03  0.45088442751E+03  0.00000000000E+00 0.  1.
        -13    1    3    3    0    0 -0.54922601353E+02  0.23572650118E+03 -0.13400783228E+03  0.27666148017E+03  0.00000000000E+00 0. -1.
         22    1    1    2    0    0  0.39481873100E+02 -0.59564025716E+03 -0.14525059360E+04  0.15703883686E+04  0.00000000000E+00 0. -1.
<mgrwt>
<rscale>  0 0.13526271E+04</rscale>
<asrwt>0</asrwt>
<pdfrwt beam="1">  1        2 0.31966111E+00 0.13526271E+04</pdfrwt>
<pdfrwt beam="2">  1       -2 0.33867231E-01 0.13526271E+04</pdfrwt>
<totfact> 0.48221936E+01</totfact>
</mgrwt>
</event>
<event>
 6    1  0.2699048E-005  0.2441256E+04  0.7818608E-02  0.8424218E-01
         -2   -1    0    0    0  501 -0.00000000000E+00  0.00000000000E+00  0.14512905829E+04  0.14512905829E+04  0.00000000000E+00 0.  1.
          2   -1    0    0  501    0  0.00000000000E+00 -0.00000000000E+00 -0.10266259362E+04  0.10266259362E+04  0.00000000000E+00 0. -1.
         23    2    1    2    0    0  0.95464513324E+03 -0.73526885911E+03  0.40011663096E+03  0.12726903036E+04  0.87633696947E+02 0.  0.
         11    1    3    3    0    0  0.32593019580E+03 -0.25962387721E+03  0.18200059362E+03  0.45470789110E+03  0.00000000000E+00 0. -1.
        -11    1    3    3    0    0  0.62871493744E+03 -0.47564498189E+03  0.21811603734E+03  0.81798241247E+03  0.00000000000E+00 0.  1.
         22    1    1    2    0    0 -0.95464513324E+03  0.73526885911E+03  0.24548015685E+02  0.12052262156E+04  0.00000000000E+00 0. -1.
<mgrwt>
<rscale>  0 0.24412559E+04</rscale>
<asrwt>0</asrwt>
<pdfrwt beam="1">  1        2 0.15794245E+00 0.24412559E+04</pdfrwt>
<pdfrwt beam="2">  1       -2 0.22327547E+00 0.24412559E+04</pdfrwt>
<totfact> 0.20450015E+00</totfact>
</mgrwt>
</event>
<event>
 6    1  0.1762360E-005  0.9889922E+03  0.7818608E-02  0.9320701E-01
         -2   -1    0    0    0  501 -0.00000000000E+00  0.00000000000E+00  0.15076534718E+03  0.15076534718E+03  0.00000000000E+00 0.  1.
          2   -1    0    0  501    0  0.00000000000E+00 -0.00000000000E+00 -0.16219004309E+04  0.16219004309E+04  0.00000000000E+00 0. -1.
         23    2    1    2    0    0 -0.47167880059E+03  0.28983750444E+02 -0.96588462945E+03  0.10808573001E+04  0.10953737699E+03 0.  0.
         13    1    3    3    0    0 -0.21085205225E+03 -0.37533955850E+02 -0.38273709986E+03  0.43858302907E+03  0.00000000000E+00 0.  1.
        -13    1    3    3    0    0 -0.26082674833E+03  0.66517706294E+02 -0.58314752959E+03  0.64227427098E+03  0.00000000000E+00 0. -1.
         22    1    1    2    0    0  0.47167880059E+03 -0.28983750444E+02 -0.50525045424E+03  0.69180847799E+03  0.00000000000E+00 0.  1.
<mgrwt>
<rscale>  0 0.98899218E+03</rscale>
<asrwt>0</asrwt>
<pdfrwt beam="1">  1        2 0.24952314E+00 0.98899218E+03</pdfrwt>
<pdfrwt beam="2">  1       -2 0.23194669E-01 0.98899218E+03</pdfrwt>
<totfact> 0.17787686E+02</totfact>
</mgrwt>
</event>
<event>
 6    1  0.1762360E-005  0.1128360E+04  0.7818608E-02  0.9177983E-01
          1   -1    0    0  501    0  0.00000000000E+00  0.00000000000E+00  0.29842248076E+04  0.29842248076E+04  0.00000000000E+00 0. -1.
         -1   -1    0    0    0  501 -0.00000000000E+00 -0.00000000000E+00 -0.10666060627E+03  0.10666060627E+03  0.00000000000E+00 0.  1.
         23    2    1    2    0    0 -0.42683833426E+03 -0.36329226467E+03  0.14612127695E+04  0.15676573903E+04  0.90745262261E+02 0.  0.
         11    1    3    3    0    0 -0.32901076177E+03 -0.28478414298E+03  0.10195273359E+04  0.11085062373E+04  0.00000000000E+00 0.  1.
        -11    1    3    3    0    0 -0.97827572486E+02 -0.78508121694E+02  0.44168543361E+03  0.45915115307E+03  0.00000000000E+00 0. -1.
         22    1    1    2    0    0  0.42683833426E+03  0.36329226467E+03  0.14163514318E+04  0.15232280235E+04  0.00000000000E+00 0.  1.
<mgrwt>
<rscale>  0 0.11283603E+04</rscale>
<asrwt>0</asrwt>
<pdfrwt beam="1">  1        1 0.45911145E+00 0.11283603E+04</pdfrwt>
<pdfrwt beam="2">  1       -1 0.16409326E-01 0.11283603E+04</pdfrwt>
<totfact> 0.17616970E+01</totfact>
</mgrwt>
</event>
<event>
 6    1  0.1839862E-005  0.2914951E+04  0.7818608E-02  0.8268443E-01
          1   -1    0    0  501    0  0.00000000000E+00  0.00000000000E+00  0.11732696459E+04  0.11732696459E+04  0.00000000000E+00 0. -1.
         -1   -1    0    0    0  501 -0.00000000000E+00 -0.00000000000E+00 -0.18105253125E+04  0.18105253125E+04  0.00000000000E+00 0.  1.
         23    2    1    2    0    0  0.45324428749E+03  0.37609481331E+03 -0.16820123170E+04  0.17844642488E+04  0.90936944069E+02 0.  0.
         11    1    3    3    0    0  0.29223299301E+03  0.20960584328E+03 -0.11294824450E+04  0.11853545146E+04  0.00000000000E+00 0.  1.
        -11    1    3    3    0    0  0.16101129448E+03  0.16648897004E+03 -0.55252987196E+03  0.59910973411E+03  0.00000000000E+00 0. -1.
         22    1    1    2    0    0 -0.45324428749E+03 -0.37609481331E+03  0.10447566504E+04  0.11993307097E+04  0.00000000000E+00 0. -1.
<mgrwt>
<rscale>  0 0.29149507E+04</rscale>
<asrwt>0</asrwt>
<pdfrwt beam="1">  1        1 0.18050302E+00 0.29149507E+04</pdfrwt>
<pdfrwt beam="2">  1       -1 0.27854235E+00 0.29149507E+04</pdfrwt>
<totfact> 0.43590735E-01</totfact>
</mgrwt>
</event>
<event>
 6    1  0.1762360E-005  0.7777585E+04  0.7818608E-02  0.7502159E-01
         -2   -1    0    0    0  501 -0.00000000000E+00  0.00000000000E+00  0.37942935946E+04  0.37942935946E+04  0.00000000000E+00 0.  1.
          2   -1    0    0  501    0  0.00000000000E+00 -0.00000000000E+00 -0.39856454258E+04  0.39856454258E+04  0.00000000000E+00 0. -1.
         23    2    1    2    0    0  0.89640107816E+03  0.21445442293E+04 -0.32137998716E+04  0.39670927081E+04  0.81915173579E+02 0.  0.
         11    1    3    3    0    0  0.77341814092E+03  0.17742909342E+04 -0.26894606015E+04  0.33135301820E+04  0.00000000000E+00 0. -1.
        -11    1    3    3    0    0  0.12298293724E+03  0.37025329510E+03 -0.52433927014E+03  0.65356252616E+03  0.00000000000E+00 0.  1.
         22    1    1    2    0    0 -0.89640107816E+03 -0.21445442293E+04  0.30224480404E+04  0.38128463123E+04  0.00000000000E+00 0.  1.
<mgrwt>
<rscale>  0 0.77775855E+04</rscale>
<asrwt>0</asrwt>
<pdfrwt beam="1">  1        2 0.61317622E+00 0.77775855E+04</pdfrwt>
<pdfrwt beam="2">  1       -2 0.58373748E+00 0.77775855E+04</pdfrwt>
<totfact> 0.12584274E-04</totfact>
</mgrwt>
</event>
<event>
 6    1  0.1762360E-005  0.8969223E+03  0.7818608E-02  0.9429437E-01
         -2   -1    0    0    0  501 -0.00000000000E+00  0.00000000000E+00  0.11130558496E+03  0.11130558496E+03  0.00000000000E+00 0.  1.
          2   -1    0    0  501    0  0.00000000000E+00 -0.00000000000E+00 -0.18068939441E+04  0.18068939441E+04  0.00000000000E+00 0. -1.
         23    2    1    2    0    0 -0.21153017462E+03 -0.33753713307E+03 -0.43759654282E+03  0.59864667262E+03  0.90613317914E+02 0.  0.
         13    1    3    3    0    0 -0.19953059045E+03 -0.26646160109E+03 -0.32696754194E+03  0.46660691687E+03  0.00000000000E+00 0. -1.
        -13    1    3    3    0    0 -0.11999584162E+02 -0.71075531978E+02 -0.11062900087E+03  0.13203975575E+03  0.00000000000E+00 0.  1.
         22    1    1    2    0    0  0.21153017462E+03  0.33753713307E+03 -0.12579918163E+04  0.13195528564E+04  0.00000000000E+00 0. -1.
<mgrwt>
<rscale>  0 0.89692227E+03</rscale>
<asrwt>0</asrwt>
<pdfrwt beam="1">  1        2 0.27798368E+00 0.89692227E+03</pdfrwt>
<pdfrwt beam="2">  1       -2 0.17123937E-01 0.89692227E+03</pdfrwt>
<totfact> 0.24108473E+02</totfact>
</mgrwt>
</event>
<event>
 6    1  0.1762360E-005  0.2109489E+04  0.7818608E-02  0.8557075E-01
          1   -1    0    0  501    0  0.00000000000E+00  0.00000000000E+00  0.15597867931E+04  0.15597867931E+04  0.00000000000E+00 0. -1.
         -1   -1    0    0    0  501 -0.00000000000E+00 -0.00000000000E+00 -0.71322951457E+03  0.71322951457E+03  0.00000000000E+00 0.  1.
         23    2    1    2    0    0  0.49117664291E+03  0.83137456001E+03 -0.27813169077E+02  0.97034143143E+03  0.91382534512E+02 0.  0.
         13    1    3    3    0    0  0.35798195832E+03  0.53124163329E+03 -0.39042970046E+02  0.64178899097E+03  0.00000000000E+00 0. -1.
        -13    1    3    3    0    0  0.13319468459E+03  0.30013292672E+03  0.11229800969E+02  0.32855244046E+03  0.00000000000E+00 0.  1.
         22    1    1    2    0    0 -0.49117664291E+03 -0.83137456001E+03  0.87437044765E+03  0.13026748763E+04  0.00000000000E+00 0. -1.
<mgrwt>
<rscale>  0 0.21094890E+04</rscale>
<asrwt>0</asrwt>
<pdfrwt beam="1">  1        1 0.23996720E+00 0.21094890E+04</pdfrwt>
<pdfrwt beam="2">  1       -1 0.10972762E+00 0.21094890E+04</pdfrwt>
<totfact> 0.41953182E+00</totfact>
</mgrwt>
</event>
<event>
 6    1  0.1762360E-005  0.4094165E+04  0.7818608E-02  0.7985815E-01
          1   -1    0    0  501    0  0.00000000000E+00  0.00000000000E+00  0.27234631864E+04  0.27234631864E+04  0.00000000000E+00 0. -1.
         -1   -1    0    0    0  501 -0.00000000000E+00 -0.00000000000E+00 -0.15386834321E+04  0.15386834321E+04  0.00000000000E+00 0.  1.
         23    2    1    2    0    0 -0.33845342871E+03 -0.73370653775E+03 -0.13640778153E+04  0.15882822020E+04  0.95163333651E+02 0.  0.
         13    1    3    3    0    0 -0.89667392331E+02 -0.16267154172E+03 -0.39172900567E+03  0.43353648706E+03  0.00000000000E+00 0. -1.
        -13    1    3    3    0    0 -0.24878603638E+03 -0.57103499603E+03 -0.97234880966E+03  0.11547457150E+04  0.00000000000E+00 0.  1.
         22    1    1    2    0    0  0.33845342871E+03  0.73370653775E+03  0.25488575697E+04  0.26738644164E+04  0.00000000000E+00 0. -1.
<mgrwt>
<rscale>  0 0.40941654E+04</rscale>
<asrwt>0</asrwt>
<pdfrwt beam="1">  1        1 0.41899434E+00 0.40941654E+04</pdfrwt>
<pdfrwt beam="2">  1       -1 0.23672053E+00 0.40941654E+04</pdfrwt>
<totfact> 0.62502729E-02</totfact>
</mgrwt>
</event>
<event>
 6    1  0.1762360E-005  0.2791069E+04  0.7818608E-02  0.8306046E-01
         -1   -1    0    0    0  501 -0.00000000000E+00  0.00000000000E+00  0.10616146662E+04  0.10616146662E+04  0.00000000000E+00 0.  1.
          1   -1    0    0  501    0  0.00000000000E+00 -0.00000000000E+00 -0.18344859423E+04  0.18344859423E+04  0.00000000000E+00 0. -1.
         23    2    1    2    0    0  0.22720862899E+03 -0.13749236900E+04 -0.42466385904E+03  0.14596858635E+04  0.91129098094E+02 0.  0.
         13    1    3    3    0    0  0.23439493841E+03 -0.12779292724E+04 -0.39785974737E+03  0.13587996876E+04  0.00000000000E+00 0. -1.
        -13    1    3    3    0    0 -0.71863094118E+01 -0.96994417581E+02 -0.26804111672E+02  0.10088617590E+03  0.00000000000E+00 0.  1.
         22    1    1    2    0    0 -0.22720862899E+03  0.13749236900E+04 -0.34820741709E+03  0.14364147450E+04  0.00000000000E+00 0.  1.
<mgrwt>
<rscale>  0 0.27910695E+04</rscale>
<asrwt>0</asrwt>
<pdfrwt beam="1">  1        1 0.28222860E+00 0.27910695E+04</pdfrwt>
<pdfrwt beam="2">  1       -1 0.16332533E+00 0.27910695E+04</pdfrwt>
<totfact> 0.92244114E-01</totfact>
</mgrwt>
</event>
<event>
 6    1  0.1762360E-005  0.2389570E+04  0.7818608E-02  0.8443419E-01
         -2   -1    0    0    0  501 -0.00000000000E+00  0.00000000000E+00  0.76493183899E+03  0.76493183899E+03  0.00000000000E+00 0.  1.
          2   -1    0    0  501    0  0.00000000000E+00 -0.00000000000E+00 -0.18661943357E+04  0.18661943357E+04  0.00000000000E+00 0. -1.
         23    2    1    2    0    0  0.41158725218E+03  0.54354549897E+02  0.68004045498E+03  0.80208306723E+03  0.92324119645E+02 0.  0.
         13    1    3    3    0    0  0.17887104142E+03  0.53578607256E+02  0.23778974932E+03  0.30234000975E+03  0.00000000000E+00 0.  1.
        -13    1    3    3    0    0  0.23271621076E+03  0.77594264032E+00  0.44225070566E+03  0.49974305747E+03  0.00000000000E+00 0. -1.
         22    1    1    2    0    0 -0.41158725218E+03 -0.54354549897E+02 -0.17813029517E+04  0.18290431074E+04  0.00000000000E+00 0. -1.
<mgrwt>
<rscale>  0 0.23895702E+04</rscale>
<asrwt>0</asrwt>
<pdfrwt beam="1">  1        2 0.28710682E+00 0.23895702E+04</pdfrwt>
<pdfrwt beam="2">  1       -2 0.11768182E+00 0.23895702E+04</pdfrwt>
<totfact> 0.39768589E+00</totfact>
</mgrwt>
</event>
<event>
 6    1  0.1762360E-005  0.1747104E+04  0.7818608E-02  0.8734946E-01
         -2   -1    0    0    0  501 -0.00000000000E+00  0.00000000000E+00  0.16059189504E+03  0.16059189504E+03  0.00000000000E+00 0.  1.
          2   -1    0    0  501    0  0.00000000000E+00 -0.00000000000E+00 -0.47517526181E+04  0.47517526181E+04  0.00000000000E+00 0. -1.
         23    2    1    2    0    0 -0.52826474252E+03 -0.45015361018E+03 -0.37826903705E+04  0.38468276330E+04  0.87375556697E+02 0.  0.
         13    1    3    3    0    0 -0.15964750584E+03 -0.17956563657E+03 -0.14438507241E+04  0.14637062743E+04  0.00000000000E+00 0.  1.
        -13    1    3    3    0    0 -0.36861723668E+03 -0.27058797361E+03 -0.23388396464E+04  0.23831213586E+04  0.00000000000E+00 0. -1.
         22    1    1    2    0    0  0.52826474252E+03  0.45015361018E+03 -0.80847035262E+03  0.10655168802E+04  0.00000000000E+00 0. -1.
<mgrwt>
<rscale>  0 0.17471038E+04</rscale>
<asrwt>0</asrwt>
<pdfrwt beam="1">  1        2 0.73103886E+00 0.17471038E+04</pdfrwt>
<pdfrwt beam="2">  1       -2 0.24706446E-01 0.17471038E+04</pdfrwt>
<totfact> 0.96507180E-01</totfact>
</mgrwt>
</event>
<event>
 6    1  0.1762360E-005  0.4541832E+03  0.7818608E-02  0.1026482E+00
          2   -1    0    0  501    0  0.00000000000E+00  0.00000000000E+00  0.27706774143E+03  0.27706774143E+03  0.00000000000E+00 0.  1.
         -2   -1    0    0    0  501 -0.00000000000E+00 -0.00000000000E+00 -0.18612991687E+03  0.18612991687E+03  0.00000000000E+00 0. -1.
         23    2    1    2    0    0 -0.93773037892E+02 -0.17769742590E+03 -0.35084359697E+02  0.22602399043E+03  0.97396992496E+02 0.  0.
         13    1    3    3    0    0 -0.10696123293E+03 -0.12200268151E+03 -0.73342718276E+01  0.16241659764E+03  0.00000000000E+00 0.  1.
        -13    1    3    3    0    0  0.13188195036E+02 -0.55694744388E+02 -0.27750087869E+02  0.63607392790E+02  0.00000000000E+00 0. -1.
         22    1    1    2    0    0  0.93773037892E+02  0.17769742590E+03  0.12602218425E+03  0.23717366787E+03  0.00000000000E+00 0.  1.
<mgrwt>
<rscale>  0 0.45418320E+03</rscale>
<asrwt>0</asrwt>
<pdfrwt beam="1">  1        2 0.42625806E-01 0.45418320E+03</pdfrwt>
<pdfrwt beam="2">  1       -2 0.28635372E-01 0.45418320E+03</pdfrwt>
<totfact> 0.13368247E+03</totfact>
</mgrwt>
</event>
<event>
 6    1  0.1762360E-005  0.2095720E+04  0.7818608E-02  0.8563131E-01
         -2   -1    0    0    0  501 -0.00000000000E+00  0.00000000000E+00  0.42797737220E+03  0.42797737220E+03  0.00000000000E+00 0.  1.
          2   -1    0    0  501    0  0.00000000000E+00 -0.00000000000E+00 -0.25655803215E+04  0.25655803215E+04  0.00000000000E+00 0. -1.
         23    2    1    2    0    0 -0.94010016518E+03  0.27292760308E+03 -0.15969357349E+04  0.18752559303E+04  0.90018141798E+02 0.  0.
         11    1    3    3    0    0 -0.27236304378E+03  0.68112640775E+02 -0.53561319055E+03  0.60473337045E+03  0.00000000000E+00 0.  1.
        -11    1    3    3    0    0 -0.66773712141E+03  0.20481496231E+03 -0.10613225443E+04  0.12705225599E+04  0.00000000000E+00 0. -1.
         22    1    1    2    0    0  0.94010016518E+03 -0.27292760308E+03 -0.54066721437E+03  0.11183017633E+04  0.00000000000E+00 0.  1.
<mgrwt>
<rscale>  0 0.20957198E+04</rscale>
<asrwt>0</asrwt>
<pdfrwt beam="1">  1        2 0.39470467E+00 0.20957198E+04</pdfrwt>
<pdfrwt beam="2">  1       -2 0.65842672E-01 0.20957198E+04</pdfrwt>
<totfact> 0.62431871E+00</totfact>
</mgrwt>
</event>
<event>
 6    1  0.1762360E-005  0.2215445E+04  0.7818608E-02  0.8512027E-01
          1   -1    0    0  501    0  0.00000000000E+00  0.00000000000E+00  0.71623115895E+03  0.71623115895E+03  0.00000000000E+00 0. -1.
         -1   -1    0    0    0  501 -0.00000000000E+00 -0.00000000000E+00 -0.17132023979E+04  0.17132023979E+04  0.00000000000E+00 0.  1.
         23    2    1    2    0    0 -0.10656635021E+04  0.52102557259E+02 -0.17977619124E+03  0.10854986172E+04  0.87375012071E+02 0.  0.
         11    1    3    3    0    0 -0.27860532699E+03  0.36752870936E+02 -0.16270064791E+02  0.28148963881E+03  0.00000000000E+00 0. -1.
        -11    1    3    3    0    0 -0.78705817511E+03  0.15349686323E+02 -0.16350612644E+03  0.80400897834E+03  0.00000000000E+00 0.  1.
         22    1    1    2    0    0  0.10656635021E+04 -0.52102557259E+02 -0.81719504776E+03  0.13439349397E+04  0.00000000000E+00 0. -1.
<mgrwt>
<rscale>  0 0.22154448E+04</rscale>
<asrwt>0</asrwt>
<pdfrwt beam="1">  1        1 0.11018941E+00 0.22154448E+04</pdfrwt>
<pdfrwt beam="2">  1       -1 0.26356960E+00 0.22154448E+04</pdfrwt>
<totfact> 0.13623861E+00</totfact>
</mgrwt>
</event>
<event>
 6    1  0.1762360E-005  0.2302903E+03  0.7818608E-02  0.1126436E+00
         -4   -1    0    0    0  501 -0.00000000000E+00  0.00000000000E+00  0.39902572045E+03  0.39902572045E+03  0.00000000000E+00 0.  1.
          4   -1    0    0  501    0  0.00000000000E+00 -0.00000000000E+00 -0.33226944887E+02  0.33226944887E+02  0.00000000000E+00 0. -1.
         23    2    1    2    0    0 -0.62791691713E+02 -0.53562787806E+02  0.93333858770E+02  0.14756178092E+03  0.79066435423E+02 0.  0.
         13    1    3    3    0    0 -0.18586473248E+02 -0.47291694836E+02  0.82548189859E+01  0.51479155245E+02  0.00000000000E+00 0. -1.
        -13    1    3    3    0    0 -0.44205218465E+02 -0.62710929700E+01  0.85079039784E+02  0.96082625678E+02  0.00000000000E+00 0.  1.
         22    1    1    2    0    0  0.62791691713E+02  0.53562787806E+02  0.27246491680E+03  0.28469088442E+03  0.00000000000E+00 0.  1.
<mgrwt>
<rscale>  0 0.23029030E+03</rscale>
<asrwt>0</asrwt>
<pdfrwt beam="1">  1        4 0.51118379E-02 0.23029030E+03</pdfrwt>
<pdfrwt beam="2">  1       -4 0.61388569E-01 0.23029030E+03</pdfrwt>
<totfact> 0.10643656E+03</totfact>
</mgrwt>
</event>
<event>
 6    1  0.1762360E-005  0.3258633E+04  0.7818608E-02  0.8173502E-01
          2   -1    0    0  501    0  0.00000000000E+00  0.00000000000E+00  0.22243573883E+04  0.22243573883E+04  0.00000000000E+00 0. -1.
         -2   -1    0    0    0  501 -0.00000000000E+00 -0.00000000000E+00 -0.11934558028E+04  0.11934558028E+04  0.00000000000E+00 0.  1.
         23    2    1    2    0    0  0.14915595438E+04 -0.14370620496E+03 -0.15181679239E+03  0.15088280922E+04  0.90069568755E+02 0.  0.
         13    1    3    3    0    0  0.29854461300E+03 -0.63189299562E+02 -0.19085267472E+02  0.30575483801E+03  0.00000000000E+00 0.  1.
        -13    1    3    3    0    0  0.11930149308E+04 -0.80516905396E+02 -0.13273152492E+03  0.12030732542E+04  0.00000000000E+00 0. -1.
         22    1    1    2    0    0 -0.14915595438E+04  0.14370620496E+03  0.11827183779E+04  0.19089850989E+04  0.00000000000E+00 0. -1.
<mgrwt>
<rscale>  0 0.32586330E+04</rscale>
<asrwt>0</asrwt>
<pdfrwt beam="1">  1        2 0.34220883E+00 0.32586330E+04</pdfrwt>
<pdfrwt beam="2">  1       -2 0.18360858E+00 0.32586330E+04</pdfrwt>
<totfact> 0.71803692E-01</totfact>
</mgrwt>
</event>
<event>
 6    1  0.1762360E-005  0.3285981E+04  0.7818608E-02  0.8166472E-01
          1   -1    0    0  501    0  0.00000000000E+00  0.00000000000E+00  0.19216075647E+04  0.19216075647E+04  0.00000000000E+00 0. -1.
         -1   -1    0    0    0  501 -0.00000000000E+00 -0.00000000000E+00 -0.14047709933E+04  0.14047709933E+04  0.00000000000E+00 0.  1.
         23    2    1    2    0    0  0.15279997161E+04 -0.15636183029E+03 -0.32806604618E+03  0.15733547168E+04  0.92658402999E+02 0.  0.
         13    1    3    3    0    0  0.13744512760E+04 -0.16430739778E+03 -0.28009565787E+03  0.14122913328E+04  0.00000000000E+00 0.  1.
        -13    1    3    3    0    0  0.15354844012E+03  0.79455674891E+01 -0.47970388306E+02  0.16106338398E+03  0.00000000000E+00 0. -1.
         22    1    1    2    0    0 -0.15279997161E+04  0.15636183029E+03  0.84490261755E+03  0.17530238412E+04  0.00000000000E+00 0. -1.
<mgrwt>
<rscale>  0 0.32859815E+04</rscale>
<asrwt>0</asrwt>
<pdfrwt beam="1">  1        1 0.29563193E+00 0.32859815E+04</pdfrwt>
<pdfrwt beam="2">  1       -1 0.21611861E+00 0.32859815E+04</pdfrwt>
<totfact> 0.32698566E-01</totfact>
</mgrwt>
</event>
<event>
 6    1  0.1762360E-005  0.2270884E+04  0.7818608E-02  0.8489490E-01
         -1   -1    0    0    0  501 -0.00000000000E+00  0.00000000000E+00  0.34192566184E+03  0.34192566184E+03  0.00000000000E+00 0.  1.
          1   -1    0    0  501    0  0.00000000000E+00 -0.00000000000E+00 -0.37704937559E+04  0.37704937559E+04  0.00000000000E+00 0. -1.
         23    2    1    2    0    0 -0.34108780079E+03 -0.52884992104E+02 -0.36724722125E+04  0.36897766262E+04  0.90893836438E+02 0.  0.
         11    1    3    3    0    0 -0.30172482850E+02 -0.26331303753E+01 -0.70230609915E+03  0.70295886722E+03  0.00000000000E+00 0. -1.
        -11    1    3    3    0    0 -0.31091531794E+03 -0.50251861728E+02 -0.29701661133E+04  0.29868177590E+04  0.00000000000E+00 0.  1.
         22    1    1    2    0    0  0.34108780079E+03  0.52884992104E+02  0.24390411844E+03  0.42264279153E+03  0.00000000000E+00 0.  1.
<mgrwt>
<rscale>  0 0.22708840E+04</rscale>
<asrwt>0</asrwt>
<pdfrwt beam="1">  1        1 0.58007599E+00 0.22708840E+04</pdfrwt>
<pdfrwt beam="2">  1       -1 0.52603945E-01 0.22708840E+04</pdfrwt>
<totfact> 0.49956471E-01</totfact>
</mgrwt>
</event>
<event>
 6    1  0.1762360E-005  0.2016894E+04  0.7818608E-02  0.8598762E-01
          1   -1    0    0  501    0  0.00000000000E+00  0.00000000000E+00  0.10177317790E+04  0.10177317790E+04  0.00000000000E+00 0. -1.
         -1   -1    0    0    0  501 -0.00000000000E+00 -0.00000000000E+00 -0.99924738396E+03  0.99924738396E+03  0.00000000000E+00 0.  1.
         23    2    1    2    0    0 -0.23113341789E+03  0.29079463047E+03  0.94462033378E+03  0.10191254907E+04  0.91241530352E+02 0.  0.
         11    1    3    3    0    0 -0.66673718703E+02  0.52933219619E+02  0.31447686680E+03  0.32579596415E+03  0.00000000000E+00 0.  1.
        -11    1    3    3    0    0 -0.16445969919E+03  0.23786141085E+03  0.63014346698E+03  0.69332952657E+03  0.00000000000E+00 0. -1.
         22    1    1    2    0    0  0.23113341789E+03 -0.29079463047E+03 -0.92613593879E+03  0.99785367219E+03  0.00000000000E+00 0.  1.
<mgrwt>
<rscale>  0 0.20168945E+04</rscale>
<asrwt>0</asrwt>
<pdfrwt beam="1">  1        1 0.15657412E+00 0.20168945E+04</pdfrwt>
<pdfrwt beam="2">  1       -1 0.15373037E+00 0.20168945E+04</pdfrwt>
<totfact> 0.44315448E+00</totfact>
</mgrwt>
</event>
<event>
 6    1  0.1762360E-005  0.1330476E+04  0.7818608E-02  0.9005740E-01
         -2   -1    0    0    0  501 -0.00000000000E+00  0.00000000000E+00  0.26559816305E+03  0.26559816305E+03  0.00000000000E+00 0.  1.
          2   -1    0    0  501    0  0.00000000000E+00 -0.00000000000E+00 -0.16662084983E+04  0.16662084983E+04  0.00000000000E+00 0. -1.
         23    2    1    2    0    0 -0.22350547835E+03 -0.46100848884E+03 -0.13122785464E+04  0.14119162589E+04  0.94599223675E+02 0.  0.
         11    1    3    3    0    0 -0.12296750632E+03 -0.34882875817E+03 -0.90437008707E+03  0.97708124765E+03  0.00000000000E+00 0.  1.
        -11    1    3    3    0    0 -0.10053797203E+03 -0.11217973067E+03 -0.40790845936E+03  0.43483501126E+03  0.00000000000E+00 0. -1.
         22    1    1    2    0    0  0.22350547835E+03  0.46100848884E+03 -0.88331788818E+02  0.51989040244E+03  0.00000000000E+00 0.  1.
<mgrwt>
<rscale>  0 0.13304765E+04</rscale>
<asrwt>0</asrwt>
<pdfrwt beam="1">  1        2 0.25633977E+00 0.13304765E+04</pdfrwt>
<pdfrwt beam="2">  1       -2 0.40861256E-01 0.13304765E+04</pdfrwt>
<totfact> 0.56805251E+01</totfact>
</mgrwt>
</event>
<event>
 6    1  0.1762360E-005  0.1034298E+04  0.7818608E-02  0.9271707E-01
          2   -1    0    0  501    0  0.00000000000E+00  0.00000000000E+00  0.27736350890E+04  0.27736350890E+04  0.00000000000E+00 0. -1.
         -2   -1    0    0    0  501 -0.00000000000E+00 -0.00000000000E+00 -0.96423379596E+02  0.96423379596E+02  0.00000000000E+00 0.  1.
         23    2    1    2    0    0  0.41067074866E+03  0.30427149116E+03  0.12126498364E+04  0.13188740553E+04  0.87621595135E+02 0.  0.
         13    1    3    3    0    0  0.35158458245E+03  0.29459131139E+03  0.10716341789E+04  0.11656738706E+04  0.00000000000E+00 0.  1.
        -13    1    3    3    0    0  0.59086166205E+02  0.96801797650E+01  0.14101565750E+03  0.15320018465E+03  0.00000000000E+00 0. -1.
         22    1    1    2    0    0 -0.41067074866E+03 -0.30427149116E+03  0.14645618730E+04  0.15511844133E+04  0.00000000000E+00 0. -1.
<mgrwt>
<rscale>  0 0.10342983E+04</rscale>
<asrwt>0</asrwt>
<pdfrwt beam="1">  1        2 0.42671303E+00 0.10342983E+04</pdfrwt>
<pdfrwt beam="2">  1       -2 0.14834368E-01 0.10342983E+04</pdfrwt>
<totfact> 0.86984139E+01</totfact>
</mgrwt>
</event>
<event>
 6    1  0.1762360E-005  0.1754607E+04  0.7818608E-02  0.8730818E-01
          2   -1    0    0  501    0  0.00000000000E+00  0.00000000000E+00  0.21628525959E+04  0.21628525959E+04  0.00000000000E+00 0. -1.
         -2   -1    0    0    0  501 -0.00000000000E+00 -0.00000000000E+00 -0.35585483894E+03  0.35585483894E+03  0.00000000000E+00 0.  1.
         23    2    1    2    0    0  0.34562062759E+03 -0.80327649589E+03  0.94717240251E+03  0.12923280534E+04  0.90936738568E+02 0.  0.
         11    1    3    3    0    0  0.23559710377E+03 -0.62997071568E+03  0.75497754250E+03  0.10111182857E+04  0.00000000000E+00 0. -1.
        -11    1    3    3    0    0  0.11002352382E+03 -0.17330578022E+03  0.19219486001E+03  0.28120976773E+03  0.00000000000E+00 0.  1.
         22    1    1    2    0    0 -0.34562062759E+03  0.80327649589E+03  0.85982535444E+03  0.12263793814E+04  0.00000000000E+00 0. -1.
<mgrwt>
<rscale>  0 0.17546071E+04</rscale>
<asrwt>0</asrwt>
<pdfrwt beam="1">  1        2 0.33274655E+00 0.17546071E+04</pdfrwt>
<pdfrwt beam="2">  1       -2 0.54746900E-01 0.17546071E+04</pdfrwt>
<totfact> 0.16119172E+01</totfact>
</mgrwt>
</event>
<event>
 6    1  0.1762360E-005  0.2025259E+04  0.7818608E-02  0.8594902E-01
         -2   -1    0    0    0  501 -0.00000000000E+00  0.00000000000E+00  0.13518457483E+04  0.13518457483E+04  0.00000000000E+00 0. -1.
          2   -1    0    0  501    0  0.00000000000E+00 -0.00000000000E+00 -0.75853185196E+03  0.75853185196E+03  0.00000000000E+00 0.  1.
         23    2    1    2    0    0  0.17812055599E+03  0.12466904477E+03  0.13256400040E+04  0.13464595215E+04  0.91446812967E+02 0.  0.
         11    1    3    3    0    0 -0.10293626384E+02  0.66356881699E+01  0.10755043857E+03  0.10824549847E+03  0.00000000000E+00 0. -1.
        -11    1    3    3    0    0  0.18841418238E+03  0.11803335660E+03  0.12180895654E+04  0.12382140230E+04  0.00000000000E+00 0.  1.
         22    1    1    2    0    0 -0.17812055599E+03 -0.12466904477E+03 -0.73232610764E+03  0.76391807880E+03  0.00000000000E+00 0.  1.
<mgrwt>
<rscale>  0 0.20252586E+04</rscale>
<asrwt>0</asrwt>
<pdfrwt beam="1">  1        2 0.11669721E+00 0.20252586E+04</pdfrwt>
<pdfrwt beam="2">  1       -2 0.20797627E+00 0.20252586E+04</pdfrwt>
<totfact> 0.40405782E+00</totfact>
</mgrwt>
</event>
<event>
 6    1  0.1762360E-005  0.3319157E+04  0.7818608E-02  0.8158038E-01
         -2   -1    0    0    0  501 -0.00000000000E+00  0.00000000000E+00  0.57617710694E+03  0.57617710694E+03  0.00000000000E+00 0.  1.
          2   -1    0    0  501    0  0.00000000000E+00 -0.00000000000E+00 -0.47801284365E+04  0.47801284365E+04  0.00000000000E+00 0. -1.
         23    2    1    2    0    0 -0.81225980694E+03  0.38322326692E+03 -0.43532112324E+04  0.44458635712E+04  0.92891298304E+02 0.  0.
         11    1    3    3    0    0 -0.25501197549E+03  0.12713780501E+03 -0.16000982805E+04  0.16252721730E+04  0.00000000000E+00 0. -1.
        -11    1    3    3    0    0 -0.55724783145E+03  0.25608546191E+03 -0.27531129519E+04  0.28205913982E+04  0.00000000000E+00 0.  1.
         22    1    1    2    0    0  0.81225980694E+03 -0.38322326692E+03  0.14925990283E+03  0.91044197227E+03  0.00000000000E+00 0.  1.
<mgrwt>
<rscale>  0 0.33191569E+04</rscale>
<asrwt>0</asrwt>
<pdfrwt beam="1">  1        2 0.73540436E+00 0.33191569E+04</pdfrwt>
<pdfrwt beam="2">  1       -2 0.88642634E-01 0.33191569E+04</pdfrwt>
<totfact> 0.56939900E-02</totfact>
</mgrwt>
</event>
<event>
 6    1  0.1762360E-005  0.4919081E+04  0.7818608E-02  0.7841112E-01
          2   -1    0    0  501    0  0.00000000000E+00  0.00000000000E+00  0.31290665808E+04  0.31290665808E+04  0.00000000000E+00 0. -1.
         -2   -1    0    0    0  501 -0.00000000000E+00 -0.00000000000E+00 -0.19332731119E+04  0.19332731119E+04  0.00000000000E+00 0.  1.
         23    2    1    2    0    0 -0.19614553331E+04 -0.29813539903E+03  0.20925974413E+04  0.28850824492E+04  0.92438885222E+02 0.  0.
         11    1    3    3    0    0 -0.15270134408E+04 -0.19339076805E+03  0.16146040015E+04  0.22307209864E+04  0.00000000000E+00 0. -1.
        -11    1    3    3    0    0 -0.43444189227E+03 -0.10474463098E+03  0.47799343978E+03  0.65436146277E+03  0.00000000000E+00 0.  1.
         22    1    1    2    0    0  0.19614553331E+04  0.29813539903E+03 -0.89680397240E+03  0.21772572436E+04  0.00000000000E+00 0.  1.
<mgrwt>
<rscale>  0 0.49190813E+04</rscale>
<asrwt>0</asrwt>
<pdfrwt beam="1">  1        2 0.48139486E+00 0.49190813E+04</pdfrwt>
<pdfrwt beam="2">  1       -2 0.29742663E+00 0.49190813E+04</pdfrwt>
<totfact> 0.34784980E-02</totfact>
</mgrwt>
</event>
<event>
 6    1  0.1762360E-005  0.1575850E+04  0.7818608E-02  0.8835523E-01
         -2   -1    0    0    0  501 -0.00000000000E+00  0.00000000000E+00  0.40337545560E+03  0.40337545560E+03  0.00000000000E+00 0.  1.
          2   -1    0    0  501    0  0.00000000000E+00 -0.00000000000E+00 -0.15390763063E+04  0.15390763063E+04  0.00000000000E+00 0. -1.
         23    2    1    2    0    0 -0.50876330741E+03 -0.51906033774E+03 -0.20347759026E+03  0.76037564570E+03  0.92218521236E+02 0.  0.
         13    1    3    3    0    0 -0.42449188438E+03 -0.44581382775E+03 -0.13773658091E+03  0.63080479915E+03  0.00000000000E+00 0.  1.
        -13    1    3    3    0    0 -0.84271423033E+02 -0.73246509989E+02 -0.65741009341E+02  0.12957084655E+03  0.00000000000E+00 0. -1.
         22    1    1    2    0    0  0.50876330741E+03  0.51906033774E+03 -0.93222326047E+03  0.11820761162E+04  0.00000000000E+00 0. -1.
<mgrwt>
<rscale>  0 0.15758497E+04</rscale>
<asrwt>0</asrwt>
<pdfrwt beam="1">  1        2 0.23678097E+00 0.15758497E+04</pdfrwt>
<pdfrwt beam="2">  1       -2 0.62057763E-01 0.15758497E+04</pdfrwt>
<totfact> 0.27942250E+01</totfact>
</mgrwt>
</event>
<event>
 6    1  0.1762360E-005  0.1194017E+04  0.7818608E-02  0.9118110E-01
         -2   -1    0    0    0  501 -0.00000000000E+00  0.00000000000E+00  0.18180162120E+03  0.18180162120E+03  0.00000000000E+00 0.  1.
          2   -1    0    0  501    0  0.00000000000E+00 -0.00000000000E+00 -0.19604824640E+04  0.19604824640E+04  0.00000000000E+00 0. -1.
         23    2    1    2    0    0 -0.74573271769E+02  0.58270977104E+03 -0.74272126694E+03  0.95134995901E+03  0.91214110892E+02 0.  0.
         11    1    3    3    0    0 -0.40611497941E+02  0.32346008195E+03 -0.48373640642E+03  0.58333234890E+03  0.00000000000E+00 0. -1.
        -11    1    3    3    0    0 -0.33961773828E+02  0.25924968909E+03 -0.25898486052E+03  0.36801761011E+03  0.00000000000E+00 0.  1.
         22    1    1    2    0    0  0.74573271769E+02 -0.58270977104E+03 -0.10359595759E+04  0.11909341262E+04  0.00000000000E+00 0.  1.
<mgrwt>
<rscale>  0 0.11940166E+04</rscale>
<asrwt>0</asrwt>
<pdfrwt beam="1">  1        2 0.30161269E+00 0.11940166E+04</pdfrwt>
<pdfrwt beam="2">  1       -2 0.27969479E-01 0.11940166E+04</pdfrwt>
<totfact> 0.81126790E+01</totfact>
</mgrwt>
</event>
<event>
 6    1  0.1762360E-005  0.3044491E+04  0.7818608E-02  0.8231139E-01
         -1   -1    0    0    0  501 -0.00000000000E+00  0.00000000000E+00  0.15080587118E+04  0.15080587118E+04  0.00000000000E+00 0.  1.
          1   -1    0    0  501    0  0.00000000000E+00 -0.00000000000E+00 -0.15365656235E+04  0.15365656235E+04  0.00000000000E+00 0. -1.
         23    2    1    2    0    0  0.12798115445E+04  0.67621782838E+03  0.45253865896E+03  0.15193069971E+04  0.91183182323E+02 0.  0.
         13    1    3    3    0    0  0.90029859532E+03  0.50075146492E+03  0.35817099257E+03  0.10906768771E+04  0.00000000000E+00 0. -1.
        -13    1    3    3    0    0  0.37951294920E+03  0.17546636347E+03  0.94367666395E+02  0.42863012001E+03  0.00000000000E+00 0.  1.
         22    1    1    2    0    0 -0.12798115445E+04 -0.67621782838E+03 -0.48104557071E+03  0.15253173381E+04  0.00000000000E+00 0.  1.
<mgrwt>
<rscale>  0 0.30444909E+04</rscale>
<asrwt>0</asrwt>
<pdfrwt beam="1">  1        1 0.23639471E+00 0.30444909E+04</pdfrwt>
<pdfrwt beam="2">  1       -1 0.23200903E+00 0.30444909E+04</pdfrwt>
<totfact> 0.47896238E-01</totfact>
</mgrwt>
</event>
<event>
 6    1  0.1762360E-005  0.3666483E+04  0.7818608E-02  0.8075430E-01
          2   -1    0    0  501    0  0.00000000000E+00  0.00000000000E+00  0.24108491211E+04  0.24108491211E+04  0.00000000000E+00 0. -1.
         -2   -1    0    0    0  501 -0.00000000000E+00 -0.00000000000E+00 -0.13940210010E+04  0.13940210010E+04  0.00000000000E+00 0.  1.
         23    2    1    2    0    0 -0.10389774619E+04 -0.14902144528E+04  0.26220163412E+03  0.18377213186E+04  0.90866200223E+02 0.  0.
         11    1    3    3    0    0 -0.55885848077E+03 -0.77176893454E+03  0.17998135797E+03  0.96971303955E+03  0.00000000000E+00 0. -1.
        -11    1    3    3    0    0 -0.48011898116E+03 -0.71844551826E+03  0.82220276154E+02  0.86800827910E+03  0.00000000000E+00 0.  1.
         22    1    1    2    0    0  0.10389774619E+04  0.14902144528E+04  0.75462648593E+03  0.19671488035E+04  0.00000000000E+00 0. -1.
<mgrwt>
<rscale>  0 0.36664829E+04</rscale>
<asrwt>0</asrwt>
<pdfrwt beam="1">  1        2 0.37089986E+00 0.36664829E+04</pdfrwt>
<pdfrwt beam="2">  1       -2 0.21446477E+00 0.36664829E+04</pdfrwt>
<totfact> 0.34051633E-01</totfact>
</mgrwt>
</event>
<event>
 6    1  0.1762360E-005  0.3377831E+04  0.7818608E-02  0.8143369E-01
         -2   -1    0    0    0  501 -0.00000000000E+00  0.00000000000E+00  0.13604021415E+04  0.13604021415E+04  0.00000000000E+00 0.  1.
          2   -1    0    0  501    0  0.00000000000E+00 -0.00000000000E+00 -0.20967588624E+04  0.20967588624E+04  0.00000000000E+00 0. -1.
         23    2    1    2    0    0  0.83498414387E+03 -0.83879383058E+03  0.86284006046E+03  0.14676374538E+04  0.93236875643E+02 0.  0.
         11    1    3    3    0    0  0.10970835477E+03 -0.71205451195E+02  0.10694863918E+03  0.16895014297E+03  0.00000000000E+00 0.  1.
        -11    1    3    3    0    0  0.72527578910E+03 -0.76758837939E+03  0.75589142129E+03  0.12986873108E+04  0.00000000000E+00 0. -1.
         22    1    1    2    0    0 -0.83498414387E+03  0.83879383058E+03 -0.15991967814E+04  0.19895235501E+04  0.00000000000E+00 0. -1.
<mgrwt>
<rscale>  0 0.33778308E+04</rscale>
<asrwt>0</asrwt>
<pdfrwt beam="1">  1        2 0.32257828E+00 0.33778308E+04</pdfrwt>
<pdfrwt beam="2">  1       -2 0.20929264E+00 0.33778308E+04</pdfrwt>
<totfact> 0.56669206E-01</totfact>
</mgrwt>
</event>
<event>
 6    1  0.1762360E-005  0.2281013E+04  0.7818608E-02  0.8485445E-01
          1   -1    0    0  501    0  0.00000000000E+00  0.00000000000E+00  0.28159567600E+04  0.28159567600E+04  0.00000000000E+00 0. -1.
         -1   -1    0    0    0  501 -0.00000000000E+00 -0.00000000000E+00 -0.46192295249E+03  0.46192295249E+03  0.00000000000E+00 0.  1.
         23    2    1    2    0    0 -0.52938059739E+00 -0.11259427981E+04  0.14219987481E+04  0.18162242069E+04  0.94034383826E+02 0.  0.
         13    1    3    3    0    0 -0.46405148087E+01 -0.63151717834E+03  0.87166635675E+03  0.10764003523E+04  0.00000000000E+00 0. -1.
        -13    1    3    3    0    0  0.41111342113E+01 -0.49442561979E+03  0.55033239134E+03  0.73982385464E+03  0.00000000000E+00 0.  1.
         22    1    1    2    0    0  0.52938059739E+00  0.11259427981E+04  0.93203505940E+03  0.14616555055E+04  0.00000000000E+00 0. -1.
<mgrwt>
<rscale>  0 0.22810130E+04</rscale>
<asrwt>0</asrwt>
<pdfrwt beam="1">  1        1 0.43322411E+00 0.22810130E+04</pdfrwt>
<pdfrwt beam="2">  1       -1 0.71065071E-01 0.22810130E+04</pdfrwt>
<totfact> 0.14703676E+00</totfact>
</mgrwt>
</event>
<event>
 6    1  0.1762360E-005  0.1617776E+04  0.7818608E-02  0.8809701E-01
         -2   -1    0    0    0  501 -0.00000000000E+00  0.00000000000E+00  0.34247091613E+03  0.34247091613E+03  0.00000000000E+00 0.  1.
          2   -1    0    0  501    0  0.00000000000E+00 -0.00000000000E+00 -0.19105275565E+04  0.19105275565E+04  0.00000000000E+00 0. -1.
         23    2    1    2    0    0  0.40050801991E+03  0.56862209666E+03 -0.21808181507E+03  0.73439062603E+03  0.89622266824E+02 0.  0.
         13    1    3    3    0    0  0.33384686477E+03  0.51768717026E+03 -0.17666528121E+03  0.64083098939E+03  0.00000000000E+00 0.  1.
        -13    1    3    3    0    0  0.66661155143E+02  0.50934926401E+02 -0.41416533861E+02  0.93559636647E+02  0.00000000000E+00 0. -1.
         22    1    1    2    0    0 -0.40050801991E+03 -0.56862209666E+03 -0.13499748253E+04  0.15186078466E+04  0.00000000000E+00 0. -1.
<mgrwt>
<rscale>  0 0.16177764E+04</rscale>
<asrwt>0</asrwt>
<pdfrwt beam="1">  1        2 0.29392732E+00 0.16177764E+04</pdfrwt>
<pdfrwt beam="2">  1       -2 0.52687833E-01 0.16177764E+04</pdfrwt>
<totfact> 0.24383436E+01</totfact>
</mgrwt>
</event>
<event>
 6    1  0.2626016E-005  0.4853136E+04  0.7818608E-02  0.7851570E-01
          1   -1    0    0  501    0  0.00000000000E+00  0.00000000000E+00  0.23646687424E+04  0.23646687424E+04  0.00000000000E+00 0. -1.
         -1   -1    0    0    0  501 -0.00000000000E+00 -0.00000000000E+00 -0.24900877232E+04  0.24900877232E+04  0.00000000000E+00 0.  1.
         23    2    1    2    0    0 -0.23674135587E+04 -0.44737587250E+03  0.21890799475E+03  0.24209624736E+04  0.91358958316E+02 0.  0.
         13    1    3    3    0    0 -0.17111121660E+04 -0.31864718128E+03  0.11724874605E+03  0.17444735995E+04  0.00000000000E+00 0. -1.
        -13    1    3    3    0    0 -0.65630139269E+03 -0.12872869122E+03  0.10165924870E+03  0.67648887414E+03  0.00000000000E+00 0.  1.
         22    1    1    2    0    0  0.23674135587E+04  0.44737587250E+03 -0.34432697557E+03  0.24337939920E+04  0.00000000000E+00 0.  1.
<mgrwt>
<rscale>  0 0.48531361E+04</rscale>
<asrwt>0</asrwt>
<pdfrwt beam="1">  1        1 0.36379519E+00 0.48531361E+04</pdfrwt>
<pdfrwt beam="2">  1       -1 0.38309042E+00 0.48531361E+04</pdfrwt>
<totfact> 0.11444842E-02</totfact>
</mgrwt>
</event>
<event>
 6    1  0.1762360E-005  0.3764128E+04  0.7818608E-02  0.8053897E-01
          2   -1    0    0  501    0  0.00000000000E+00  0.00000000000E+00  0.38712385313E+04  0.38712385313E+04  0.00000000000E+00 0.  1.
         -2   -1    0    0    0  501 -0.00000000000E+00 -0.00000000000E+00 -0.91499523029E+03  0.91499523029E+03  0.00000000000E+00 0. -1.
         23    2    1    2    0    0 -0.18615643467E+04 -0.85246085621E+02  0.11537858221E+04  0.21936401422E+04  0.90258730026E+02 0.  0.
         11    1    3    3    0    0 -0.96174615885E+03 -0.84440340722E+02  0.57350595914E+03  0.11229403058E+04  0.00000000000E+00 0.  1.
        -11    1    3    3    0    0 -0.89981818783E+03 -0.80574489896E+00  0.58027986294E+03  0.10706998364E+04  0.00000000000E+00 0. -1.
         22    1    1    2    0    0  0.18615643467E+04  0.85246085621E+02  0.18024574790E+04  0.25925936194E+04  0.00000000000E+00 0. -1.
<mgrwt>
<rscale>  0 0.37641279E+04</rscale>
<asrwt>0</asrwt>
<pdfrwt beam="1">  1        2 0.59557515E+00 0.37641279E+04</pdfrwt>
<pdfrwt beam="2">  1       -2 0.14076850E+00 0.37641279E+04</pdfrwt>
<totfact> 0.12291368E-01</totfact>
</mgrwt>
</event>
<event>
 6    1  0.1762360E-005  0.2587491E+04  0.7818608E-02  0.8372463E-01
          2   -1    0    0  501    0  0.00000000000E+00  0.00000000000E+00  0.26366379062E+04  0.26366379062E+04  0.00000000000E+00 0. -1.
         -2   -1    0    0    0  501 -0.00000000000E+00 -0.00000000000E+00 -0.63481494758E+03  0.63481494758E+03  0.00000000000E+00 0.  1.
         23    2    1    2    0    0 -0.67318135969E+03  0.79360803787E+03  0.19705420282E+04  0.22303162837E+04  0.91038342059E+02 0.  0.
         11    1    3    3    0    0 -0.41515736518E+03  0.42151628063E+03  0.10942712755E+04  0.12439699503E+04  0.00000000000E+00 0.  1.
        -11    1    3    3    0    0 -0.25802399451E+03  0.37209175724E+03  0.87627075266E+03  0.98634633346E+03  0.00000000000E+00 0. -1.
         22    1    1    2    0    0  0.67318135969E+03 -0.79360803787E+03  0.31280930371E+02  0.10411365700E+04  0.00000000000E+00 0.  1.
<mgrwt>
<rscale>  0 0.25874908E+04</rscale>
<asrwt>0</asrwt>
<pdfrwt beam="1">  1        2 0.40563659E+00 0.25874908E+04</pdfrwt>
<pdfrwt beam="2">  1       -2 0.97663840E-01 0.25874908E+04</pdfrwt>
<totfact> 0.22390450E+00</totfact>
</mgrwt>
</event>
<event>
 6    1  0.1762360E-005  0.1820076E+04  0.7818608E-02  0.8695696E-01
         -1   -1    0    0    0  501 -0.00000000000E+00  0.00000000000E+00  0.46349168717E+03  0.46349168717E+03  0.00000000000E+00 0.  1.
          1   -1    0    0  501    0  0.00000000000E+00 -0.00000000000E+00 -0.17868041155E+04  0.17868041155E+04  0.00000000000E+00 0. -1.
         23    2    1    2    0    0 -0.51936168690E+03  0.16788768081E+03  0.23348622032E+03  0.60058526212E+03  0.90906582849E+02 0.  0.
         13    1    3    3    0    0 -0.22609134169E+03  0.81974249275E+02  0.15131137461E+03  0.28413413103E+03  0.00000000000E+00 0.  1.
        -13    1    3    3    0    0 -0.29327034521E+03  0.85913431532E+02  0.82174845716E+02  0.31645113109E+03  0.00000000000E+00 0. -1.
         22    1    1    2    0    0  0.51936168690E+03 -0.16788768081E+03 -0.15567986487E+04  0.16497105406E+04  0.00000000000E+00 0. -1.
<mgrwt>
<rscale>  0 0.18200757E+04</rscale>
<asrwt>0</asrwt>
<pdfrwt beam="1">  1        1 0.27489294E+00 0.18200757E+04</pdfrwt>
<pdfrwt beam="2">  1       -1 0.71306412E-01 0.18200757E+04</pdfrwt>
<totfact> 0.77805429E+00</totfact>
</mgrwt>
</event>
<event>
 6    1  0.1762360E-005  0.3298864E+04  0.7818608E-02  0.8163185E-01
         -2   -1    0    0    0  501 -0.00000000000E+00  0.00000000000E+00  0.15456836626E+04  0.15456836626E+04  0.00000000000E+00 0.  1.
          2   -1    0    0  501    0  0.00000000000E+00 -0.00000000000E+00 -0.17601435928E+04  0.17601435928E+04  0.00000000000E+00 0. -1.
         23    2    1    2    0    0 -0.15032528381E+04  0.47527109135E+03 -0.58976187221E+03  0.16851782332E+04  0.79717665335E+02 0.  0.
         13    1    3    3    0    0 -0.84768688764E+03  0.29326489780E+03 -0.30191557375E+03  0.94643033205E+03  0.00000000000E+00 0.  1.
        -13    1    3    3    0    0 -0.65556595047E+03  0.18200619356E+03 -0.28784629845E+03  0.73874790115E+03  0.00000000000E+00 0. -1.
         22    1    1    2    0    0  0.15032528381E+04 -0.47527109135E+03  0.37530194204E+03  0.16206490222E+04  0.00000000000E+00 0.  1.
<mgrwt>
<rscale>  0 0.32988636E+04</rscale>
<asrwt>0</asrwt>
<pdfrwt beam="1">  1        2 0.27079132E+00 0.32988636E+04</pdfrwt>
<pdfrwt beam="2">  1       -2 0.23779749E+00 0.32988636E+04</pdfrwt>
<totfact> 0.57980770E-01</totfact>
</mgrwt>
</event>
<event>
 6    1  0.1762360E-005  0.1407410E+04  0.7818608E-02  0.8948472E-01
          2   -1    0    0  501    0  0.00000000000E+00  0.00000000000E+00  0.21337444278E+04  0.21337444278E+04  0.00000000000E+00 0.  1.
         -2   -1    0    0    0  501 -0.00000000000E+00 -0.00000000000E+00 -0.23208060598E+03  0.23208060598E+03  0.00000000000E+00 0. -1.
         23    2    1    2    0    0  0.31626599461E+03 -0.49781835330E+03  0.15911295431E+04  0.16992825892E+04  0.89558934465E+02 0.  0.
         11    1    3    3    0    0  0.57663284411E+02 -0.16447013274E+03  0.49258527203E+03  0.52250907088E+03  0.00000000000E+00 0.  1.
        -11    1    3    3    0    0  0.25860271019E+03 -0.33334822056E+03  0.10985442711E+04  0.11767735183E+04  0.00000000000E+00 0. -1.
         22    1    1    2    0    0 -0.31626599461E+03  0.49781835330E+03  0.31053427877E+03  0.66654244465E+03  0.00000000000E+00 0. -1.
<mgrwt>
<rscale>  0 0.14074100E+04</rscale>
<asrwt>0</asrwt>
<pdfrwt beam="1">  1        2 0.32826836E+00 0.14074100E+04</pdfrwt>
<pdfrwt beam="2">  1       -2 0.35704710E-01 0.14074100E+04</pdfrwt>
<totfact> 0.40398650E+01</totfact>
</mgrwt>
</event>
<event>
 6    1  0.1762360E-005  0.2571828E+04  0.7818608E-02  0.8377834E-01
         -1   -1    0    0    0  501 -0.00000000000E+00  0.00000000000E+00  0.91674900371E+03  0.91674900371E+03  0.00000000000E+00 0.  1.
          1   -1    0    0  501    0  0.00000000000E+00 -0.00000000000E+00 -0.18037377535E+04  0.18037377535E+04  0.00000000000E+00 0. -1.
         23    2    1    2    0    0  0.63792480245E+03 -0.41455798675E+03 -0.15385863629E+04  0.17187952741E+04  0.90569423622E+02 0.  0.
         13    1    3    3    0    0  0.37193250790E+03 -0.23135833560E+03 -0.78548986597E+03  0.89936355243E+03  0.00000000000E+00 0.  1.
        -13    1    3    3    0    0  0.26599229455E+03 -0.18319965115E+03 -0.75309649688E+03  0.81943172172E+03  0.00000000000E+00 0. -1.
         22    1    1    2    0    0 -0.63792480245E+03  0.41455798675E+03  0.65159761304E+03  0.10016914831E+04  0.00000000000E+00 0.  1.
<mgrwt>
<rscale>  0 0.25718280E+04</rscale>
<asrwt>0</asrwt>
<pdfrwt beam="1">  1        1 0.27749811E+00 0.25718280E+04</pdfrwt>
<pdfrwt beam="2">  1       -1 0.14103831E+00 0.25718280E+04</pdfrwt>
<totfact> 0.14700339E+00</totfact>
</mgrwt>
</event>
<event>
 6    1  0.1762360E-005  0.1059645E+04  0.7818608E-02  0.9245442E-01
         -1   -1    0    0    0  501 -0.00000000000E+00  0.00000000000E+00  0.54667949928E+03  0.54667949928E+03  0.00000000000E+00 0.  1.
          1   -1    0    0  501    0  0.00000000000E+00 -0.00000000000E+00 -0.51348558966E+03  0.51348558966E+03  0.00000000000E+00 0. -1.
         23    2    1    2    0    0 -0.39609830201E+03 -0.29669231532E+03 -0.16084608656E+03  0.52859033885E+03  0.92822884743E+02 0.  0.
         13    1    3    3    0    0 -0.23064553573E+03 -0.22729288151E+03 -0.11200050390E+03  0.34264198518E+03  0.00000000000E+00 0.  1.
        -13    1    3    3    0    0 -0.16545276628E+03 -0.69399433810E+02 -0.48845582661E+02  0.18594835366E+03  0.00000000000E+00 0. -1.
         22    1    1    2    0    0  0.39609830201E+03  0.29669231532E+03  0.19403999618E+03  0.53157475010E+03  0.00000000000E+00 0.  1.
<mgrwt>
<rscale>  0 0.10596453E+04</rscale>
<asrwt>0</asrwt>
<pdfrwt beam="1">  1        1 0.78997782E-01 0.10596453E+04</pdfrwt>
<pdfrwt beam="2">  1       -1 0.84104539E-01 0.10596453E+04</pdfrwt>
<totfact> 0.59818433E+01</totfact>
</mgrwt>
</event>
<event>
 6    1  0.1762360E-005  0.1240054E+04  0.7818608E-02  0.9078502E-01
         -2   -1    0    0    0  501 -0.00000000000E+00  0.00000000000E+00  0.21929346658E+04  0.21929346658E+04  0.00000000000E+00 0.  1.
          2   -1    0    0  501    0  0.00000000000E+00 -0.00000000000E+00 -0.17530562461E+03  0.17530562461E+03  0.00000000000E+00 0. -1.
         23    2    1    2    0    0  0.10245863474E+03 -0.40747500225E+03  0.15202982472E+03  0.45591341308E+03  0.90610834495E+02 0.  0.
         13    1    3    3    0    0  0.43730555970E+02 -0.16429757881E+03  0.15010299012E+02  0.17067912879E+03  0.00000000000E+00 0. -1.
        -13    1    3    3    0    0  0.58728078768E+02 -0.24317742344E+03  0.13701952571E+03  0.28523428428E+03  0.00000000000E+00 0.  1.
         22    1    1    2    0    0 -0.10245863474E+03  0.40747500225E+03  0.18655992165E+04  0.19123268773E+04  0.00000000000E+00 0.  1.
<mgrwt>
<rscale>  0 0.12400545E+04</rscale>
<asrwt>0</asrwt>
<pdfrwt beam="1">  1        2 0.26970098E-01 0.12400545E+04</pdfrwt>
<pdfrwt beam="2">  1       -2 0.33737454E+00 0.12400545E+04</pdfrwt>
<totfact> 0.37388079E+00</totfact>
</mgrwt>
</event>
<event>
 6    1  0.1762360E-005  0.8476513E+03  0.7818608E-02  0.9493495E-01
          2   -1    0    0  501    0  0.00000000000E+00  0.00000000000E+00  0.15468790710E+04  0.15468790710E+04  0.00000000000E+00 0. -1.
         -2   -1    0    0    0  501 -0.00000000000E+00 -0.00000000000E+00 -0.11612296313E+03  0.11612296313E+03  0.00000000000E+00 0.  1.
         23    2    1    2    0    0  0.10208717012E+03 -0.33125056604E+03  0.11860890961E+04  0.12387253856E+04  0.86513058397E+02 0.  0.
         11    1    3    3    0    0  0.94862332733E+02 -0.22007239011E+03  0.90943507922E+03  0.94048013397E+03  0.00000000000E+00 0.  1.
        -11    1    3    3    0    0  0.72248373890E+01 -0.11117817592E+03  0.27665401689E+03  0.29824525167E+03  0.00000000000E+00 0. -1.
         22    1    1    2    0    0 -0.10208717012E+03  0.33125056604E+03  0.24466701172E+03  0.42427664846E+03  0.00000000000E+00 0.  1.
<mgrwt>
<rscale>  0 0.84765130E+03</rscale>
<asrwt>0</asrwt>
<pdfrwt beam="1">  1        2 0.23798138E+00 0.84765130E+03</pdfrwt>
<pdfrwt beam="2">  1       -2 0.17865072E-01 0.84765130E+03</pdfrwt>
<totfact> 0.31270151E+02</totfact>
</mgrwt>
</event>
<event>
 6    1  0.1980059E-005  0.3963892E+04  0.7818608E-02  0.8011871E-01
         -2   -1    0    0    0  501 -0.00000000000E+00  0.00000000000E+00  0.25981204207E+04  0.25981204207E+04  0.00000000000E+00 0.  1.
          2   -1    0    0  501    0  0.00000000000E+00 -0.00000000000E+00 -0.15119041475E+04  0.15119041475E+04  0.00000000000E+00 0. -1.
         23    2    1    2    0    0 -0.17833810245E+04 -0.56836046837E+03  0.12156980445E+04  0.22337924318E+04  0.91789935247E+02 0.  0.
         11    1    3    3    0    0 -0.34810429598E+03 -0.86781468118E+02  0.26662430558E+03  0.44698561992E+03  0.00000000000E+00 0.  1.
        -11    1    3    3    0    0 -0.14352767286E+04 -0.48157900026E+03  0.94907373893E+03  0.17868068119E+04  0.00000000000E+00 0. -1.
         22    1    1    2    0    0  0.17833810245E+04  0.56836046837E+03 -0.12948177123E+03  0.18762321364E+04  0.00000000000E+00 0. -1.
<mgrwt>
<rscale>  0 0.39638915E+04</rscale>
<asrwt>0</asrwt>
<pdfrwt beam="1">  1        2 0.23260064E+00 0.39638915E+04</pdfrwt>
<pdfrwt beam="2">  1       -2 0.39971083E+00 0.39638915E+04</pdfrwt>
<totfact> 0.73680781E-02</totfact>
</mgrwt>
</event>
<event>
 6    1  0.1762360E-005  0.1827563E+04  0.7818608E-02  0.8691777E-01
         -2   -1    0    0    0  501 -0.00000000000E+00  0.00000000000E+00  0.59644223144E+03  0.59644223144E+03  0.00000000000E+00 0.  1.
          2   -1    0    0  501    0  0.00000000000E+00 -0.00000000000E+00 -0.13999626938E+04  0.13999626938E+04  0.00000000000E+00 0. -1.
         23    2    1    2    0    0 -0.68364340712E+03 -0.69618954439E+02 -0.10569115206E+04  0.12639964768E+04  0.91706183434E+02 0.  0.
         11    1    3    3    0    0 -0.34973795534E+03 -0.63620274062E+01 -0.47140961312E+03  0.58701289265E+03  0.00000000000E+00 0. -1.
        -11    1    3    3    0    0 -0.33390545178E+03 -0.63256927033E+02 -0.58550190752E+03  0.67698358418E+03  0.00000000000E+00 0.  1.
         22    1    1    2    0    0  0.68364340712E+03  0.69618954439E+02  0.25339105826E+03  0.73240844842E+03  0.00000000000E+00 0.  1.
<mgrwt>
<rscale>  0 0.18275633E+04</rscale>
<asrwt>0</asrwt>
<pdfrwt beam="1">  1        2 0.21537887E+00 0.18275633E+04</pdfrwt>
<pdfrwt beam="2">  1       -2 0.91760344E-01 0.18275633E+04</pdfrwt>
<totfact> 0.13775943E+01</totfact>
</mgrwt>
</event>
<event>
 6    1  0.1762360E-005  0.2973986E+04  0.7818608E-02  0.8251199E-01
         -2   -1    0    0    0  501 -0.00000000000E+00  0.00000000000E+00  0.24138117321E+04  0.24138117321E+04  0.00000000000E+00 0.  1.
          2   -1    0    0  501    0  0.00000000000E+00 -0.00000000000E+00 -0.91604008098E+03  0.91604008098E+03  0.00000000000E+00 0. -1.
         23    2    1    2    0    0  0.36005156316E+03  0.27930592869E+03 -0.83351195817E+03  0.95445033189E+03  0.92651614645E+02 0.  0.
         13    1    3    3    0    0  0.13292955711E+03  0.16121932802E+03 -0.36646536534E+03  0.42185163610E+03  0.00000000000E+00 0.  1.
        -13    1    3    3    0    0  0.22712200605E+03  0.11808660067E+03 -0.46704659283E+03  0.53259869579E+03  0.00000000000E+00 0. -1.
         22    1    1    2    0    0 -0.36005156316E+03 -0.27930592869E+03  0.23312836093E+04  0.23754014812E+04  0.00000000000E+00 0.  1.
<mgrwt>
<rscale>  0 0.29739861E+04</rscale>
<asrwt>0</asrwt>
<pdfrwt beam="1">  1        2 0.14092924E+00 0.29739861E+04</pdfrwt>
<pdfrwt beam="2">  1       -2 0.37135565E+00 0.29739861E+04</pdfrwt>
<totfact> 0.27909348E-01</totfact>
</mgrwt>
</event>
<event>
 6    1  0.1762360E-005  0.1741391E+04  0.7818608E-02  0.8738103E-01
          2   -1    0    0  501    0  0.00000000000E+00  0.00000000000E+00  0.11962884947E+04  0.11962884947E+04  0.00000000000E+00 0. -1.
         -2   -1    0    0    0  501 -0.00000000000E+00 -0.00000000000E+00 -0.63371882422E+03  0.63371882422E+03  0.00000000000E+00 0.  1.
         23    2    1    2    0    0  0.55656117085E+03 -0.29091840407E+03 -0.34832765898E+03  0.72360422803E+03  0.88752837089E+02 0.  0.
         13    1    3    3    0    0  0.16256185062E+03 -0.41504655227E+02 -0.84945529433E+02  0.18805513727E+03  0.00000000000E+00 0.  1.
        -13    1    3    3    0    0  0.39399932023E+03 -0.24941374884E+03 -0.26338212955E+03  0.53554909076E+03  0.00000000000E+00 0. -1.
         22    1    1    2    0    0 -0.55656117085E+03  0.29091840407E+03  0.91089732946E+03  0.11064030909E+04  0.00000000000E+00 0. -1.
<mgrwt>
<rscale>  0 0.17413909E+04</rscale>
<asrwt>0</asrwt>
<pdfrwt beam="1">  1        2 0.18404438E+00 0.17413909E+04</pdfrwt>
<pdfrwt beam="2">  1       -2 0.97495204E-01 0.17413909E+04</pdfrwt>
<totfact> 0.15838607E+01</totfact>
</mgrwt>
</event>
<event>
 6    1  0.1762360E-005  0.2791882E+04  0.7818608E-02  0.8305793E-01
         -2   -1    0    0    0  501 -0.00000000000E+00  0.00000000000E+00  0.60841961112E+03  0.60841961112E+03  0.00000000000E+00 0.  1.
          2   -1    0    0  501    0  0.00000000000E+00 -0.00000000000E+00 -0.32028070190E+04  0.32028070190E+04  0.00000000000E+00 0. -1.
         23    2    1    2    0    0 -0.60025964483E+03  0.12314679912E+04 -0.16535356697E+04  0.21492918998E+04  0.91926085843E+02 0.  0.
         13    1    3    3    0    0 -0.40967269403E+03  0.83790211655E+03 -0.11914803178E+04  0.15131216147E+04  0.00000000000E+00 0. -1.
        -13    1    3    3    0    0 -0.19058695080E+03  0.39356587463E+03 -0.46205535189E+03  0.63617028515E+03  0.00000000000E+00 0.  1.
         22    1    1    2    0    0  0.60025964483E+03 -0.12314679912E+04 -0.94085173822E+03  0.16619347303E+04  0.00000000000E+00 0.  1.
<mgrwt>
<rscale>  0 0.27918815E+04</rscale>
<asrwt>0</asrwt>
<pdfrwt beam="1">  1        2 0.49273953E+00 0.27918815E+04</pdfrwt>
<pdfrwt beam="2">  1       -2 0.93603020E-01 0.27918815E+04</pdfrwt>
<totfact> 0.10844237E+00</totfact>
</mgrwt>
</event>
<event>
 6    1  0.1762360E-005  0.1383219E+04  0.7818608E-02  0.8966056E-01
         -2   -1    0    0    0  501 -0.00000000000E+00  0.00000000000E+00  0.80130865318E+03  0.80130865318E+03  0.00000000000E+00 0.  1.
          2   -1    0    0  501    0  0.00000000000E+00 -0.00000000000E+00 -0.59692825399E+03  0.59692825399E+03  0.00000000000E+00 0. -1.
         23    2    1    2    0    0  0.14874879083E+03  0.52109545676E+03 -0.32798649426E+03  0.63857830815E+03  0.80872970709E+02 0.  0.
         13    1    3    3    0    0  0.14425476660E+02  0.14260883303E+03 -0.57877594432E+02  0.15458068952E+03  0.00000000000E+00 0. -1.
        -13    1    3    3    0    0  0.13432331417E+03  0.37848662373E+03 -0.27010889982E+03  0.48399761862E+03  0.00000000000E+00 0.  1.
         22    1    1    2    0    0 -0.14874879083E+03 -0.52109545676E+03  0.53236689345E+03  0.75965859903E+03  0.00000000000E+00 0.  1.
<mgrwt>
<rscale>  0 0.13832191E+04</rscale>
<asrwt>0</asrwt>
<pdfrwt beam="1">  1        2 0.91835116E-01 0.13832191E+04</pdfrwt>
<pdfrwt beam="2">  1       -2 0.12327825E+00 0.13832191E+04</pdfrwt>
<totfact> 0.24136801E+01</totfact>
</mgrwt>
</event>
<event>
 6    1  0.1762360E-005  0.3418221E+04  0.7818608E-02  0.8133449E-01
          2   -1    0    0  501    0  0.00000000000E+00  0.00000000000E+00  0.22751435646E+04  0.22751435646E+04  0.00000000000E+00 0. -1.
         -2   -1    0    0    0  501 -0.00000000000E+00 -0.00000000000E+00 -0.12839009867E+04  0.12839009867E+04  0.00000000000E+00 0.  1.
         23    2    1    2    0    0  0.16938966861E+04 -0.21678570938E+03  0.47614263752E+03  0.17753377437E+04  0.93969495154E+02 0.  0.
         13    1    3    3    0    0  0.45250354862E+03 -0.91846068217E+02  0.10314318248E+03  0.47311064018E+03  0.00000000000E+00 0.  1.
        -13    1    3    3    0    0  0.12413931375E+04 -0.12493964117E+03  0.37299945504E+03  0.13022271035E+04  0.00000000000E+00 0. -1.
         22    1    1    2    0    0 -0.16938966861E+04  0.21678570938E+03  0.51509994040E+03  0.17837068076E+04  0.00000000000E+00 0.  1.
<mgrwt>
<rscale>  0 0.34182212E+04</rscale>
<asrwt>0</asrwt>
<pdfrwt beam="1">  1        2 0.35002209E+00 0.34182212E+04</pdfrwt>
<pdfrwt beam="2">  1       -2 0.19752323E+00 0.34182212E+04</pdfrwt>
<totfact> 0.53496925E-01</totfact>
</mgrwt>
</event>
<event>
 6    1  0.1762360E-005  0.1539516E+04  0.7818608E-02  0.8858593E-01
          2   -1    0    0  501    0  0.00000000000E+00  0.00000000000E+00  0.66242249605E+03  0.66242249605E+03  0.00000000000E+00 0. -1.
         -2   -1    0    0    0  501 -0.00000000000E+00 -0.00000000000E+00 -0.89448506042E+03  0.89448506042E+03  0.00000000000E+00 0.  1.
         23    2    1    2    0    0 -0.46477661952E+03 -0.57858057275E+03  0.80654616746E+02  0.75157233399E+03  0.87080542032E+02 0.  0.
         11    1    3    3    0    0 -0.80325020961E+02 -0.67405020198E+02 -0.10966556721E+02  0.10543154702E+03  0.00000000000E+00 0.  1.
        -11    1    3    3    0    0 -0.38445159856E+03 -0.51117555255E+03  0.91621173467E+02  0.64614078697E+03  0.00000000000E+00 0. -1.
         22    1    1    2    0    0  0.46477661952E+03  0.57858057275E+03 -0.31271718111E+03  0.80533522249E+03  0.00000000000E+00 0.  1.
<mgrwt>
<rscale>  0 0.15395155E+04</rscale>
<asrwt>0</asrwt>
<pdfrwt beam="1">  1        2 0.10191115E+00 0.15395155E+04</pdfrwt>
<pdfrwt beam="2">  1       -2 0.13761309E+00 0.15395155E+04</pdfrwt>
<totfact> 0.15880771E+01</totfact>
</mgrwt>
</event>
<event>
 6    1  0.1762360E-005  0.1123978E+04  0.7818608E-02  0.9182131E-01
          2   -1    0    0  501    0  0.00000000000E+00  0.00000000000E+00  0.16302241855E+03  0.16302241855E+03  0.00000000000E+00 0. -1.
         -2   -1    0    0    0  501 -0.00000000000E+00 -0.00000000000E+00 -0.19373505511E+04  0.19373505511E+04  0.00000000000E+00 0.  1.
         23    2    1    2    0    0 -0.53238482786E+03  0.70811344567E+02 -0.61032430445E+03  0.81843975637E+03  0.94339953118E+02 0.  0.
         13    1    3    3    0    0 -0.24902154476E+03 -0.91214890345E+00 -0.33027556456E+03  0.41363572176E+03  0.00000000000E+00 0. -1.
        -13    1    3    3    0    0 -0.28336328310E+03  0.71723493470E+02 -0.28004873989E+03  0.40480403461E+03  0.00000000000E+00 0.  1.
         22    1    1    2    0    0  0.53238482786E+03 -0.70811344567E+02 -0.11640038281E+04  0.12819332133E+04  0.00000000000E+00 0.  1.
<mgrwt>
<rscale>  0 0.11239779E+04</rscale>
<asrwt>0</asrwt>
<pdfrwt beam="1">  1        2 0.25080372E-01 0.11239779E+04</pdfrwt>
<pdfrwt beam="2">  1       -2 0.29805393E+00 0.11239779E+04</pdfrwt>
<totfact> 0.71516005E+00</totfact>
</mgrwt>
</event>
<event>
 6    1  0.1762360E-005  0.3164580E+04  0.7818608E-02  0.8198235E-01
         -2   -1    0    0    0  501 -0.00000000000E+00  0.00000000000E+00  0.61719122305E+03  0.61719122305E+03  0.00000000000E+00 0.  1.
          2   -1    0    0  501    0  0.00000000000E+00 -0.00000000000E+00 -0.40565077387E+04  0.40565077387E+04  0.00000000000E+00 0. -1.
         23    2    1    2    0    0  0.91156747052E+03  0.54224070563E+03  0.10452944842E+02  0.10645592351E+04  0.90536538335E+02 0.  0.
         11    1    3    3    0    0  0.40069211067E+03  0.20344222981E+03 -0.28752173837E+02  0.45029945139E+03  0.00000000000E+00 0.  1.
        -11    1    3    3    0    0  0.51087535986E+03  0.33879847582E+03  0.39205118679E+02  0.61425978369E+03  0.00000000000E+00 0. -1.
         22    1    1    2    0    0 -0.91156747052E+03 -0.54224070563E+03 -0.34497694605E+04  0.36091397266E+04  0.00000000000E+00 0. -1.
<mgrwt>
<rscale>  0 0.31645796E+04</rscale>
<asrwt>0</asrwt>
<pdfrwt beam="1">  1        2 0.62407811E+00 0.31645796E+04</pdfrwt>
<pdfrwt beam="2">  1       -2 0.94952496E-01 0.31645796E+04</pdfrwt>
<totfact> 0.24200463E-01</totfact>
</mgrwt>
</event>
<event>
 6    1  0.1762360E-005  0.6487711E+03  0.7818608E-02  0.9809088E-01
         -4   -1    0    0    0  501 -0.00000000000E+00  0.00000000000E+00  0.42738503942E+02  0.42738503942E+02  0.00000000000E+00 0.  1.
          4   -1    0    0  501    0  0.00000000000E+00 -0.00000000000E+00 -0.24620882724E+04  0.24620882724E+04  0.00000000000E+00 0. -1.
         23    2    1    2    0    0 -0.27718379605E+01  0.56237307504E+02 -0.24414979024E+04  0.24443217544E+04  0.10308498280E+03 0.  0.
         11    1    3    3    0    0 -0.31819543767E+02  0.41823893214E+02 -0.22033134122E+04  0.22039400432E+04  0.00000000000E+00 0.  1.
        -11    1    3    3    0    0  0.29047705806E+02  0.14413414290E+02 -0.23818449022E+03  0.24038171125E+03  0.00000000000E+00 0. -1.
         22    1    1    2    0    0  0.27718379605E+01 -0.56237307504E+02  0.22148133968E+02  0.60505021934E+02  0.00000000000E+00 0.  1.
<mgrwt>
<rscale>  0 0.64877105E+03</rscale>
<asrwt>0</asrwt>
<pdfrwt beam="1">  1        4 0.37878282E+00 0.64877105E+03</pdfrwt>
<pdfrwt beam="2">  1       -4 0.65751543E-02 0.64877105E+03</pdfrwt>
<totfact> 0.32739604E+00</totfact>
</mgrwt>
</event>
<event>
 6    1  0.1762360E-005  0.6863660E+03  0.7818608E-02  0.9740836E-01
          1   -1    0    0  501    0  0.00000000000E+00  0.00000000000E+00  0.72181043920E+03  0.72181043920E+03  0.00000000000E+00 0. -1.
         -1   -1    0    0    0  501 -0.00000000000E+00 -0.00000000000E+00 -0.16316551075E+03  0.16316551075E+03  0.00000000000E+00 0.  1.
         23    2    1    2    0    0  0.16051628585E+02 -0.33488035326E+03  0.33056347792E+03  0.47948408338E+03  0.90720821757E+02 0.  0.
         11    1    3    3    0    0  0.17682051920E+02 -0.18907895669E+03  0.24652845221E+03  0.31119091338E+03  0.00000000000E+00 0. -1.
        -11    1    3    3    0    0 -0.16304233355E+01 -0.14580139657E+03  0.84035025712E+02  0.16829317000E+03  0.00000000000E+00 0.  1.
         22    1    1    2    0    0 -0.16051628585E+02  0.33488035326E+03  0.22808145053E+03  0.40549186657E+03  0.00000000000E+00 0. -1.
<mgrwt>
<rscale>  0 0.68636599E+03</rscale>
<asrwt>0</asrwt>
<pdfrwt beam="1">  1        1 0.11104776E+00 0.68636599E+03</pdfrwt>
<pdfrwt beam="2">  1       -1 0.25102387E-01 0.68636599E+03</pdfrwt>
<totfact> 0.36553963E+02</totfact>
</mgrwt>
</event>
<event>
 6    1  0.1762360E-005  0.2904636E+04  0.7818608E-02  0.8271499E-01
         -2   -1    0    0    0  501 -0.00000000000E+00  0.00000000000E+00  0.10399931634E+04  0.10399931634E+04  0.00000000000E+00 0.  1.
          2   -1    0    0  501    0  0.00000000000E+00 -0.00000000000E+00 -0.20281167653E+04  0.20281167653E+04  0.00000000000E+00 0. -1.
         23    2    1    2    0    0 -0.11114070257E+03  0.13719670861E+04 -0.11494501159E+02  0.13803746587E+04  0.10322855126E+03 0.  0.
         11    1    3    3    0    0 -0.36478385333E+02  0.77911998614E+03 -0.50239327222E+02  0.78158979996E+03  0.00000000000E+00 0. -1.
        -11    1    3    3    0    0 -0.74662317237E+02  0.59284709993E+03  0.38744826063E+02  0.59878485874E+03  0.00000000000E+00 0.  1.
         22    1    1    2    0    0  0.11114070257E+03 -0.13719670861E+04 -0.97662910072E+03  0.16877352699E+04  0.00000000000E+00 0.  1.
<mgrwt>
<rscale>  0 0.29046360E+04</rscale>
<asrwt>0</asrwt>
<pdfrwt beam="1">  1        2 0.31201796E+00 0.29046360E+04</pdfrwt>
<pdfrwt beam="2">  1       -2 0.15999895E+00 0.29046360E+04</pdfrwt>
<totfact> 0.14006372E+00</totfact>
</mgrwt>
</event>
<event>
 6    1  0.1762360E-005  0.2493598E+04  0.7818608E-02  0.8405270E-01
         -2   -1    0    0    0  501 -0.00000000000E+00  0.00000000000E+00  0.13386518829E+04  0.13386518829E+04  0.00000000000E+00 0.  1.
          2   -1    0    0  501    0  0.00000000000E+00 -0.00000000000E+00 -0.11612488194E+04  0.11612488194E+04  0.00000000000E+00 0. -1.
         23    2    1    2    0    0  0.83463667082E+03 -0.88831371116E+03  0.34370719733E+03  0.12697069426E+04  0.91112352445E+02 0.  0.
         11    1    3    3    0    0  0.59988176411E+03 -0.61624233825E+03  0.20190494710E+03  0.88339026371E+03  0.00000000000E+00 0. -1.
        -11    1    3    3    0    0  0.23475490672E+03 -0.27207137291E+03  0.14180225023E+03  0.38631667884E+03  0.00000000000E+00 0.  1.
         22    1    1    2    0    0 -0.83463667082E+03  0.88831371116E+03 -0.16630413385E+03  0.12301937598E+04  0.00000000000E+00 0. -1.
<mgrwt>
<rscale>  0 0.24935981E+04</rscale>
<asrwt>0</asrwt>
<pdfrwt beam="1">  1        2 0.17865366E+00 0.24935981E+04</pdfrwt>
<pdfrwt beam="2">  1       -2 0.20594644E+00 0.24935981E+04</pdfrwt>
<totfact> 0.21690053E+00</totfact>
</mgrwt>
</event>
<event>
 6    1  0.1762360E-005  0.2755922E+04  0.7818608E-02  0.8317085E-01
         -1   -1    0    0    0  501 -0.00000000000E+00  0.00000000000E+00  0.70594549004E+03  0.70594549004E+03  0.00000000000E+00 0.  1.
          1   -1    0    0  501    0  0.00000000000E+00 -0.00000000000E+00 -0.26896925849E+04  0.26896925849E+04  0.00000000000E+00 0. -1.
         23    2    1    2    0    0 -0.13557034592E+04  0.22456658497E+03 -0.89638280314E+03  0.16432901862E+04  0.92403928451E+02 0.  0.
         11    1    3    3    0    0 -0.82036471197E+03  0.10893769032E+03 -0.58280066663E+03  0.10121868889E+04  0.00000000000E+00 0.  1.
        -11    1    3    3    0    0 -0.53533874721E+03  0.11562889465E+03 -0.31358213651E+03  0.63110329731E+03  0.00000000000E+00 0. -1.
         22    1    1    2    0    0  0.13557034592E+04 -0.22456658497E+03 -0.10873642918E+04  0.17523478888E+04  0.00000000000E+00 0.  1.
<mgrwt>
<rscale>  0 0.27559219E+04</rscale>
<asrwt>0</asrwt>
<pdfrwt beam="1">  1        1 0.41379885E+00 0.27559219E+04</pdfrwt>
<pdfrwt beam="2">  1       -1 0.10860700E+00 0.27559219E+04</pdfrwt>
<totfact> 0.68172902E-01</totfact>
</mgrwt>
</event>
<event>
 6    1  0.1762360E-005  0.2457746E+04  0.7818608E-02  0.8418195E-01
          2   -1    0    0  501    0  0.00000000000E+00  0.00000000000E+00  0.18127912566E+04  0.18127912566E+04  0.00000000000E+00 0. -1.
         -2   -1    0    0    0  501 -0.00000000000E+00 -0.00000000000E+00 -0.83304077271E+03  0.83304077271E+03  0.00000000000E+00 0.  1.
         23    2    1    2    0    0 -0.37238998992E+03  0.29446362015E+03 -0.72766473889E+03  0.87364415237E+03  0.91515051032E+02 0.  0.
         11    1    3    3    0    0 -0.35528271097E+03  0.24924988525E+03 -0.67150552231E+03  0.79954423049E+03  0.00000000000E+00 0. -1.
        -11    1    3    3    0    0 -0.17107278953E+02  0.45213734898E+02 -0.56159216574E+02  0.74099921882E+02  0.00000000000E+00 0.  1.
         22    1    1    2    0    0  0.37238998992E+03 -0.29446362015E+03  0.17074152228E+04  0.17721878769E+04  0.00000000000E+00 0. -1.
<mgrwt>
<rscale>  0 0.24577461E+04</rscale>
<asrwt>0</asrwt>
<pdfrwt beam="1">  1        2 0.27889096E+00 0.24577461E+04</pdfrwt>
<pdfrwt beam="2">  1       -2 0.12816012E+00 0.24577461E+04</pdfrwt>
<totfact> 0.34210626E+00</totfact>
</mgrwt>
</event>
<event>
 6    1  0.1762360E-005  0.1839692E+04  0.7818608E-02  0.8685472E-01
          1   -1    0    0  501    0  0.00000000000E+00  0.00000000000E+00  0.36597690868E+03  0.36597690868E+03  0.00000000000E+00 0. -1.
         -1   -1    0    0    0  501 -0.00000000000E+00 -0.00000000000E+00 -0.23119388375E+04  0.23119388375E+04  0.00000000000E+00 0.  1.
         23    2    1    2    0    0 -0.50780396050E+02 -0.31738969268E+03 -0.22263826282E+04  0.22513590275E+04  0.92320085906E+02 0.  0.
         11    1    3    3    0    0  0.16996614343E+02 -0.17821526978E+03 -0.12607404826E+04  0.12733876597E+04  0.00000000000E+00 0.  1.
        -11    1    3    3    0    0 -0.67777010393E+02 -0.13917442290E+03 -0.96564214554E+03  0.97797136787E+03  0.00000000000E+00 0. -1.
         22    1    1    2    0    0  0.50780396050E+02  0.31738969268E+03  0.28042069931E+03  0.42655671867E+03  0.00000000000E+00 0. -1.
<mgrwt>
<rscale>  0 0.18396915E+04</rscale>
<asrwt>0</asrwt>
<pdfrwt beam="1">  1        1 0.56304139E-01 0.18396915E+04</pdfrwt>
<pdfrwt beam="2">  1       -1 0.35568290E+00 0.18396915E+04</pdfrwt>
<totfact> 0.90658696E-01</totfact>
</mgrwt>
</event>
<event>
 6    1  0.1762360E-005  0.3926285E+04  0.7818608E-02  0.8019585E-01
         -1   -1    0    0    0  501 -0.00000000000E+00  0.00000000000E+00  0.24038899788E+04  0.24038899788E+04  0.00000000000E+00 0.  1.
          1   -1    0    0  501    0  0.00000000000E+00 -0.00000000000E+00 -0.16032047398E+04  0.16032047398E+04  0.00000000000E+00 0. -1.
         23    2    1    2    0    0  0.56418558778E+03 -0.14017318655E+04  0.16779752431E+04  0.22598696754E+04  0.90842903250E+02 0.  0.
         11    1    3    3    0    0  0.16132864308E+03 -0.35684149312E+03  0.38181265126E+03  0.54694029194E+03  0.00000000000E+00 0. -1.
        -11    1    3    3    0    0  0.40285694470E+03 -0.10448903724E+04  0.12961625918E+04  0.17129293835E+04  0.00000000000E+00 0.  1.
         22    1    1    2    0    0 -0.56418558778E+03  0.14017318655E+04 -0.87729000412E+03  0.17472250432E+04  0.00000000000E+00 0. -1.
<mgrwt>
<rscale>  0 0.39262847E+04</rscale>
<asrwt>0</asrwt>
<pdfrwt beam="1">  1        1 0.24664688E+00 0.39262847E+04</pdfrwt>
<pdfrwt beam="2">  1       -1 0.36982923E+00 0.39262847E+04</pdfrwt>
<totfact> 0.50052405E-02</totfact>
</mgrwt>
</event>
<event>
 6    1  0.1762360E-005  0.2057091E+04  0.7818608E-02  0.8580384E-01
         -2   -1    0    0    0  501 -0.00000000000E+00  0.00000000000E+00  0.45538850854E+03  0.45538850854E+03  0.00000000000E+00 0.  1.
          2   -1    0    0  501    0  0.00000000000E+00 -0.00000000000E+00 -0.23230831253E+04  0.23230831253E+04  0.00000000000E+00 0. -1.
         23    2    1    2    0    0 -0.33569609211E+03 -0.39662436873E+03 -0.21314669448E+04  0.21957379064E+04  0.90060317093E+02 0.  0.
         13    1    3    3    0    0 -0.32597690533E+03 -0.39822378578E+03 -0.20470362973E+04  0.21107346420E+04  0.00000000000E+00 0.  1.
        -13    1    3    3    0    0 -0.97191867816E+01  0.15994170466E+01 -0.84430647459E+02  0.85003264390E+02  0.00000000000E+00 0. -1.
         22    1    1    2    0    0  0.33569609211E+03  0.39662436873E+03  0.26377232800E+03  0.58273372748E+03  0.00000000000E+00 0.  1.
<mgrwt>
<rscale>  0 0.20570905E+04</rscale>
<asrwt>0</asrwt>
<pdfrwt beam="1">  1        2 0.35739741E+00 0.20570905E+04</pdfrwt>
<pdfrwt beam="2">  1       -2 0.70059770E-01 0.20570905E+04</pdfrwt>
<totfact> 0.75483766E+00</totfact>
</mgrwt>
</event>
<event>
 6    1  0.1762360E-005  0.1099547E+04  0.7818608E-02  0.9205634E-01
         -1   -1    0    0    0  501 -0.00000000000E+00  0.00000000000E+00  0.30749301597E+03  0.30749301597E+03  0.00000000000E+00 0.  1.
          1   -1    0    0  501    0  0.00000000000E+00 -0.00000000000E+00 -0.98295150393E+03  0.98295150393E+03  0.00000000000E+00 0. -1.
         23    2    1    2    0    0  0.27484275146E+03 -0.43125068486E+03 -0.11633010084E+03  0.53272409356E+03  0.93523132335E+02 0.  0.
         11    1    3    3    0    0  0.11237018747E+03 -0.22126834538E+03 -0.15252515860E+02  0.24863503160E+03  0.00000000000E+00 0.  1.
        -11    1    3    3    0    0  0.16247256398E+03 -0.20998233948E+03 -0.10107758498E+03  0.28408906196E+03  0.00000000000E+00 0. -1.
         22    1    1    2    0    0 -0.27484275146E+03  0.43125068486E+03 -0.55912838712E+03  0.75772042634E+03  0.00000000000E+00 0. -1.
<mgrwt>
<rscale>  0 0.10995467E+04</rscale>
<asrwt>0</asrwt>
<pdfrwt beam="1">  1        1 0.15122331E+00 0.10995467E+04</pdfrwt>
<pdfrwt beam="2">  1       -1 0.47306618E-01 0.10995467E+04</pdfrwt>
<totfact> 0.69298844E+01</totfact>
</mgrwt>
</event>
<event>
 6    1  0.1762360E-005  0.1561504E+04  0.7818608E-02  0.8844553E-01
          2   -1    0    0  501    0  0.00000000000E+00  0.00000000000E+00  0.15965357463E+04  0.15965357463E+04  0.00000000000E+00 0. -1.
         -2   -1    0    0    0  501 -0.00000000000E+00 -0.00000000000E+00 -0.38181006059E+03  0.38181006059E+03  0.00000000000E+00 0.  1.
         23    2    1    2    0    0 -0.44829751975E+02 -0.76741533296E+03  0.46040524232E+03  0.90134286760E+03  0.97519115565E+02 0.  0.
         13    1    3    3    0    0  0.17864129888E+02 -0.30742077027E+03  0.22073000648E+03  0.37887780734E+03  0.00000000000E+00 0. -1.
        -13    1    3    3    0    0 -0.62693881862E+02 -0.45999456269E+03  0.23967523584E+03  0.52246506027E+03  0.00000000000E+00 0.  1.
         22    1    1    2    0    0  0.44829751975E+02  0.76741533296E+03  0.75432044342E+03  0.10770029393E+04  0.00000000000E+00 0. -1.
<mgrwt>
<rscale>  0 0.15615036E+04</rscale>
<asrwt>0</asrwt>
<pdfrwt beam="1">  1        2 0.24562088E+00 0.15615036E+04</pdfrwt>
<pdfrwt beam="2">  1       -2 0.58740010E-01 0.15615036E+04</pdfrwt>
<totfact> 0.29177523E+01</totfact>
</mgrwt>
</event>
<event>
 6    1  0.1762360E-005  0.4131514E+04  0.7818608E-02  0.7978529E-01
          2   -1    0    0  501    0  0.00000000000E+00  0.00000000000E+00  0.14683776733E+04  0.14683776733E+04  0.00000000000E+00 0. -1.
         -2   -1    0    0    0  501 -0.00000000000E+00 -0.00000000000E+00 -0.29061680044E+04  0.29061680044E+04  0.00000000000E+00 0.  1.
         23    2    1    2    0    0 -0.88499500380E+03 -0.10378347257E+04 -0.23601217056E+04  0.27280304973E+04  0.10797617678E+03 0.  0.
         11    1    3    3    0    0 -0.40312677881E+03 -0.39289073417E+03 -0.94780448742E+03  0.11023645836E+04  0.00000000000E+00 0.  1.
        -11    1    3    3    0    0 -0.48186822499E+03 -0.64494399154E+03 -0.14123172181E+04  0.16256659137E+04  0.00000000000E+00 0. -1.
         22    1    1    2    0    0  0.88499500380E+03  0.10378347257E+04  0.92233137444E+03  0.16465151803E+04  0.00000000000E+00 0. -1.
<mgrwt>
<rscale>  0 0.41315141E+04</rscale>
<asrwt>0</asrwt>
<pdfrwt beam="1">  1        2 0.22590426E+00 0.41315141E+04</pdfrwt>
<pdfrwt beam="2">  1       -2 0.44710276E+00 0.41315141E+04</pdfrwt>
<totfact> 0.37464413E-02</totfact>
</mgrwt>
</event>
<event>
 6    1  0.1762360E-005  0.1884955E+04  0.7818608E-02  0.8662382E-01
         -2   -1    0    0    0  501 -0.00000000000E+00  0.00000000000E+00  0.13832877307E+04  0.13832877307E+04  0.00000000000E+00 0.  1.
          2   -1    0    0  501    0  0.00000000000E+00 -0.00000000000E+00 -0.64213947205E+03  0.64213947205E+03  0.00000000000E+00 0. -1.
         23    2    1    2    0    0 -0.12354218611E+03  0.75178625224E+03 -0.21856442361E+03  0.80007269350E+03  0.10909017738E+03 0.  0.
         13    1    3    3    0    0 -0.12509767186E+03  0.43320396297E+03 -0.12030559563E+03  0.46667819467E+03  0.00000000000E+00 0. -1.
        -13    1    3    3    0    0  0.15554857483E+01  0.31858228928E+03 -0.98258827979E+02  0.33339449883E+03  0.00000000000E+00 0.  1.
         22    1    1    2    0    0  0.12354218611E+03 -0.75178625224E+03  0.95971268225E+03  0.12253545092E+04  0.00000000000E+00 0.  1.
<mgrwt>
<rscale>  0 0.18849548E+04</rscale>
<asrwt>0</asrwt>
<pdfrwt beam="1">  1        2 0.98790688E-01 0.18849548E+04</pdfrwt>
<pdfrwt beam="2">  1       -2 0.21281350E+00 0.18849548E+04</pdfrwt>
<totfact> 0.46978157E+00</totfact>
</mgrwt>
</event>
<event>
 6    1  0.1762360E-005  0.1717180E+04  0.7818608E-02  0.8751626E-01
          1   -1    0    0  501    0  0.00000000000E+00  0.00000000000E+00  0.13184517376E+04  0.13184517376E+04  0.00000000000E+00 0. -1.
         -1   -1    0    0    0  501 -0.00000000000E+00 -0.00000000000E+00 -0.55912316920E+03  0.55912316920E+03  0.00000000000E+00 0.  1.
         23    2    1    2    0    0 -0.46976763174E+03  0.36036453445E+03  0.10566506881E+04  0.12150459124E+04  0.96341408090E+02 0.  0.
         13    1    3    3    0    0 -0.11692174914E+03  0.11391057942E+03  0.37361337765E+03  0.40771714642E+03  0.00000000000E+00 0.  1.
        -13    1    3    3    0    0 -0.35284588259E+03  0.24645395503E+03  0.68303731047E+03  0.80732876593E+03  0.00000000000E+00 0. -1.
         22    1    1    2    0    0  0.46976763174E+03 -0.36036453445E+03 -0.29732211976E+03  0.66252899440E+03  0.00000000000E+00 0.  1.
<mgrwt>
<rscale>  0 0.17171801E+04</rscale>
<asrwt>0</asrwt>
<pdfrwt beam="1">  1        1 0.20283873E+00 0.17171801E+04</pdfrwt>
<pdfrwt beam="2">  1       -1 0.86018949E-01 0.17171801E+04</pdfrwt>
<totfact> 0.11124474E+01</totfact>
</mgrwt>
</event>
<event>
 6    1  0.1762360E-005  0.2328891E+04  0.7818608E-02  0.8466616E-01
         -2   -1    0    0    0  501 -0.00000000000E+00  0.00000000000E+00  0.90963787672E+03  0.90963787672E+03  0.00000000000E+00 0.  1.
          2   -1    0    0  501    0  0.00000000000E+00 -0.00000000000E+00 -0.14906298374E+04  0.14906298374E+04  0.00000000000E+00 0. -1.
         23    2    1    2    0    0  0.22411130524E+03  0.98167911228E+03 -0.89019000802E+03  0.13469286476E+04  0.88649731097E+02 0.  0.
         11    1    3    3    0    0  0.15908725487E+03  0.67890081142E+03 -0.56083104410E+03  0.89484441465E+03  0.00000000000E+00 0. -1.
        -11    1    3    3    0    0  0.65024050368E+02  0.30277830086E+03 -0.32935896393E+03  0.45208423299E+03  0.00000000000E+00 0.  1.
         22    1    1    2    0    0 -0.22411130524E+03 -0.98167911228E+03  0.30919804730E+03  0.10533390665E+04  0.00000000000E+00 0.  1.
<mgrwt>
<rscale>  0 0.23288910E+04</rscale>
<asrwt>0</asrwt>
<pdfrwt beam="1">  1        2 0.22932767E+00 0.23288910E+04</pdfrwt>
<pdfrwt beam="2">  1       -2 0.13994429E+00 0.23288910E+04</pdfrwt>
<totfact> 0.41793085E+00</totfact>
</mgrwt>
</event>
<event>
 6    1  0.1762360E-005  0.5103641E+04  0.7818608E-02  0.7812716E-01
          2   -1    0    0  501    0  0.00000000000E+00  0.00000000000E+00  0.44418706216E+04  0.44418706216E+04  0.00000000000E+00 0. -1.
         -2   -1    0    0    0  501 -0.00000000000E+00 -0.00000000000E+00 -0.14660013385E+04  0.14660013385E+04  0.00000000000E+00 0.  1.
         23    2    1    2    0    0 -0.26164038639E+02 -0.13437614780E+04  0.39983160094E+04  0.42191515052E+04  0.91263609165E+02 0.  0.
         13    1    3    3    0    0 -0.26734834917E+02 -0.30195407050E+03  0.10047619313E+04  0.10494939498E+04  0.00000000000E+00 0. -1.
        -13    1    3    3    0    0  0.57079627785E+00 -0.10418074075E+04  0.29935540781E+04  0.31696575554E+04  0.00000000000E+00 0.  1.
         22    1    1    2    0    0  0.26164038639E+02  0.13437614780E+04 -0.10224467263E+04  0.16887204548E+04  0.00000000000E+00 0.  1.
<mgrwt>
<rscale>  0 0.51036412E+04</rscale>
<asrwt>0</asrwt>
<pdfrwt beam="1">  1        2 0.68336471E+00 0.51036412E+04</pdfrwt>
<pdfrwt beam="2">  1       -2 0.22553867E+00 0.51036412E+04</pdfrwt>
<totfact> 0.91394145E-03</totfact>
</mgrwt>
</event>
<event>
 6    1  0.1762360E-005  0.3182616E+04  0.7818608E-02  0.8193423E-01
         -2   -1    0    0    0  501 -0.00000000000E+00  0.00000000000E+00  0.10462575831E+04  0.10462575831E+04  0.00000000000E+00 0.  1.
          2   -1    0    0  501    0  0.00000000000E+00 -0.00000000000E+00 -0.24203041205E+04  0.24203041205E+04  0.00000000000E+00 0. -1.
         23    2    1    2    0    0 -0.49101140093E+03 -0.12579460079E+04  0.22679502540E+03  0.13722326788E+04  0.89811951323E+02 0.  0.
         13    1    3    3    0    0 -0.18103554764E+03 -0.58660702964E+03  0.10520621763E+03  0.62285634376E+03  0.00000000000E+00 0. -1.
        -13    1    3    3    0    0 -0.30997585329E+03 -0.67133897829E+03  0.12158880777E+03  0.74937633507E+03  0.00000000000E+00 0.  1.
         22    1    1    2    0    0  0.49101140093E+03  0.12579460079E+04 -0.16008415628E+04  0.20943290248E+04  0.00000000000E+00 0. -1.
<mgrwt>
<rscale>  0 0.31826162E+04</rscale>
<asrwt>0</asrwt>
<pdfrwt beam="1">  1        2 0.37235448E+00 0.31826162E+04</pdfrwt>
<pdfrwt beam="2">  1       -2 0.16096271E+00 0.31826162E+04</pdfrwt>
<totfact> 0.80862399E-01</totfact>
</mgrwt>
</event>
<event>
 6    1  0.1762360E-005  0.1620489E+04  0.7818608E-02  0.8808059E-01
          1   -1    0    0  501    0  0.00000000000E+00  0.00000000000E+00  0.31988564423E+04  0.31988564423E+04  0.00000000000E+00 0. -1.
         -1   -1    0    0    0  501 -0.00000000000E+00 -0.00000000000E+00 -0.20522831535E+03  0.20522831535E+03  0.00000000000E+00 0.  1.
         23    2    1    2    0    0  0.12142988690E+03  0.51097680314E+03  0.21267285385E+03  0.57396908124E+03  0.91478154145E+02 0.  0.
         13    1    3    3    0    0 -0.78939185809E+01  0.45408411049E+01 -0.12636706902E+01  0.91940226297E+01  0.00000000000E+00 0. -1.
        -13    1    3    3    0    0  0.12932380548E+03  0.50643596203E+03  0.21393652454E+03  0.56477505861E+03  0.00000000000E+00 0.  1.
         22    1    1    2    0    0 -0.12142988690E+03 -0.51097680314E+03  0.27809552731E+04  0.28301156764E+04  0.00000000000E+00 0. -1.
<mgrwt>
<rscale>  0 0.16204887E+04</rscale>
<asrwt>0</asrwt>
<pdfrwt beam="1">  1        1 0.49213172E+00 0.16204887E+04</pdfrwt>
<pdfrwt beam="2">  1       -1 0.31573589E-01 0.16204887E+04</pdfrwt>
<totfact> 0.38284291E+00</totfact>
</mgrwt>
</event>
<event>
 6    1  0.1762360E-005  0.1924601E+04  0.7818608E-02  0.8642707E-01
         -2   -1    0    0    0  501 -0.00000000000E+00  0.00000000000E+00  0.33643522097E+03  0.33643522097E+03  0.00000000000E+00 0.  1.
          2   -1    0    0  501    0  0.00000000000E+00 -0.00000000000E+00 -0.27524544403E+04  0.27524544403E+04  0.00000000000E+00 0. -1.
         23    2    1    2    0    0  0.45150443440E+03 -0.76081854562E+03 -0.61413149784E+03  0.10815280908E+04  0.99218954784E+02 0.  0.
         13    1    3    3    0    0  0.40427255319E+03 -0.70952437032E+03 -0.59109189690E+03  0.10080926346E+04  0.00000000000E+00 0. -1.
        -13    1    3    3    0    0  0.47231881209E+02 -0.51294175298E+02 -0.23039600942E+02  0.73435456243E+02  0.00000000000E+00 0.  1.
         22    1    1    2    0    0 -0.45150443440E+03  0.76081854562E+03 -0.18018877215E+04  0.20073615705E+04  0.00000000000E+00 0. -1.
<mgrwt>
<rscale>  0 0.19246014E+04</rscale>
<asrwt>0</asrwt>
<pdfrwt beam="1">  1        2 0.42345452E+00 0.19246014E+04</pdfrwt>
<pdfrwt beam="2">  1       -2 0.51759265E-01 0.19246014E+04</pdfrwt>
<totfact> 0.81535540E+00</totfact>
</mgrwt>
</event>
<event>
 6    1  0.1762360E-005  0.8966714E+03  0.7818608E-02  0.9429752E-01
          2   -1    0    0  501    0  0.00000000000E+00  0.00000000000E+00  0.10868650747E+04  0.10868650747E+04  0.00000000000E+00 0. -1.
         -2   -1    0    0    0  501 -0.00000000000E+00 -0.00000000000E+00 -0.18494007888E+03  0.18494007888E+03  0.00000000000E+00 0.  1.
         23    2    1    2    0    0 -0.11541051889E+03  0.27054516353E+03  0.92667356611E+03  0.97663272070E+03  0.92592114316E+02 0.  0.
         13    1    3    3    0    0 -0.68755308471E+02  0.18967429281E+03  0.75175664663E+03  0.77835832722E+03  0.00000000000E+00 0. -1.
        -13    1    3    3    0    0 -0.46655210423E+02  0.80870870721E+02  0.17491691948E+03  0.19827439349E+03  0.00000000000E+00 0.  1.
         22    1    1    2    0    0  0.11541051889E+03 -0.27054516353E+03 -0.24748570310E+02  0.29517243285E+03  0.00000000000E+00 0.  1.
<mgrwt>
<rscale>  0 0.89667143E+03</rscale>
<asrwt>0</asrwt>
<pdfrwt beam="1">  1        2 0.16721001E+00 0.89667143E+03</pdfrwt>
<pdfrwt beam="2">  1       -2 0.28452321E-01 0.89667143E+03</pdfrwt>
<totfact> 0.25149427E+02</totfact>
</mgrwt>
</event>
<event>
 6    1  0.1762360E-005  0.2416298E+04  0.7818608E-02  0.8433427E-01
          2   -1    0    0  501    0  0.00000000000E+00  0.00000000000E+00  0.22272490479E+04  0.22272490479E+04  0.00000000000E+00 0.  1.
         -2   -1    0    0    0  501 -0.00000000000E+00 -0.00000000000E+00 -0.65534824430E+03  0.65534824430E+03  0.00000000000E+00 0. -1.
         23    2    1    2    0    0 -0.66834438935E+03 -0.98576343921E+03  0.55750362374E+03  0.13181755398E+04  0.91447703289E+02 0.  0.
         13    1    3    3    0    0 -0.34677342612E+03 -0.43723955955E+03  0.28115617509E+03  0.62488321812E+03  0.00000000000E+00 0. -1.
        -13    1    3    3    0    0 -0.32157096323E+03 -0.54852387966E+03  0.27634744865E+03  0.69329232170E+03  0.00000000000E+00 0.  1.
         22    1    1    2    0    0  0.66834438935E+03  0.98576343921E+03  0.10143971799E+04  0.15644217524E+04  0.00000000000E+00 0.  1.
<mgrwt>
<rscale>  0 0.24162978E+04</rscale>
<asrwt>0</asrwt>
<pdfrwt beam="1">  1        2 0.34265370E+00 0.24162978E+04</pdfrwt>
<pdfrwt beam="2">  1       -2 0.10082281E+00 0.24162978E+04</pdfrwt>
<totfact> 0.36254993E+00</totfact>
</mgrwt>
</event>
<event>
 6    1  0.1762360E-005  0.1305925E+04  0.7818608E-02  0.9024880E-01
          1   -1    0    0  501    0  0.00000000000E+00  0.00000000000E+00  0.19514782176E+04  0.19514782176E+04  0.00000000000E+00 0. -1.
         -1   -1    0    0    0  501 -0.00000000000E+00 -0.00000000000E+00 -0.21848056357E+03  0.21848056357E+03  0.00000000000E+00 0.  1.
         23    2    1    2    0    0  0.18814860437E+03  0.18643028014E+03  0.18565922346E+04  0.18776716500E+04  0.92520012520E+02 0.  0.
         13    1    3    3    0    0  0.18523787351E+02  0.18548053213E+02  0.46692728224E+03  0.46766253632E+03  0.00000000000E+00 0. -1.
        -13    1    3    3    0    0  0.16962481702E+03  0.16788222692E+03  0.13896649524E+04  0.14100091136E+04  0.00000000000E+00 0.  1.
         22    1    1    2    0    0 -0.18814860437E+03 -0.18643028014E+03 -0.12359458064E+03  0.29228713116E+03  0.00000000000E+00 0.  1.
<mgrwt>
<rscale>  0 0.13059251E+04</rscale>
<asrwt>0</asrwt>
<pdfrwt beam="1">  1        1 0.30022741E+00 0.13059251E+04</pdfrwt>
<pdfrwt beam="2">  1       -1 0.33612396E-01 0.13059251E+04</pdfrwt>
<totfact> 0.26366813E+01</totfact>
</mgrwt>
</event>
<event>
 6    1  0.1762360E-005  0.2054832E+04  0.7818608E-02  0.8581405E-01
         -1   -1    0    0    0  501 -0.00000000000E+00  0.00000000000E+00  0.63607093864E+03  0.63607093864E+03  0.00000000000E+00 0.  1.
          1   -1    0    0  501    0  0.00000000000E+00 -0.00000000000E+00 -0.16595382453E+04  0.16595382453E+04  0.00000000000E+00 0. -1.
         23    2    1    2    0    0 -0.80395338565E+03  0.32394696663E+03  0.99213274280E+02  0.87726706360E+03  0.92040988666E+02 0.  0.
         11    1    3    3    0    0 -0.34710245450E+03  0.11530430528E+03  0.81456747281E+02  0.37471375531E+03  0.00000000000E+00 0. -1.
        -11    1    3    3    0    0 -0.45685093115E+03  0.20864266135E+03  0.17756527000E+02  0.50255330829E+03  0.00000000000E+00 0.  1.
         22    1    1    2    0    0  0.80395338565E+03 -0.32394696663E+03 -0.11226805809E+04  0.14183421203E+04  0.00000000000E+00 0. -1.
<mgrwt>
<rscale>  0 0.20548324E+04</rscale>
<asrwt>0</asrwt>
<pdfrwt beam="1">  1        1 0.25531357E+00 0.20548324E+04</pdfrwt>
<pdfrwt beam="2">  1       -1 0.97857070E-01 0.20548324E+04</pdfrwt>
<totfact> 0.46957967E+00</totfact>
</mgrwt>
</event>
<event>
 6    1  0.1762360E-005  0.9890502E+03  0.7818608E-02  0.9320637E-01
          1   -1    0    0  501    0  0.00000000000E+00  0.00000000000E+00  0.75144238781E+03  0.75144238781E+03  0.00000000000E+00 0. -1.
         -1   -1    0    0    0  501 -0.00000000000E+00 -0.00000000000E+00 -0.32544753202E+03  0.32544753202E+03  0.00000000000E+00 0.  1.
         23    2    1    2    0    0 -0.17072627285E+03 -0.16774039970E+03  0.68075142201E+03  0.72733990915E+03  0.91195081771E+02 0.  0.
         13    1    3    3    0    0 -0.14956462538E+03 -0.87798951374E+02  0.46004501346E+03  0.49164992366E+03  0.00000000000E+00 0. -1.
        -13    1    3    3    0    0 -0.21161647471E+02 -0.79941448322E+02  0.22070640855E+03  0.23568998548E+03  0.00000000000E+00 0.  1.
         22    1    1    2    0    0  0.17072627285E+03  0.16774039970E+03 -0.25475656623E+03  0.34955001068E+03  0.00000000000E+00 0.  1.
<mgrwt>
<rscale>  0 0.98905019E+03</rscale>
<asrwt>0</asrwt>
<pdfrwt beam="1">  1        1 0.11560652E+00 0.98905019E+03</pdfrwt>
<pdfrwt beam="2">  1       -1 0.50068851E-01 0.98905019E+03</pdfrwt>
<totfact> 0.98041564E+01</totfact>
</mgrwt>
</event>
<event>
 6    1  0.2266317E-005  0.3840514E+04  0.7818608E-02  0.8037516E-01
         -2   -1    0    0    0  501 -0.00000000000E+00  0.00000000000E+00  0.16631691824E+04  0.16631691824E+04  0.00000000000E+00 0.  1.
          2   -1    0    0  501    0  0.00000000000E+00 -0.00000000000E+00 -0.22170843906E+04  0.22170843906E+04  0.00000000000E+00 0. -1.
         23    2    1    2    0    0  0.14586530432E+04  0.10960815177E+03 -0.15323684656E+04  0.21204088570E+04  0.91093132553E+02 0.  0.
         11    1    3    3    0    0  0.97765914948E+03  0.86473133172E+02 -0.96804514658E+03  0.13785522918E+04  0.00000000000E+00 0. -1.
        -11    1    3    3    0    0  0.48099389377E+03  0.23135018602E+02 -0.56432331904E+03  0.74185656521E+03  0.00000000000E+00 0.  1.
         22    1    1    2    0    0 -0.14586530432E+04 -0.10960815177E+03  0.97845325743E+03  0.17598447160E+04  0.00000000000E+00 0.  1.
<mgrwt>
<rscale>  0 0.38405137E+04</rscale>
<asrwt>0</asrwt>
<pdfrwt beam="1">  1        2 0.34108990E+00 0.38405137E+04</pdfrwt>
<pdfrwt beam="2">  1       -2 0.25587218E+00 0.38405137E+04</pdfrwt>
<totfact> 0.23871558E-01</totfact>
</mgrwt>
</event>
<event>
 6    1  0.1762360E-005  0.3985448E+03  0.7818608E-02  0.1044285E+00
          1   -1    0    0  501    0  0.00000000000E+00  0.00000000000E+00  0.67499416402E+02  0.67499416402E+02  0.00000000000E+00 0. -1.
         -1   -1    0    0    0  501 -0.00000000000E+00 -0.00000000000E+00 -0.58829384463E+03  0.58829384463E+03  0.00000000000E+00 0.  1.
         23    2    1    2    0    0  0.43389938653E+02 -0.10352677995E+02 -0.57598187245E+03  0.58483187211E+03  0.91012837120E+02 0.  0.
         13    1    3    3    0    0  0.11516230417E+02  0.15171263206E+02 -0.48183137128E+03  0.48220769502E+03  0.00000000000E+00 0.  1.
        -13    1    3    3    0    0  0.31873708236E+02 -0.25523941200E+02 -0.94150501175E+02  0.10262417709E+03  0.00000000000E+00 0. -1.
         22    1    1    2    0    0 -0.43389938653E+02  0.10352677995E+02  0.55187444225E+02  0.70961388924E+02  0.00000000000E+00 0. -1.
<mgrwt>
<rscale>  0 0.39854481E+03</rscale>
<asrwt>0</asrwt>
<pdfrwt beam="1">  1        1 0.10384526E-01 0.39854481E+03</pdfrwt>
<pdfrwt beam="2">  1       -1 0.90506745E-01 0.39854481E+03</pdfrwt>
<totfact> 0.76709137E+02</totfact>
</mgrwt>
</event>
<event>
 6    1  0.1762360E-005  0.8240741E+03  0.7818608E-02  0.9525810E-01
          1   -1    0    0  501    0  0.00000000000E+00  0.00000000000E+00  0.78328598459E+03  0.78328598459E+03  0.00000000000E+00 0. -1.
         -1   -1    0    0    0  501 -0.00000000000E+00 -0.00000000000E+00 -0.21674655599E+03  0.21674655599E+03  0.00000000000E+00 0.  1.
         23    2    1    2    0    0 -0.18763499621E+03  0.85087770853E+02  0.71282592903E+03  0.74735377069E+03  0.89275040837E+02 0.  0.
         11    1    3    3    0    0 -0.68637734229E+02  0.78499249315E+01  0.36897206721E+03  0.37538399841E+03  0.00000000000E+00 0.  1.
        -11    1    3    3    0    0 -0.11899726198E+03  0.77237845921E+02  0.34385386182E+03  0.37196977228E+03  0.00000000000E+00 0. -1.
         22    1    1    2    0    0  0.18763499621E+03 -0.85087770853E+02 -0.14628650042E+03  0.25267876990E+03  0.00000000000E+00 0.  1.
<mgrwt>
<rscale>  0 0.82407412E+03</rscale>
<asrwt>0</asrwt>
<pdfrwt beam="1">  1        1 0.12050553E+00 0.82407412E+03</pdfrwt>
<pdfrwt beam="2">  1       -1 0.33345624E-01 0.82407412E+03</pdfrwt>
<totfact> 0.19530327E+02</totfact>
</mgrwt>
</event>
<event>
 6    1  0.1762360E-005  0.4650340E+04  0.7818608E-02  0.7884833E-01
          2   -1    0    0  501    0  0.00000000000E+00  0.00000000000E+00  0.18579505162E+04  0.18579505162E+04  0.00000000000E+00 0. -1.
         -2   -1    0    0    0  501 -0.00000000000E+00 -0.00000000000E+00 -0.29098807348E+04  0.29098807348E+04  0.00000000000E+00 0.  1.
         23    2    1    2    0    0  0.16345384708E+04  0.16056056959E+04 -0.92664316267E+03  0.24731891199E+04  0.91165829748E+02 0.  0.
         11    1    3    3    0    0  0.14643170018E+03  0.12539002763E+03 -0.55058208160E+02  0.20049016967E+03  0.00000000000E+00 0.  1.
        -11    1    3    3    0    0  0.14881067707E+04  0.14802156683E+04 -0.87158495451E+03  0.22726989503E+04  0.00000000000E+00 0. -1.
         22    1    1    2    0    0 -0.16345384708E+04 -0.16056056959E+04 -0.12528705591E+03  0.22946421311E+04  0.00000000000E+00 0. -1.
<mgrwt>
<rscale>  0 0.46503395E+04</rscale>
<asrwt>0</asrwt>
<pdfrwt beam="1">  1        2 0.28583854E+00 0.46503395E+04</pdfrwt>
<pdfrwt beam="2">  1       -2 0.44767396E+00 0.46503395E+04</pdfrwt>
<totfact> 0.21605058E-02</totfact>
</mgrwt>
</event>
<event>
 6    1  0.1762360E-005  0.1268532E+04  0.7818608E-02  0.9054899E-01
          2   -1    0    0  501    0  0.00000000000E+00  0.00000000000E+00  0.23564718738E+04  0.23564718738E+04  0.00000000000E+00 0. -1.
         -2   -1    0    0    0  501 -0.00000000000E+00 -0.00000000000E+00 -0.17071849936E+03  0.17071849936E+03  0.00000000000E+00 0.  1.
         23    2    1    2    0    0  0.55740077414E+03 -0.24998434128E+03  0.78272653761E+03  0.99693807411E+03  0.89648742514E+02 0.  0.
         13    1    3    3    0    0  0.31350958352E+03 -0.16546148045E+03  0.51336168110E+03  0.62386374802E+03  0.00000000000E+00 0.  1.
        -13    1    3    3    0    0  0.24389119062E+03 -0.84522860823E+02  0.26936485651E+03  0.37307432609E+03  0.00000000000E+00 0. -1.
         22    1    1    2    0    0 -0.55740077414E+03  0.24998434128E+03  0.14030268368E+04  0.15302522991E+04  0.00000000000E+00 0. -1.
<mgrwt>
<rscale>  0 0.12685320E+04</rscale>
<asrwt>0</asrwt>
<pdfrwt beam="1">  1        2 0.36253411E+00 0.12685320E+04</pdfrwt>
<pdfrwt beam="2">  1       -2 0.26264386E-01 0.12685320E+04</pdfrwt>
<totfact> 0.54427488E+01</totfact>
</mgrwt>
</event>
<event>
 6    1  0.1912066E-005  0.3418437E+04  0.7818608E-02  0.8133396E-01
         -1   -1    0    0    0  501 -0.00000000000E+00  0.00000000000E+00  0.22853595709E+04  0.22853595709E+04  0.00000000000E+00 0. -1.
          1   -1    0    0  501    0  0.00000000000E+00 -0.00000000000E+00 -0.12783229764E+04  0.12783229764E+04  0.00000000000E+00 0.  1.
         23    2    1    2    0    0 -0.16202014600E+04 -0.20597540409E+03 -0.17202771569E+02  0.16358482917E+04  0.90692116714E+02 0.  0.
         11    1    3    3    0    0 -0.54002234274E+03 -0.71085863547E+02  0.36954380729E+02  0.54593310663E+03  0.00000000000E+00 0. -1.
        -11    1    3    3    0    0 -0.10801791173E+04 -0.13488954054E+03 -0.54157152298E+02  0.10899151851E+04  0.00000000000E+00 0.  1.
         22    1    1    2    0    0  0.16202014600E+04  0.20597540409E+03  0.10242393660E+04  0.19278342556E+04  0.00000000000E+00 0. -1.
<mgrwt>
<rscale>  0 0.34184369E+04</rscale>
<asrwt>0</asrwt>
<pdfrwt beam="1">  1        1 0.19666507E+00 0.34184369E+04</pdfrwt>
<pdfrwt beam="2">  1       -1 0.35159378E+00 0.34184369E+04</pdfrwt>
<totfact> 0.11672608E-01</totfact>
</mgrwt>
</event>
<event>
 6    1  0.1762360E-005  0.2576884E+04  0.7818608E-02  0.8376096E-01
          1   -1    0    0  501    0  0.00000000000E+00  0.00000000000E+00  0.18027784658E+04  0.18027784658E+04  0.00000000000E+00 0. -1.
         -1   -1    0    0    0  501 -0.00000000000E+00 -0.00000000000E+00 -0.92084644620E+03  0.92084644620E+03  0.00000000000E+00 0.  1.
         23    2    1    2    0    0 -0.51512397905E+03 -0.24898561049E+03 -0.77690235459E+03  0.96889472504E+03  0.88505206703E+02 0.  0.
         11    1    3    3    0    0 -0.67548247829E+02 -0.64449143907E+02 -0.15228886260E+03  0.17862910067E+03  0.00000000000E+00 0. -1.
        -11    1    3    3    0    0 -0.44757573122E+03 -0.18453646659E+03 -0.62461349200E+03  0.79026562437E+03  0.00000000000E+00 0.  1.
         22    1    1    2    0    0  0.51512397905E+03  0.24898561049E+03  0.16588343742E+04  0.17547301870E+04  0.00000000000E+00 0. -1.
<mgrwt>
<rscale>  0 0.25768835E+04</rscale>
<asrwt>0</asrwt>
<pdfrwt beam="1">  1        1 0.27735053E+00 0.25768835E+04</pdfrwt>
<pdfrwt beam="2">  1       -1 0.14166868E+00 0.25768835E+04</pdfrwt>
<totfact> 0.14544396E+00</totfact>
</mgrwt>
</event>
<event>
 6    1  0.1762360E-005  0.1675961E+04  0.7818608E-02  0.8775195E-01
          2   -1    0    0  501    0  0.00000000000E+00  0.00000000000E+00  0.90384659715E+03  0.90384659715E+03  0.00000000000E+00 0. -1.
         -2   -1    0    0    0  501 -0.00000000000E+00 -0.00000000000E+00 -0.77691417102E+03  0.77691417102E+03  0.00000000000E+00 0.  1.
         23    2    1    2    0    0 -0.24315901377E+03  0.61411463009E+03 -0.44955754289E+03  0.80406026672E+03  0.90265404629E+02 0.  0.
         13    1    3    3    0    0 -0.70878786209E+02  0.20637359094E+03 -0.19955411999E+03  0.29569529617E+03  0.00000000000E+00 0.  1.
        -13    1    3    3    0    0 -0.17228022756E+03  0.40774103915E+03 -0.25000342290E+03  0.50836497054E+03  0.00000000000E+00 0. -1.
         22    1    1    2    0    0  0.24315901377E+03 -0.61411463009E+03  0.57648996902E+03  0.87670050145E+03  0.00000000000E+00 0. -1.
<mgrwt>
<rscale>  0 0.16759609E+04</rscale>
<asrwt>0</asrwt>
<pdfrwt beam="1">  1        2 0.13905332E+00 0.16759609E+04</pdfrwt>
<pdfrwt beam="2">  1       -2 0.11952526E+00 0.16759609E+04</pdfrwt>
<totfact> 0.14900804E+01</totfact>
</mgrwt>
</event>
<event>
 6    1  0.1762360E-005  0.3763177E+04  0.7818608E-02  0.8054103E-01
         -1   -1    0    0    0  501 -0.00000000000E+00  0.00000000000E+00  0.10909960353E+04  0.10909960353E+04  0.00000000000E+00 0.  1.
          1   -1    0    0  501    0  0.00000000000E+00 -0.00000000000E+00 -0.32450860024E+04  0.32450860024E+04  0.00000000000E+00 0. -1.
         23    2    1    2    0    0 -0.13458977222E+04 -0.11325409594E+04 -0.18442406936E+04  0.25499979759E+04  0.84712679698E+02 0.  0.
         11    1    3    3    0    0 -0.54023896942E+02 -0.51082494207E+02 -0.10378959452E+03  0.12767256003E+03  0.00000000000E+00 0. -1.
        -11    1    3    3    0    0 -0.12918738252E+04 -0.10814584652E+04 -0.17404510991E+04  0.24223254159E+04  0.00000000000E+00 0.  1.
         22    1    1    2    0    0  0.13458977222E+04  0.11325409594E+04 -0.30984927354E+03  0.17860840617E+04  0.00000000000E+00 0.  1.
<mgrwt>
<rscale>  0 0.37631774E+04</rscale>
<asrwt>0</asrwt>
<pdfrwt beam="1">  1        1 0.49924399E+00 0.37631774E+04</pdfrwt>
<pdfrwt beam="2">  1       -1 0.16784555E+00 0.37631774E+04</pdfrwt>
<totfact> 0.79994165E-02</totfact>
</mgrwt>
</event>
<event>
 6    1  0.1762360E-005  0.1131299E+04  0.7818608E-02  0.9175212E-01
         -1   -1    0    0    0  501 -0.00000000000E+00  0.00000000000E+00  0.47776891188E+03  0.47776891188E+03  0.00000000000E+00 0.  1.
          1   -1    0    0  501    0  0.00000000000E+00 -0.00000000000E+00 -0.66969465719E+03  0.66969465719E+03  0.00000000000E+00 0. -1.
         23    2    1    2    0    0 -0.22712385809E+03  0.49862466023E+03 -0.22464603616E+03  0.59857157957E+03  0.87237008250E+02 0.  0.
         11    1    3    3    0    0 -0.61045332602E+02  0.15580916969E+03 -0.27273919628E+02  0.16954909815E+03  0.00000000000E+00 0.  1.
        -11    1    3    3    0    0 -0.16607852548E+03  0.34281549054E+03 -0.19737211653E+03  0.42902248142E+03  0.00000000000E+00 0. -1.
         22    1    1    2    0    0  0.22712385809E+03 -0.49862466023E+03  0.32720290845E+02  0.54889198950E+03  0.00000000000E+00 0.  1.
<mgrwt>
<rscale>  0 0.11312989E+04</rscale>
<asrwt>0</asrwt>
<pdfrwt beam="1">  1        1 0.10302995E+00 0.11312989E+04</pdfrwt>
<pdfrwt beam="2">  1       -1 0.73502909E-01 0.11312989E+04</pdfrwt>
<totfact> 0.54042352E+01</totfact>
</mgrwt>
</event>
<event>
 6    1  0.1762360E-005  0.2579958E+04  0.7818608E-02  0.8375041E-01
          2   -1    0    0  501    0  0.00000000000E+00  0.00000000000E+00  0.20815472670E+04  0.20815472670E+04  0.00000000000E+00 0. -1.
         -2   -1    0    0    0  501 -0.00000000000E+00 -0.00000000000E+00 -0.79942704731E+03  0.79942704731E+03  0.00000000000E+00 0.  1.
         23    2    1    2    0    0  0.27528144957E+03 -0.40944365903E+03  0.19708904185E+04  0.20337267867E+04  0.90617961819E+02 0.  0.
         13    1    3    3    0    0  0.66865316275E+02 -0.15759612575E+03  0.79631119199E+03  0.81450538602E+03  0.00000000000E+00 0. -1.
        -13    1    3    3    0    0  0.20841613329E+03 -0.25184753328E+03  0.11745792265E+04  0.12192214007E+04  0.00000000000E+00 0.  1.
         22    1    1    2    0    0 -0.27528144957E+03  0.40944365903E+03 -0.68877019874E+03  0.84724752763E+03  0.00000000000E+00 0.  1.
<mgrwt>
<rscale>  0 0.25799575E+04</rscale>
<asrwt>0</asrwt>
<pdfrwt beam="1">  1        2 0.32023804E+00 0.25799575E+04</pdfrwt>
<pdfrwt beam="2">  1       -2 0.12298878E+00 0.25799575E+04</pdfrwt>
<totfact> 0.26622872E+00</totfact>
</mgrwt>
</event>
<event>
 6    1  0.1762360E-005  0.3815208E+03  0.7818608E-02  0.1050373E+00
          2   -1    0    0  501    0  0.00000000000E+00  0.00000000000E+00  0.19254590711E+03  0.19254590711E+03  0.00000000000E+00 0. -1.
         -2   -1    0    0    0  501 -0.00000000000E+00 -0.00000000000E+00 -0.18899146412E+03  0.18899146412E+03  0.00000000000E+00 0.  1.
         23    2    1    2    0    0  0.11282133798E+03  0.13271193268E+03  0.47076795542E+02  0.20199543588E+03  0.90800991514E+02 0.  0.
         11    1    3    3    0    0  0.45695248020E+02  0.11848109369E+03  0.21660704107E+02  0.12882162612E+03  0.00000000000E+00 0.  1.
        -11    1    3    3    0    0  0.67126089955E+02  0.14230838988E+02  0.25416091435E+02  0.73173809760E+02  0.00000000000E+00 0. -1.
         22    1    1    2    0    0 -0.11282133798E+03 -0.13271193268E+03 -0.43522352558E+02  0.17954193535E+03  0.00000000000E+00 0. -1.
<mgrwt>
<rscale>  0 0.38152081E+03</rscale>
<asrwt>0</asrwt>
<pdfrwt beam="1">  1        2 0.29622447E-01 0.38152081E+03</pdfrwt>
<pdfrwt beam="2">  1       -2 0.29075610E-01 0.38152081E+03</pdfrwt>
<totfact> 0.19379462E+03</totfact>
</mgrwt>
</event>
<event>
 6    1  0.1762360E-005  0.3245222E+04  0.7818608E-02  0.8176975E-01
         -2   -1    0    0    0  501 -0.00000000000E+00  0.00000000000E+00  0.20995314237E+04  0.20995314237E+04  0.00000000000E+00 0.  1.
          2   -1    0    0  501    0  0.00000000000E+00 -0.00000000000E+00 -0.12540256118E+04  0.12540256118E+04  0.00000000000E+00 0. -1.
         23    2    1    2    0    0  0.99130239388E+02 -0.94393857650E+03  0.17814772862E+04  0.20205568700E+04  0.90232494677E+02 0.  0.
         13    1    3    3    0    0  0.37842425944E+02 -0.61498498129E+03  0.12249068235E+04  0.13711437936E+04  0.00000000000E+00 0.  1.
        -13    1    3    3    0    0  0.61287813444E+02 -0.32895359521E+03  0.55657046271E+03  0.64941307643E+03  0.00000000000E+00 0. -1.
         22    1    1    2    0    0 -0.99130239388E+02  0.94393857650E+03 -0.93597147431E+03  0.13330001655E+04  0.00000000000E+00 0. -1.
<mgrwt>
<rscale>  0 0.32452218E+04</rscale>
<asrwt>0</asrwt>
<pdfrwt beam="1">  1        2 0.19292702E+00 0.32452218E+04</pdfrwt>
<pdfrwt beam="2">  1       -2 0.32300483E+00 0.32452218E+04</pdfrwt>
<totfact> 0.33848011E-01</totfact>
</mgrwt>
</event>
<event>
 6    1  0.1762360E-005  0.1348210E+04  0.7818608E-02  0.8992184E-01
         -2   -1    0    0    0  501 -0.00000000000E+00  0.00000000000E+00  0.34307434291E+03  0.34307434291E+03  0.00000000000E+00 0. -1.
          2   -1    0    0  501    0  0.00000000000E+00 -0.00000000000E+00 -0.13245454105E+04  0.13245454105E+04  0.00000000000E+00 0.  1.
         23    2    1    2    0    0 -0.23594889949E+01  0.19727410353E+03 -0.12862380118E+04  0.13045694410E+04  0.92577341830E+02 0.  0.
         13    1    3    3    0    0 -0.45023561356E+02  0.68412842455E+02 -0.51704069205E+03  0.52348688171E+03  0.00000000000E+00 0.  1.
        -13    1    3    3    0    0  0.42664072361E+02  0.12886126107E+03 -0.76919731975E+03  0.78108255927E+03  0.00000000000E+00 0. -1.
         22    1    1    2    0    0  0.23594889949E+01 -0.19727410353E+03  0.30476694418E+03  0.36305031246E+03  0.00000000000E+00 0. -1.
<mgrwt>
<rscale>  0 0.13482100E+04</rscale>
<asrwt>0</asrwt>
<pdfrwt beam="1">  1        2 0.20377622E+00 0.13482100E+04</pdfrwt>
<pdfrwt beam="2">  1       -2 0.52780667E-01 0.13482100E+04</pdfrwt>
<totfact> 0.52903068E+01</totfact>
</mgrwt>
</event>
<event>
 6    1  0.1762360E-005  0.2550237E+04  0.7818608E-02  0.8385304E-01
          2   -1    0    0  501    0  0.00000000000E+00  0.00000000000E+00  0.20482324412E+04  0.20482324412E+04  0.00000000000E+00 0. -1.
         -2   -1    0    0    0  501 -0.00000000000E+00 -0.00000000000E+00 -0.79381994036E+03  0.79381994036E+03  0.00000000000E+00 0.  1.
         23    2    1    2    0    0  0.62029582690E+03 -0.37831273138E+03 -0.53756320868E+03  0.90838633514E+03  0.91126806963E+02 0.  0.
         13    1    3    3    0    0  0.32696662345E+03 -0.19690210672E+03 -0.22578955346E+03  0.44346198815E+03  0.00000000000E+00 0.  1.
        -13    1    3    3    0    0  0.29332920345E+03 -0.18141062466E+03 -0.31177365521E+03  0.46492434699E+03  0.00000000000E+00 0. -1.
         22    1    1    2    0    0 -0.62029582690E+03  0.37831273138E+03  0.17919757095E+04  0.19336660464E+04  0.00000000000E+00 0. -1.
<mgrwt>
<rscale>  0 0.25502374E+04</rscale>
<asrwt>0</asrwt>
<pdfrwt beam="1">  1        2 0.31511268E+00 0.25502374E+04</pdfrwt>
<pdfrwt beam="2">  1       -2 0.12212615E+00 0.25502374E+04</pdfrwt>
<totfact> 0.28350812E+00</totfact>
</mgrwt>
</event>
<event>
 6    1  0.1762360E-005  0.2783157E+04  0.7818608E-02  0.8308517E-01
         -1   -1    0    0    0  501 -0.00000000000E+00  0.00000000000E+00  0.21628450952E+04  0.21628450952E+04  0.00000000000E+00 0.  1.
          1   -1    0    0  501    0  0.00000000000E+00 -0.00000000000E+00 -0.89534398911E+03  0.89534398911E+03  0.00000000000E+00 0. -1.
         23    2    1    2    0    0 -0.91455822740E+03  0.10351212969E+04  0.80578512530E+03  0.16017981692E+04  0.92600519252E+02 0.  0.
         13    1    3    3    0    0 -0.42420928801E+03  0.49016007933E+03  0.43116769447E+03  0.77853452342E+03  0.00000000000E+00 0. -1.
        -13    1    3    3    0    0 -0.49034893939E+03  0.54496121757E+03  0.37461743083E+03  0.82326364580E+03  0.00000000000E+00 0.  1.
         22    1    1    2    0    0  0.91455822740E+03 -0.10351212969E+04  0.46171598079E+03  0.14563909151E+04  0.00000000000E+00 0.  1.
<mgrwt>
<rscale>  0 0.27831567E+04</rscale>
<asrwt>0</asrwt>
<pdfrwt beam="1">  1        1 0.13774523E+00 0.27831567E+04</pdfrwt>
<pdfrwt beam="2">  1       -1 0.33274540E+00 0.27831567E+04</pdfrwt>
<totfact> 0.32140797E-01</totfact>
</mgrwt>
</event>
<event>
 6    1  0.1762360E-005  0.1690112E+04  0.7818608E-02  0.8767024E-01
         -2   -1    0    0    0  501 -0.00000000000E+00  0.00000000000E+00  0.20621650016E+03  0.20621650016E+03  0.00000000000E+00 0.  1.
          2   -1    0    0  501    0  0.00000000000E+00 -0.00000000000E+00 -0.34629605948E+04  0.34629605948E+04  0.00000000000E+00 0. -1.
         23    2    1    2    0    0  0.25481303574E+03  0.66320389198E+03 -0.26156208123E+04  0.27121984386E+04  0.98889085321E+02 0.  0.
         11    1    3    3    0    0  0.13104644688E+03  0.32687251440E+03 -0.11106322088E+04  0.11651277677E+04  0.00000000000E+00 0. -1.
        -11    1    3    3    0    0  0.12376658886E+03  0.33633137758E+03 -0.15049886035E+04  0.15470706709E+04  0.00000000000E+00 0.  1.
         22    1    1    2    0    0 -0.25481303574E+03 -0.66320389198E+03 -0.64112328235E+03  0.95697865634E+03  0.00000000000E+00 0.  1.
<mgrwt>
<rscale>  0 0.16901120E+04</rscale>
<asrwt>0</asrwt>
<pdfrwt beam="1">  1        2 0.53276313E+00 0.16901120E+04</pdfrwt>
<pdfrwt beam="2">  1       -2 0.31725617E-01 0.16901120E+04</pdfrwt>
<totfact> 0.76597272E+00</totfact>
</mgrwt>
</event>
<event>
 6    1  0.1762360E-005  0.2176668E+04  0.7818608E-02  0.8528203E-01
         -2   -1    0    0    0  501 -0.00000000000E+00  0.00000000000E+00  0.55739187409E+03  0.55739187409E+03  0.00000000000E+00 0.  1.
          2   -1    0    0  501    0  0.00000000000E+00 -0.00000000000E+00 -0.21250234907E+04  0.21250234907E+04  0.00000000000E+00 0. -1.
         23    2    1    2    0    0  0.96113741765E+03  0.31809614940E+03 -0.30058510008E+03  0.10605716082E+04  0.97418877763E+02 0.  0.
         13    1    3    3    0    0  0.68645449801E+03  0.23779087992E+03 -0.25963450299E+03  0.77147544067E+03  0.00000000000E+00 0. -1.
        -13    1    3    3    0    0  0.27468291964E+03  0.80305269482E+02 -0.40950597092E+02  0.28909616748E+03  0.00000000000E+00 0.  1.
         22    1    1    2    0    0 -0.96113741765E+03 -0.31809614940E+03 -0.12670465165E+04  0.16218437566E+04  0.00000000000E+00 0. -1.
<mgrwt>
<rscale>  0 0.21766679E+04</rscale>
<asrwt>0</asrwt>
<pdfrwt beam="1">  1        2 0.32692669E+00 0.21766679E+04</pdfrwt>
<pdfrwt beam="2">  1       -2 0.85752596E-01 0.21766679E+04</pdfrwt>
<totfact> 0.61522615E+00</totfact>
</mgrwt>
</event>
<event>
 6    1  0.1762360E-005  0.2389734E+04  0.7818608E-02  0.8443357E-01
         -1   -1    0    0    0  501 -0.00000000000E+00  0.00000000000E+00  0.93439578590E+03  0.93439578590E+03  0.00000000000E+00 0.  1.
          1   -1    0    0  501    0  0.00000000000E+00 -0.00000000000E+00 -0.15279465379E+04  0.15279465379E+04  0.00000000000E+00 0. -1.
         23    2    1    2    0    0 -0.91663741917E+03 -0.55938200778E+03  0.23861009241E+03  0.11038048529E+04  0.91203005478E+02 0.  0.
         13    1    3    3    0    0 -0.42061169220E+03 -0.23777708385E+03  0.63954949372E+02  0.48738318885E+03  0.00000000000E+00 0. -1.
        -13    1    3    3    0    0 -0.49602572698E+03 -0.32160492392E+03  0.17465514304E+03  0.61642166404E+03  0.00000000000E+00 0.  1.
         22    1    1    2    0    0  0.91663741917E+03  0.55938200778E+03 -0.83216084436E+03  0.13585374709E+04  0.00000000000E+00 0. -1.
<mgrwt>
<rscale>  0 0.23897337E+04</rscale>
<asrwt>0</asrwt>
<pdfrwt beam="1">  1        1 0.23506870E+00 0.23897337E+04</pdfrwt>
<pdfrwt beam="2">  1       -1 0.14375320E+00 0.23897337E+04</pdfrwt>
<totfact> 0.21938053E+00</totfact>
</mgrwt>
</event>
<event>
 6    1  0.1762360E-005  0.1520947E+04  0.7818608E-02  0.8870641E-01
         -1   -1    0    0    0  501 -0.00000000000E+00  0.00000000000E+00  0.70235345508E+03  0.70235345508E+03  0.00000000000E+00 0.  1.
          1   -1    0    0  501    0  0.00000000000E+00 -0.00000000000E+00 -0.82340336248E+03  0.82340336248E+03  0.00000000000E+00 0. -1.
         23    2    1    2    0    0  0.46328716270E+03  0.53049150126E+03  0.21920642483E+03  0.74356080655E+03  0.93674907619E+02 0.  0.
         13    1    3    3    0    0  0.39446726004E+03  0.39535094056E+03  0.18221450300E+03  0.58745970972E+03  0.00000000000E+00 0.  1.
        -13    1    3    3    0    0  0.68819902653E+02  0.13514056071E+03  0.36991921825E+02  0.15610109682E+03  0.00000000000E+00 0. -1.
         22    1    1    2    0    0 -0.46328716270E+03 -0.53049150126E+03 -0.34025633223E+03  0.78219601102E+03  0.00000000000E+00 0. -1.
<mgrwt>
<rscale>  0 0.15209473E+04</rscale>
<asrwt>0</asrwt>
<pdfrwt beam="1">  1        1 0.12667744E+00 0.15209473E+04</pdfrwt>
<pdfrwt beam="2">  1       -1 0.10805438E+00 0.15209473E+04</pdfrwt>
<totfact> 0.16226414E+01</totfact>
</mgrwt>
</event>
<event>
 6    1  0.1762360E-005  0.3378424E+04  0.7818608E-02  0.8143222E-01
          2   -1    0    0  501    0  0.00000000000E+00  0.00000000000E+00  0.14514703662E+04  0.14514703662E+04  0.00000000000E+00 0. -1.
         -2   -1    0    0    0  501 -0.00000000000E+00 -0.00000000000E+00 -0.19658942979E+04  0.19658942979E+04  0.00000000000E+00 0.  1.
         23    2    1    2    0    0  0.35887621155E+03  0.91616292576E+03 -0.16445960276E+04  0.19188869005E+04  0.96354561224E+02 0.  0.
         13    1    3    3    0    0  0.65055021437E+02  0.23139609854E+03 -0.33807323182E+03  0.41481299438E+03  0.00000000000E+00 0. -1.
        -13    1    3    3    0    0  0.29382119011E+03  0.68476682721E+03 -0.13065227957E+04  0.15040739062E+04  0.00000000000E+00 0.  1.
         22    1    1    2    0    0 -0.35887621155E+03 -0.91616292576E+03  0.11301720958E+04  0.14984777636E+04  0.00000000000E+00 0. -1.
<mgrwt>
<rscale>  0 0.33784241E+04</rscale>
<asrwt>0</asrwt>
<pdfrwt beam="1">  1        2 0.22330313E+00 0.33784241E+04</pdfrwt>
<pdfrwt beam="2">  1       -2 0.30244527E+00 0.33784241E+04</pdfrwt>
<totfact> 0.34458891E-01</totfact>
</mgrwt>
</event>
<event>
 6    1  0.1762360E-005  0.2970674E+04  0.7818608E-02  0.8252155E-01
         -2   -1    0    0    0  501 -0.00000000000E+00  0.00000000000E+00  0.93447354123E+03  0.93447354123E+03  0.00000000000E+00 0.  1.
          2   -1    0    0  501    0  0.00000000000E+00 -0.00000000000E+00 -0.23609287288E+04  0.23609287288E+04  0.00000000000E+00 0. -1.
         23    2    1    2    0    0  0.42522414848E+03 -0.13380511871E+04 -0.12469144642E+04  0.18799760349E+04  0.91201178437E+02 0.  0.
         11    1    3    3    0    0  0.36932431878E+02 -0.14432079051E+03 -0.98280541606E+02  0.17847005339E+03  0.00000000000E+00 0.  1.
        -11    1    3    3    0    0  0.38829171660E+03 -0.11937303966E+04 -0.11486339226E+04  0.17015059815E+04  0.00000000000E+00 0. -1.
         22    1    1    2    0    0 -0.42522414848E+03  0.13380511871E+04 -0.17954072331E+03  0.14154262351E+04  0.00000000000E+00 0.  1.
<mgrwt>
<rscale>  0 0.29706736E+04</rscale>
<asrwt>0</asrwt>
<pdfrwt beam="1">  1        2 0.36321980E+00 0.29706736E+04</pdfrwt>
<pdfrwt beam="2">  1       -2 0.14376516E+00 0.29706736E+04</pdfrwt>
<totfact> 0.12034253E+00</totfact>
</mgrwt>
</event>
<event>
 6    1  0.1762360E-005  0.4082234E+04  0.7818608E-02  0.7988160E-01
          2   -1    0    0  501    0  0.00000000000E+00  0.00000000000E+00  0.26642672199E+04  0.26642672199E+04  0.00000000000E+00 0. -1.
         -2   -1    0    0    0  501 -0.00000000000E+00 -0.00000000000E+00 -0.15637161185E+04  0.15637161185E+04  0.00000000000E+00 0.  1.
         23    2    1    2    0    0 -0.13556807875E+04  0.12820136280E+04  0.14050110811E+04  0.23374476421E+04  0.90421246495E+02 0.  0.
         13    1    3    3    0    0 -0.26341248159E+03  0.20181158151E+03  0.24526398130E+03  0.41263600232E+03  0.00000000000E+00 0.  1.
        -13    1    3    3    0    0 -0.10922683059E+04  0.10802020464E+04  0.11597470998E+04  0.19248116398E+04  0.00000000000E+00 0. -1.
         22    1    1    2    0    0  0.13556807875E+04 -0.12820136280E+04 -0.30445997964E+03  0.18905356963E+04  0.00000000000E+00 0.  1.
<mgrwt>
<rscale>  0 0.40822335E+04</rscale>
<asrwt>0</asrwt>
<pdfrwt beam="1">  1        2 0.40988726E+00 0.40822335E+04</pdfrwt>
<pdfrwt beam="2">  1       -2 0.24057171E+00 0.40822335E+04</pdfrwt>
<totfact> 0.16055066E-01</totfact>
</mgrwt>
</event>
<event>
 6    1  0.1762360E-005  0.1188121E+04  0.7818608E-02  0.9123319E-01
          2   -1    0    0  501    0  0.00000000000E+00  0.00000000000E+00  0.35463180379E+04  0.35463180379E+04  0.00000000000E+00 0.  1.
         -2   -1    0    0    0  501 -0.00000000000E+00 -0.00000000000E+00 -0.99513807327E+02  0.99513807327E+02  0.00000000000E+00 0. -1.
         23    2    1    2    0    0 -0.42720340096E+03  0.23781950004E+03  0.71859038379E+03  0.87415155086E+03  0.93316310505E+02 0.  0.
         13    1    3    3    0    0 -0.93453628907E+02  0.99056406034E+02  0.20577401572E+03  0.24675635327E+03  0.00000000000E+00 0. -1.
        -13    1    3    3    0    0 -0.33374977205E+03  0.13876309401E+03  0.51281636808E+03  0.62739519760E+03  0.00000000000E+00 0.  1.
         22    1    1    2    0    0  0.42720340096E+03 -0.23781950004E+03  0.27282138467E+04  0.27716802943E+04  0.00000000000E+00 0.  1.
<mgrwt>
<rscale>  0 0.11881205E+04</rscale>
<asrwt>0</asrwt>
<pdfrwt beam="1">  1        2 0.54558729E+00 0.11881205E+04</pdfrwt>
<pdfrwt beam="2">  1       -2 0.15309819E-01 0.11881205E+04</pdfrwt>
<totfact> 0.25965554E+01</totfact>
</mgrwt>
</event>
<event>
 6    1  0.1762360E-005  0.2338528E+04  0.7818608E-02  0.8462883E-01
         -1   -1    0    0    0  501 -0.00000000000E+00  0.00000000000E+00  0.79231467789E+03  0.79231467789E+03  0.00000000000E+00 0.  1.
          1   -1    0    0  501    0  0.00000000000E+00 -0.00000000000E+00 -0.17255501046E+04  0.17255501046E+04  0.00000000000E+00 0. -1.
         23    2    1    2    0    0 -0.70245366017E+03 -0.73622711169E+03 -0.10836370842E+04  0.14892287131E+04  0.89784881637E+02 0.  0.
         13    1    3    3    0    0 -0.55464026062E+03 -0.61093819700E+03 -0.91771670775E+03  0.12341293510E+04  0.00000000000E+00 0. -1.
        -13    1    3    3    0    0 -0.14781339955E+03 -0.12528891469E+03 -0.16592037644E+03  0.25509936211E+03  0.00000000000E+00 0.  1.
         22    1    1    2    0    0  0.70245366017E+03  0.73622711169E+03  0.15040165750E+03  0.10286360694E+04  0.00000000000E+00 0.  1.
<mgrwt>
<rscale>  0 0.23385283E+04</rscale>
<asrwt>0</asrwt>
<pdfrwt beam="1">  1        1 0.26546925E+00 0.23385283E+04</pdfrwt>
<pdfrwt beam="2">  1       -1 0.12189457E+00 0.23385283E+04</pdfrwt>
<totfact> 0.24567446E+00</totfact>
</mgrwt>
</event>
<event>
 6    1  0.1762360E-005  0.4656275E+04  0.7818608E-02  0.7883835E-01
          2   -1    0    0  501    0  0.00000000000E+00  0.00000000000E+00  0.28706417756E+04  0.28706417756E+04  0.00000000000E+00 0. -1.
         -2   -1    0    0    0  501 -0.00000000000E+00 -0.00000000000E+00 -0.18881577418E+04  0.18881577418E+04  0.00000000000E+00 0.  1.
         23    2    1    2    0    0 -0.13525966570E+04  0.12970967505E+04 -0.91885200645E+03  0.20891447767E+04  0.90880096079E+02 0.  0.
         13    1    3    3    0    0 -0.94605853807E+03  0.91110830289E+03 -0.59732033177E+03  0.14428917755E+04  0.00000000000E+00 0.  1.
        -13    1    3    3    0    0 -0.40653811892E+03  0.38598844759E+03 -0.32153167468E+03  0.64625300125E+03  0.00000000000E+00 0. -1.
         22    1    1    2    0    0  0.13525966570E+04 -0.12970967505E+04  0.19013360402E+04  0.26696547407E+04  0.00000000000E+00 0. -1.
<mgrwt>
<rscale>  0 0.46562751E+04</rscale>
<asrwt>0</asrwt>
<pdfrwt beam="1">  1        2 0.44163720E+00 0.46562751E+04</pdfrwt>
<pdfrwt beam="2">  1       -2 0.29048580E+00 0.46562751E+04</pdfrwt>
<totfact> 0.56926760E-02</totfact>
</mgrwt>
</event>
<event>
 6    1  0.1762360E-005  0.1582679E+04  0.7818608E-02  0.8831260E-01
         -2   -1    0    0    0  501 -0.00000000000E+00  0.00000000000E+00  0.10008548457E+04  0.10008548457E+04  0.00000000000E+00 0.  1.
          2   -1    0    0  501    0  0.00000000000E+00 -0.00000000000E+00 -0.62568353932E+03  0.62568353932E+03  0.00000000000E+00 0. -1.
         23    2    1    2    0    0  0.21446174630E+03 -0.69733889548E+03 -0.11799245774E+03  0.74592162729E+03  0.10100236726E+03 0.  0.
         11    1    3    3    0    0  0.13525374411E+03 -0.36094201029E+03 -0.16808904023E+02  0.38581763742E+03  0.00000000000E+00 0.  1.
        -11    1    3    3    0    0  0.79208002195E+02 -0.33639688520E+03 -0.10118355371E+03  0.36010398987E+03  0.00000000000E+00 0. -1.
         22    1    1    2    0    0 -0.21446174630E+03  0.69733889548E+03  0.49316376416E+03  0.88061675777E+03  0.00000000000E+00 0.  1.
<mgrwt>
<rscale>  0 0.15826793E+04</rscale>
<asrwt>0</asrwt>
<pdfrwt beam="1">  1        2 0.96259006E-01 0.15826793E+04</pdfrwt>
<pdfrwt beam="2">  1       -2 0.15397767E+00 0.15826793E+04</pdfrwt>
<totfact> 0.12635235E+01</totfact>
</mgrwt>
</event>
<event>
 6    1  0.1762360E-005  0.2737187E+04  0.7818608E-02  0.8323039E-01
          2   -1    0    0  501    0  0.00000000000E+00  0.00000000000E+00  0.14638165318E+04  0.14638165318E+04  0.00000000000E+00 0.  1.
         -2   -1    0    0    0  501 -0.00000000000E+00 -0.00000000000E+00 -0.12795648937E+04  0.12795648937E+04  0.00000000000E+00 0. -1.
         23    2    1    2    0    0  0.18015057328E+03  0.13519382452E+04  0.18565469886E+03  0.13794924211E+04  0.91325925583E+02 0.  0.
         13    1    3    3    0    0  0.11733342914E+03  0.59564785086E+03  0.10812415332E+03  0.61664765333E+03  0.00000000000E+00 0.  1.
        -13    1    3    3    0    0  0.62817144139E+02  0.75629039435E+03  0.77530545537E+02  0.76284476774E+03  0.00000000000E+00 0. -1.
         22    1    1    2    0    0 -0.18015057328E+03 -0.13519382452E+04 -0.14030607560E+01  0.13638890045E+04  0.00000000000E+00 0.  1.
<mgrwt>
<rscale>  0 0.27371871E+04</rscale>
<asrwt>0</asrwt>
<pdfrwt beam="1">  1        2 0.22520254E+00 0.27371871E+04</pdfrwt>
<pdfrwt beam="2">  1       -2 0.19685614E+00 0.27371871E+04</pdfrwt>
<totfact> 0.16238791E+00</totfact>
</mgrwt>
</event>
<event>
 6    1  0.1762360E-005  0.2893418E+04  0.7818608E-02  0.8274839E-01
          2   -1    0    0  501    0  0.00000000000E+00  0.00000000000E+00  0.16099309886E+04  0.16099309886E+04  0.00000000000E+00 0. -1.
         -2   -1    0    0    0  501 -0.00000000000E+00 -0.00000000000E+00 -0.13000348842E+04  0.13000348842E+04  0.00000000000E+00 0.  1.
         23    2    1    2    0    0  0.11181186273E+04 -0.67952931946E+03  0.77239323015E+03  0.15222148316E+04  0.92721792610E+02 0.  0.
         13    1    3    3    0    0  0.20019958002E+03 -0.13399953133E+03  0.10336862523E+03  0.26214656000E+03  0.00000000000E+00 0.  1.
        -13    1    3    3    0    0  0.91791904730E+03 -0.54552978812E+03  0.66902460492E+03  0.12600682716E+04  0.00000000000E+00 0. -1.
         22    1    1    2    0    0 -0.11181186273E+04  0.67952931946E+03 -0.46249712575E+03  0.13877510411E+04  0.00000000000E+00 0.  1.
<mgrwt>
<rscale>  0 0.28934177E+04</rscale>
<asrwt>0</asrwt>
<pdfrwt beam="1">  1        2 0.24768169E+00 0.28934177E+04</pdfrwt>
<pdfrwt beam="2">  1       -2 0.20000537E+00 0.28934177E+04</pdfrwt>
<totfact> 0.12645416E+00</totfact>
</mgrwt>
</event>
<event>
 6    1  0.1762360E-005  0.1942017E+04  0.7818608E-02  0.8634220E-01
          1   -1    0    0  501    0  0.00000000000E+00  0.00000000000E+00  0.19993577236E+04  0.19993577236E+04  0.00000000000E+00 0. -1.
         -1   -1    0    0    0  501 -0.00000000000E+00 -0.00000000000E+00 -0.47158012302E+03  0.47158012302E+03  0.00000000000E+00 0.  1.
         23    2    1    2    0    0 -0.59393510830E+03  0.26739919838E+03  0.16780312782E+04  0.18024788638E+04  0.94232899919E+02 0.  0.
         11    1    3    3    0    0 -0.10788507544E+03  0.67581785009E+02  0.42641132750E+03  0.44500910933E+03  0.00000000000E+00 0. -1.
        -11    1    3    3    0    0 -0.48605003286E+03  0.19981741337E+03  0.12516199507E+04  0.13574697544E+04  0.00000000000E+00 0.  1.
         22    1    1    2    0    0  0.59393510830E+03 -0.26739919838E+03 -0.15025367762E+03  0.66845898289E+03  0.00000000000E+00 0.  1.
<mgrwt>
<rscale>  0 0.19420168E+04</rscale>
<asrwt>0</asrwt>
<pdfrwt beam="1">  1        1 0.30759349E+00 0.19420168E+04</pdfrwt>
<pdfrwt beam="2">  1       -1 0.72550789E-01 0.19420168E+04</pdfrwt>
<totfact> 0.53284473E+00</totfact>
</mgrwt>
</event>
<event>
 6    1  0.1762360E-005  0.1205892E+04  0.7818608E-02  0.9107715E-01
         -2   -1    0    0    0  501 -0.00000000000E+00  0.00000000000E+00  0.63548591096E+03  0.63548591096E+03  0.00000000000E+00 0.  1.
          2   -1    0    0  501    0  0.00000000000E+00 -0.00000000000E+00 -0.57207205599E+03  0.57207205599E+03  0.00000000000E+00 0. -1.
         23    2    1    2    0    0  0.18726747521E+03  0.52501872816E+03  0.25292561704E+03  0.61880633836E+03  0.90753206286E+02 0.  0.
         11    1    3    3    0    0  0.13232972118E+03  0.41943128582E+03  0.16076513248E+03  0.46827255573E+03  0.00000000000E+00 0.  1.
        -11    1    3    3    0    0  0.54937754025E+02  0.10558744235E+03  0.92160484568E+02  0.15053378263E+03  0.00000000000E+00 0. -1.
         22    1    1    2    0    0 -0.18726747521E+03 -0.52501872816E+03 -0.18951176207E+03  0.58875162858E+03  0.00000000000E+00 0. -1.
<mgrwt>
<rscale>  0 0.12058918E+04</rscale>
<asrwt>0</asrwt>
<pdfrwt beam="1">  1        2 0.88011086E-01 0.12058918E+04</pdfrwt>
<pdfrwt beam="2">  1       -2 0.97767063E-01 0.12058918E+04</pdfrwt>
<totfact> 0.45155287E+01</totfact>
</mgrwt>
</event>
<event>
 6    1  0.1762360E-005  0.5203910E+04  0.7818608E-02  0.7797799E-01
          2   -1    0    0  501    0  0.00000000000E+00  0.00000000000E+00  0.28969962397E+04  0.28969962397E+04  0.00000000000E+00 0. -1.
         -2   -1    0    0    0  501 -0.00000000000E+00 -0.00000000000E+00 -0.23369621759E+04  0.23369621759E+04  0.00000000000E+00 0.  1.
         23    2    1    2    0    0  0.24920084463E+04 -0.46116100329E+03 -0.30872268189E+03  0.25548701658E+04  0.96313561197E+02 0.  0.
         11    1    3    3    0    0  0.17762126261E+04 -0.30677889363E+03 -0.25771196455E+03  0.18208404761E+04  0.00000000000E+00 0. -1.
        -11    1    3    3    0    0  0.71579582026E+03 -0.15438210966E+03 -0.51010717335E+02  0.73402968970E+03  0.00000000000E+00 0.  1.
         22    1    1    2    0    0 -0.24920084463E+04  0.46116100329E+03  0.86875674566E+03  0.26790882499E+04  0.00000000000E+00 0. -1.
<mgrwt>
<rscale>  0 0.52039103E+04</rscale>
<asrwt>0</asrwt>
<pdfrwt beam="1">  1        2 0.44569173E+00 0.52039103E+04</pdfrwt>
<pdfrwt beam="2">  1       -2 0.35953264E+00 0.52039103E+04</pdfrwt>
<totfact> 0.19567662E-02</totfact>
</mgrwt>
</event>
<event>
 6    1  0.1762360E-005  0.2134721E+04  0.7818608E-02  0.8546101E-01
          1   -1    0    0  501    0  0.00000000000E+00  0.00000000000E+00  0.16218380303E+04  0.16218380303E+04  0.00000000000E+00 0. -1.
         -1   -1    0    0    0  501 -0.00000000000E+00 -0.00000000000E+00 -0.70244873311E+03  0.70244873311E+03  0.00000000000E+00 0.  1.
         23    2    1    2    0    0 -0.92712208989E+03 -0.43746682492E+02  0.10300485811E+04  0.13895597344E+04  0.91689880553E+02 0.  0.
         11    1    3    3    0    0 -0.76856110365E+03 -0.39455455813E+02  0.90216268790E+03  0.11858079180E+04  0.00000000000E+00 0.  1.
        -11    1    3    3    0    0 -0.15856098624E+03 -0.42912266796E+01  0.12788589318E+03  0.20375181633E+03  0.00000000000E+00 0. -1.
         22    1    1    2    0    0  0.92712208989E+03  0.43746682492E+02 -0.11065928385E+03  0.93472702908E+03  0.00000000000E+00 0.  1.
<mgrwt>
<rscale>  0 0.21347207E+04</rscale>
<asrwt>0</asrwt>
<pdfrwt beam="1">  1        1 0.24951354E+00 0.21347207E+04</pdfrwt>
<pdfrwt beam="2">  1       -1 0.10806904E+00 0.21347207E+04</pdfrwt>
<totfact> 0.39330864E+00</totfact>
</mgrwt>
</event>
<event>
 6    1  0.1762360E-005  0.2104275E+04  0.7818608E-02  0.8559362E-01
         -2   -1    0    0    0  501 -0.00000000000E+00  0.00000000000E+00  0.31070714222E+03  0.31070714222E+03  0.00000000000E+00 0.  1.
          2   -1    0    0  501    0  0.00000000000E+00 -0.00000000000E+00 -0.35628203180E+04  0.35628203180E+04  0.00000000000E+00 0. -1.
         23    2    1    2    0    0 -0.50226060630E+03 -0.86474785908E+03 -0.10391374383E+04  0.14450884160E+04  0.91756951395E+02 0.  0.
         13    1    3    3    0    0 -0.23139278211E+03 -0.46610446045E+03 -0.58364909580E+03  0.78194773144E+03  0.00000000000E+00 0. -1.
        -13    1    3    3    0    0 -0.27086782419E+03 -0.39864339863E+03 -0.45548834246E+03  0.66314068460E+03  0.00000000000E+00 0.  1.
         22    1    1    2    0    0  0.50226060630E+03  0.86474785908E+03 -0.22129757375E+04  0.24284390441E+04  0.00000000000E+00 0. -1.
<mgrwt>
<rscale>  0 0.21042754E+04</rscale>
<asrwt>0</asrwt>
<pdfrwt beam="1">  1        2 0.54812623E+00 0.21042754E+04</pdfrwt>
<pdfrwt beam="2">  1       -2 0.47801096E-01 0.21042754E+04</pdfrwt>
<totfact> 0.28179557E+00</totfact>
</mgrwt>
</event>
<event>
 6    1  0.1762360E-005  0.1645448E+04  0.7818608E-02  0.8793104E-01
          1   -1    0    0  501    0  0.00000000000E+00  0.00000000000E+00  0.41077587415E+04  0.41077587415E+04  0.00000000000E+00 0. -1.
         -1   -1    0    0    0  501 -0.00000000000E+00 -0.00000000000E+00 -0.16477962163E+03  0.16477962163E+03  0.00000000000E+00 0.  1.
         23    2    1    2    0    0  0.47202923195E+03  0.62737878736E+03  0.25939450211E+04  0.27116704192E+04  0.90498350215E+02 0.  0.
         13    1    3    3    0    0  0.32121495808E+03  0.46981445357E+03  0.17635420113E+04  0.18531014802E+04  0.00000000000E+00 0.  1.
        -13    1    3    3    0    0  0.15081427387E+03  0.15756433379E+03  0.83040300976E+03  0.85856893905E+03  0.00000000000E+00 0. -1.
         22    1    1    2    0    0 -0.47202923195E+03 -0.62737878736E+03  0.13490340988E+04  0.15608679439E+04  0.00000000000E+00 0.  1.
<mgrwt>
<rscale>  0 0.16454482E+04</rscale>
<asrwt>0</asrwt>
<pdfrwt beam="1">  1        1 0.63196281E+00 0.16454482E+04</pdfrwt>
<pdfrwt beam="2">  1       -1 0.25350714E-01 0.16454482E+04</pdfrwt>
<totfact> 0.10220465E+00</totfact>
</mgrwt>
</event>
<event>
 6    1  0.1762360E-005  0.2286609E+04  0.7818608E-02  0.8483220E-01
          2   -1    0    0  501    0  0.00000000000E+00  0.00000000000E+00  0.15140818240E+04  0.15140818240E+04  0.00000000000E+00 0. -1.
         -2   -1    0    0    0  501 -0.00000000000E+00 -0.00000000000E+00 -0.86332505185E+03  0.86332505185E+03  0.00000000000E+00 0.  1.
         23    2    1    2    0    0 -0.71905164475E+03  0.20563351077E+03 -0.56963938598E+03  0.94608329562E+03  0.10613276412E+03 0.  0.
         13    1    3    3    0    0 -0.47158369248E+03  0.18639411582E+03 -0.38855561917E+03  0.63883441877E+03  0.00000000000E+00 0.  1.
        -13    1    3    3    0    0 -0.24746795227E+03  0.19239394954E+02 -0.18108376681E+03  0.30724887684E+03  0.00000000000E+00 0. -1.
         22    1    1    2    0    0  0.71905164475E+03 -0.20563351077E+03  0.12203961581E+04  0.14313235802E+04  0.00000000000E+00 0. -1.
<mgrwt>
<rscale>  0 0.22866086E+04</rscale>
<asrwt>0</asrwt>
<pdfrwt beam="1">  1        2 0.23293567E+00 0.22866086E+04</pdfrwt>
<pdfrwt beam="2">  1       -2 0.13281924E+00 0.22866086E+04</pdfrwt>
<totfact> 0.46529372E+00</totfact>
</mgrwt>
</event>
<event>
 6    1  0.1762360E-005  0.2011751E+04  0.7818608E-02  0.8601146E-01
         -2   -1    0    0    0  501 -0.00000000000E+00  0.00000000000E+00  0.11246056447E+04  0.11246056447E+04  0.00000000000E+00 0.  1.
          2   -1    0    0  501    0  0.00000000000E+00 -0.00000000000E+00 -0.89968057034E+03  0.89968057034E+03  0.00000000000E+00 0. -1.
         23    2    1    2    0    0  0.60954886450E+03  0.68111431703E+03  0.53026171603E+03  0.10605969520E+04  0.90674561107E+02 0.  0.
         13    1    3    3    0    0  0.11257488005E+03  0.12361227128E+03  0.13920169519E+03  0.21755507159E+03  0.00000000000E+00 0.  1.
        -13    1    3    3    0    0  0.49697398444E+03  0.55750204575E+03  0.39106002084E+03  0.84304188041E+03  0.00000000000E+00 0. -1.
         22    1    1    2    0    0 -0.60954886450E+03 -0.68111431703E+03 -0.30533664162E+03  0.96368926309E+03  0.00000000000E+00 0.  1.
<mgrwt>
<rscale>  0 0.20117513E+04</rscale>
<asrwt>0</asrwt>
<pdfrwt beam="1">  1        2 0.13841240E+00 0.20117513E+04</pdfrwt>
<pdfrwt beam="2">  1       -2 0.17301625E+00 0.20117513E+04</pdfrwt>
<totfact> 0.55229918E+00</totfact>
</mgrwt>
</event>
<event>
 6    1  0.1762360E-005  0.2213274E+04  0.7818608E-02  0.8512924E-01
         -2   -1    0    0    0  501 -0.00000000000E+00  0.00000000000E+00  0.98698310199E+03  0.98698310199E+03  0.00000000000E+00 0.  1.
          2   -1    0    0  501    0  0.00000000000E+00 -0.00000000000E+00 -0.12407965356E+04  0.12407965356E+04  0.00000000000E+00 0. -1.
         23    2    1    2    0    0 -0.40791593724E+03  0.78185380615E+03 -0.79762438465E+03  0.11917192453E+04  0.79368221103E+02 0.  0.
         11    1    3    3    0    0 -0.14971816337E+03  0.21572944185E+03 -0.25724328889E+03  0.36759873531E+03  0.00000000000E+00 0. -1.
        -11    1    3    3    0    0 -0.25819777387E+03  0.56612436429E+03 -0.54038109576E+03  0.82412050996E+03  0.00000000000E+00 0.  1.
         22    1    1    2    0    0  0.40791593724E+03 -0.78185380615E+03  0.54381095104E+03  0.10360603923E+04  0.00000000000E+00 0.  1.
<mgrwt>
<rscale>  0 0.22132738E+04</rscale>
<asrwt>0</asrwt>
<pdfrwt beam="1">  1        2 0.19089177E+00 0.22132738E+04</pdfrwt>
<pdfrwt beam="2">  1       -2 0.15184355E+00 0.22132738E+04</pdfrwt>
<totfact> 0.47436659E+00</totfact>
</mgrwt>
</event>
<event>
 6    1  0.1762360E-005  0.1220126E+04  0.7818608E-02  0.9095420E-01
         -1   -1    0    0    0  501 -0.00000000000E+00  0.00000000000E+00  0.55151140506E+03  0.55151140506E+03  0.00000000000E+00 0.  1.
          1   -1    0    0  501    0  0.00000000000E+00 -0.00000000000E+00 -0.67483130039E+03  0.67483130039E+03  0.00000000000E+00 0. -1.
         23    2    1    2    0    0 -0.28546627865E+03 -0.49063356330E+03  0.15328344456E+03  0.59489856911E+03  0.90532886100E+02 0.  0.
         13    1    3    3    0    0 -0.21682359506E+02 -0.10740558327E+03  0.28567881895E+02  0.11323518847E+03  0.00000000000E+00 0. -1.
        -13    1    3    3    0    0 -0.26378391914E+03 -0.38322798003E+03  0.12471556267E+03  0.48166338064E+03  0.00000000000E+00 0.  1.
         22    1    1    2    0    0  0.28546627865E+03  0.49063356330E+03 -0.27660333989E+03  0.63144413634E+03  0.00000000000E+00 0. -1.
<mgrwt>
<rscale>  0 0.12201265E+04</rscale>
<asrwt>0</asrwt>
<pdfrwt beam="1">  1        1 0.10382020E+00 0.12201265E+04</pdfrwt>
<pdfrwt beam="2">  1       -1 0.84847909E-01 0.12201265E+04</pdfrwt>
<totfact> 0.39136452E+01</totfact>
</mgrwt>
</event>
<event>
 6    1  0.1762360E-005  0.3973504E+04  0.7818608E-02  0.8009913E-01
         -2   -1    0    0    0  501 -0.00000000000E+00  0.00000000000E+00  0.13411617773E+04  0.13411617773E+04  0.00000000000E+00 0.  1.
          2   -1    0    0  501    0  0.00000000000E+00 -0.00000000000E+00 -0.29431073803E+04  0.29431073803E+04  0.00000000000E+00 0. -1.
         23    2    1    2    0    0 -0.22362958934E+02  0.61147660917E+03 -0.28381736925E+04  0.29048984189E+04  0.93814548535E+02 0.  0.
         13    1    3    3    0    0 -0.37242050418E+02  0.24833606271E+03 -0.13349128135E+04  0.13583261722E+04  0.00000000000E+00 0.  1.
        -13    1    3    3    0    0  0.14879091484E+02  0.36314054647E+03 -0.15032608790E+04  0.15465722467E+04  0.00000000000E+00 0. -1.
         22    1    1    2    0    0  0.22362958934E+02 -0.61147660917E+03  0.12362280896E+04  0.13793707388E+04  0.00000000000E+00 0.  1.
<mgrwt>
<rscale>  0 0.39735038E+04</rscale>
<asrwt>0</asrwt>
<pdfrwt beam="1">  1        2 0.45278574E+00 0.39735038E+04</pdfrwt>
<pdfrwt beam="2">  1       -2 0.20633258E+00 0.39735038E+04</pdfrwt>
<totfact> 0.18054434E-01</totfact>
</mgrwt>
</event>
<event>
 6    1  0.1762360E-005  0.3554308E+04  0.7818608E-02  0.8101039E-01
         -2   -1    0    0    0  501 -0.00000000000E+00  0.00000000000E+00  0.13517562462E+04  0.13517562462E+04  0.00000000000E+00 0.  1.
          2   -1    0    0  501    0  0.00000000000E+00 -0.00000000000E+00 -0.23364242594E+04  0.23364242594E+04  0.00000000000E+00 0. -1.
         23    2    1    2    0    0  0.14915742970E+04  0.32903257305E+03 -0.14329386947E+04  0.20963253232E+04  0.90610376534E+02 0.  0.
         13    1    3    3    0    0  0.96563525455E+03  0.19124204108E+03 -0.97436117373E+03  0.13850648577E+04  0.00000000000E+00 0.  1.
        -13    1    3    3    0    0  0.52593904249E+03  0.13779053198E+03 -0.45857752093E+03  0.71126046553E+03  0.00000000000E+00 0. -1.
         22    1    1    2    0    0 -0.14915742970E+04 -0.32903257305E+03  0.44827068141E+03  0.15918551823E+04  0.00000000000E+00 0.  1.
<mgrwt>
<rscale>  0 0.35543079E+04</rscale>
<asrwt>0</asrwt>
<pdfrwt beam="1">  1        2 0.35944989E+00 0.35543079E+04</pdfrwt>
<pdfrwt beam="2">  1       -2 0.20796250E+00 0.35543079E+04</pdfrwt>
<totfact> 0.41734796E-01</totfact>
</mgrwt>
</event>
<event>
 6    1  0.1762360E-005  0.2563973E+04  0.7818608E-02  0.8380543E-01
         -2   -1    0    0    0  501 -0.00000000000E+00  0.00000000000E+00  0.75146183851E+03  0.75146183851E+03  0.00000000000E+00 0. -1.
          2   -1    0    0  501    0  0.00000000000E+00 -0.00000000000E+00 -0.21870570663E+04  0.21870570663E+04  0.00000000000E+00 0.  1.
         23    2    1    2    0    0  0.97186832312E+03 -0.52560241187E+03 -0.14600435280E+04  0.18333566306E+04  0.93185290959E+02 0.  0.
         13    1    3    3    0    0  0.50573446992E+03 -0.22253126371E+03 -0.74866354113E+03  0.93047547803E+03  0.00000000000E+00 0.  1.
        -13    1    3    3    0    0  0.46613385321E+03 -0.30307114816E+03 -0.71137998692E+03  0.90288115261E+03  0.00000000000E+00 0. -1.
         22    1    1    2    0    0 -0.97186832312E+03  0.52560241187E+03  0.24448300260E+02  0.11051622742E+04  0.00000000000E+00 0. -1.
<mgrwt>
<rscale>  0 0.25639734E+04</rscale>
<asrwt>0</asrwt>
<pdfrwt beam="1">  1        2 0.33647031E+00 0.25639734E+04</pdfrwt>
<pdfrwt beam="2">  1       -2 0.11560952E+00 0.25639734E+04</pdfrwt>
<totfact> 0.27115030E+00</totfact>
</mgrwt>
</event>
<event>
 6    1  0.1762360E-005  0.2548668E+04  0.7818608E-02  0.8385850E-01
         -2   -1    0    0    0  501 -0.00000000000E+00  0.00000000000E+00  0.46159874506E+03  0.46159874506E+03  0.00000000000E+00 0. -1.
          2   -1    0    0  501    0  0.00000000000E+00 -0.00000000000E+00 -0.35180480940E+04  0.35180480940E+04  0.00000000000E+00 0.  1.
         23    2    1    2    0    0  0.65345574815E+03 -0.10696504929E+04 -0.11877063475E+04  0.17294564033E+04  0.96002558303E+02 0.  0.
         11    1    3    3    0    0  0.32810018156E+03 -0.46703160312E+03 -0.49758526739E+03  0.75720495625E+03  0.00000000000E+00 0. -1.
        -11    1    3    3    0    0  0.32535556660E+03 -0.60261888980E+03 -0.69012108011E+03  0.97225144704E+03  0.00000000000E+00 0.  1.
         22    1    1    2    0    0 -0.65345574815E+03  0.10696504929E+04 -0.18687430015E+04  0.22501904358E+04  0.00000000000E+00 0. -1.
<mgrwt>
<rscale>  0 0.25486676E+04</rscale>
<asrwt>0</asrwt>
<pdfrwt beam="1">  1        2 0.54123819E+00 0.25486676E+04</pdfrwt>
<pdfrwt beam="2">  1       -2 0.71015189E-01 0.25486676E+04</pdfrwt>
<totfact> 0.12647281E+00</totfact>
</mgrwt>
</event>
<event>
 6    1  0.1762360E-005  0.2531916E+04  0.7818608E-02  0.8391703E-01
         -2   -1    0    0    0  501 -0.00000000000E+00  0.00000000000E+00  0.96359632414E+03  0.96359632414E+03  0.00000000000E+00 0.  1.
          2   -1    0    0  501    0  0.00000000000E+00 -0.00000000000E+00 -0.16631961943E+04  0.16631961943E+04  0.00000000000E+00 0. -1.
         23    2    1    2    0    0  0.18952117062E+03  0.58055677838E+03  0.79630276394E+03  0.10110298076E+04  0.12295825702E+03 0.  0.
         11    1    3    3    0    0  0.34307669730E+02  0.85678133829E+02  0.58852345371E+02  0.10945938687E+03  0.00000000000E+00 0. -1.
        -11    1    3    3    0    0  0.15521350089E+03  0.49487864455E+03  0.73745041857E+03  0.90157042073E+03  0.00000000000E+00 0.  1.
         22    1    1    2    0    0 -0.18952117062E+03 -0.58055677838E+03 -0.14959026341E+04  0.16157627108E+04  0.00000000000E+00 0. -1.
<mgrwt>
<rscale>  0 0.25319161E+04</rscale>
<asrwt>0</asrwt>
<pdfrwt beam="1">  1        2 0.25587634E+00 0.25319161E+04</pdfrwt>
<pdfrwt beam="2">  1       -2 0.14824559E+00 0.25319161E+04</pdfrwt>
<totfact> 0.28273423E+00</totfact>
</mgrwt>
</event>
<event>
 6    1  0.1762360E-005  0.1032232E+04  0.7818608E-02  0.9273883E-01
          2   -1    0    0  501    0  0.00000000000E+00  0.00000000000E+00  0.19755851827E+04  0.19755851827E+04  0.00000000000E+00 0.  1.
         -2   -1    0    0    0  501 -0.00000000000E+00 -0.00000000000E+00 -0.13483374748E+03  0.13483374748E+03  0.00000000000E+00 0. -1.
         23    2    1    2    0    0  0.42894040834E+03 -0.68905193540E+02  0.14807688627E+04  0.15462157291E+04  0.96792853875E+02 0.  0.
         13    1    3    3    0    0  0.10630700374E+03  0.21562803698E+02  0.42009852418E+03  0.43387659947E+03  0.00000000000E+00 0.  1.
        -13    1    3    3    0    0  0.32263340460E+03 -0.90467997239E+02  0.10606703385E+04  0.11123391296E+04  0.00000000000E+00 0. -1.
         22    1    1    2    0    0 -0.42894040834E+03  0.68905193540E+02  0.35998257256E+03  0.56420320111E+03  0.00000000000E+00 0. -1.
<mgrwt>
<rscale>  0 0.10322317E+04</rscale>
<asrwt>0</asrwt>
<pdfrwt beam="1">  1        2 0.30393616E+00 0.10322317E+04</pdfrwt>
<pdfrwt beam="2">  1       -2 0.20743655E-01 0.10322317E+04</pdfrwt>
<totfact> 0.13808898E+02</totfact>
</mgrwt>
</event>
<event>
 6    1  0.1762360E-005  0.2040092E+04  0.7818608E-02  0.8588103E-01
          2   -1    0    0  501    0  0.00000000000E+00  0.00000000000E+00  0.32653035288E+04  0.32653035288E+04  0.00000000000E+00 0. -1.
         -2   -1    0    0    0  501 -0.00000000000E+00 -0.00000000000E+00 -0.31865141408E+03  0.31865141408E+03  0.00000000000E+00 0.  1.
         23    2    1    2    0    0  0.15491291174E+03  0.43731217008E+03  0.30681696202E+04  0.31043650676E+04  0.90430694254E+02 0.  0.
         13    1    3    3    0    0  0.14097913862E+03  0.41590180401E+03  0.27163170730E+04  0.27515864277E+04  0.00000000000E+00 0. -1.
        -13    1    3    3    0    0  0.13933773113E+02  0.21410366065E+02  0.35185254713E+03  0.35277863984E+03  0.00000000000E+00 0.  1.
         22    1    1    2    0    0 -0.15491291174E+03 -0.43731217008E+03 -0.12151750547E+03  0.47958987526E+03  0.00000000000E+00 0.  1.
<mgrwt>
<rscale>  0 0.20400917E+04</rscale>
<asrwt>0</asrwt>
<pdfrwt beam="1">  1        2 0.50235437E+00 0.20400917E+04</pdfrwt>
<pdfrwt beam="2">  1       -2 0.49023297E-01 0.20400917E+04</pdfrwt>
<totfact> 0.43007622E+00</totfact>
</mgrwt>
</event>
<event>
 6    1  0.1762360E-005  0.2170208E+04  0.7818608E-02  0.8530931E-01
          1   -1    0    0  501    0  0.00000000000E+00  0.00000000000E+00  0.16529928463E+04  0.16529928463E+04  0.00000000000E+00 0. -1.
         -1   -1    0    0    0  501 -0.00000000000E+00 -0.00000000000E+00 -0.71231452040E+03  0.71231452040E+03  0.00000000000E+00 0.  1.
         23    2    1    2    0    0 -0.70719194729E+02  0.10632202517E+04  0.68446959917E+03  0.12693687645E+04  0.85789976085E+02 0.  0.
         11    1    3    3    0    0 -0.87548970070E+02  0.78270800513E+03  0.51985629938E+03  0.94368809226E+03  0.00000000000E+00 0. -1.
        -11    1    3    3    0    0  0.16829775342E+02  0.28051224656E+03  0.16461329979E+03  0.32568067225E+03  0.00000000000E+00 0.  1.
         22    1    1    2    0    0  0.70719194729E+02 -0.10632202517E+04  0.25620872674E+03  0.10959386022E+04  0.00000000000E+00 0.  1.
<mgrwt>
<rscale>  0 0.21702081E+04</rscale>
<asrwt>0</asrwt>
<pdfrwt beam="1">  1        1 0.25430659E+00 0.21702081E+04</pdfrwt>
<pdfrwt beam="2">  1       -1 0.10958685E+00 0.21702081E+04</pdfrwt>
<totfact> 0.36119567E+00</totfact>
</mgrwt>
</event>
<event>
 6    1  0.1840118E-005  0.4062240E+04  0.7818608E-02  0.7992107E-01
          2   -1    0    0  501    0  0.00000000000E+00  0.00000000000E+00  0.23053848925E+04  0.23053848925E+04  0.00000000000E+00 0. -1.
         -2   -1    0    0    0  501 -0.00000000000E+00 -0.00000000000E+00 -0.17894836123E+04  0.17894836123E+04  0.00000000000E+00 0.  1.
         23    2    1    2    0    0 -0.10139364313E+04 -0.14339128656E+03  0.20250480374E+04  0.22710943734E+04  0.91771190115E+02 0.  0.
         11    1    3    3    0    0 -0.84517810222E+03 -0.12944228110E+03  0.16130225022E+04  0.18256294589E+04  0.00000000000E+00 0. -1.
        -11    1    3    3    0    0 -0.16875832903E+03 -0.13949005464E+02  0.41202553527E+03  0.44546491454E+03  0.00000000000E+00 0.  1.
         22    1    1    2    0    0  0.10139364313E+04  0.14339128656E+03 -0.15091467572E+04  0.18237741314E+04  0.00000000000E+00 0.  1.
<mgrwt>
<rscale>  0 0.40622400E+04</rscale>
<asrwt>0</asrwt>
<pdfrwt beam="1">  1        2 0.35467460E+00 0.40622400E+04</pdfrwt>
<pdfrwt beam="2">  1       -2 0.27530517E+00 0.40622400E+04</pdfrwt>
<totfact> 0.15896446E-01</totfact>
</mgrwt>
</event>
<event>
 6    1  0.1762360E-005  0.2931836E+04  0.7818608E-02  0.8263468E-01
         -1   -1    0    0    0  501 -0.00000000000E+00  0.00000000000E+00  0.95365722378E+03  0.95365722378E+03  0.00000000000E+00 0.  1.
          1   -1    0    0  501    0  0.00000000000E+00 -0.00000000000E+00 -0.22533414256E+04  0.22533414256E+04  0.00000000000E+00 0. -1.
         23    2    1    2    0    0 -0.13237421218E+04 -0.62588792623E+03 -0.62011616087E+03  0.15927367055E+04  0.90759346470E+02 0.  0.
         13    1    3    3    0    0 -0.22619495384E+03 -0.10760345299E+03 -0.14401511068E+03  0.28893426993E+03  0.00000000000E+00 0. -1.
        -13    1    3    3    0    0 -0.10975471679E+04 -0.51828447324E+03 -0.47610105019E+03  0.13038024356E+04  0.00000000000E+00 0.  1.
         22    1    1    2    0    0  0.13237421218E+04  0.62588792623E+03 -0.67956804095E+03  0.16142619439E+04  0.00000000000E+00 0. -1.
<mgrwt>
<rscale>  0 0.29318358E+04</rscale>
<asrwt>0</asrwt>
<pdfrwt beam="1">  1        1 0.34666791E+00 0.29318358E+04</pdfrwt>
<pdfrwt beam="2">  1       -1 0.14671650E+00 0.29318358E+04</pdfrwt>
<totfact> 0.63481489E-01</totfact>
</mgrwt>
</event>
<event>
 6    1  0.1762360E-005  0.1960611E+04  0.7818608E-02  0.8625261E-01
         -1   -1    0    0    0  501 -0.00000000000E+00  0.00000000000E+00  0.32276886563E+03  0.32276886563E+03  0.00000000000E+00 0.  1.
          1   -1    0    0  501    0  0.00000000000E+00 -0.00000000000E+00 -0.29773580098E+04  0.29773580098E+04  0.00000000000E+00 0. -1.
         23    2    1    2    0    0  0.70124116070E+03 -0.26634641605E+03 -0.27162638313E+03  0.80188927678E+03  0.81030496671E+02 0.  0.
         13    1    3    3    0    0  0.60908811480E+03 -0.25363408481E+03 -0.22000381407E+03  0.69550000631E+03  0.00000000000E+00 0.  1.
        -13    1    3    3    0    0  0.92153045908E+02 -0.12712331239E+02 -0.51622569058E+02  0.10638927047E+03  0.00000000000E+00 0. -1.
         22    1    1    2    0    0 -0.70124116070E+03  0.26634641605E+03 -0.23829627611E+04  0.24982375987E+04  0.00000000000E+00 0. -1.
<mgrwt>
<rscale>  0 0.19606106E+04</rscale>
<asrwt>0</asrwt>
<pdfrwt beam="1">  1        1 0.45805508E+00 0.19606106E+04</pdfrwt>
<pdfrwt beam="2">  1       -1 0.49656749E-01 0.19606106E+04</pdfrwt>
<totfact> 0.23551731E+00</totfact>
</mgrwt>
</event>
<event>
 6    1  0.1762360E-005  0.2078024E+04  0.7818608E-02  0.8570986E-01
         -2   -1    0    0    0  501 -0.00000000000E+00  0.00000000000E+00  0.36581285957E+03  0.36581285957E+03  0.00000000000E+00 0.  1.
          2   -1    0    0  501    0  0.00000000000E+00 -0.00000000000E+00 -0.29510887804E+04  0.29510887804E+04  0.00000000000E+00 0. -1.
         23    2    1    2    0    0  0.23413776318E+03  0.26197936894E+03 -0.28525046034E+04  0.28754666497E+04  0.89845752025E+02 0.  0.
         13    1    3    3    0    0  0.28662886713E+01  0.70924269217E+01 -0.27247535689E+03  0.27258271817E+03  0.00000000000E+00 0. -1.
        -13    1    3    3    0    0  0.23127147451E+03  0.25488694202E+03 -0.25800292465E+04  0.26028839315E+04  0.00000000000E+00 0.  1.
         22    1    1    2    0    0 -0.23413776318E+03 -0.26197936894E+03  0.26722868254E+03  0.44143499031E+03  0.00000000000E+00 0.  1.
<mgrwt>
<rscale>  0 0.20780243E+04</rscale>
<asrwt>0</asrwt>
<pdfrwt beam="1">  1        2 0.45401365E+00 0.20780243E+04</pdfrwt>
<pdfrwt beam="2">  1       -2 0.56278903E-01 0.20780243E+04</pdfrwt>
<totfact> 0.51192686E+00</totfact>
</mgrwt>
</event>
<event>
 6    1  0.1762360E-005  0.1487351E+04  0.7818608E-02  0.8892908E-01
         -1   -1    0    0    0  501 -0.00000000000E+00  0.00000000000E+00  0.62209104463E+03  0.62209104463E+03  0.00000000000E+00 0.  1.
          1   -1    0    0  501    0  0.00000000000E+00 -0.00000000000E+00 -0.88902346090E+03  0.88902346090E+03  0.00000000000E+00 0. -1.
         23    2    1    2    0    0  0.32783886310E+03 -0.25098890193E+03  0.49103319175E+03  0.64798901524E+03  0.91117613100E+02 0.  0.
         11    1    3    3    0    0  0.29166803721E+03 -0.20905361360E+03  0.37290965278E+03  0.51752803443E+03  0.00000000000E+00 0. -1.
        -11    1    3    3    0    0  0.36170825887E+02 -0.41935288331E+02  0.11812353897E+03  0.13046098080E+03  0.00000000000E+00 0.  1.
         22    1    1    2    0    0 -0.32783886310E+03  0.25098890193E+03 -0.75796560802E+03  0.86312549029E+03  0.00000000000E+00 0. -1.
<mgrwt>
<rscale>  0 0.14873514E+04</rscale>
<asrwt>0</asrwt>
<pdfrwt beam="1">  1        1 0.13677284E+00 0.14873514E+04</pdfrwt>
<pdfrwt beam="2">  1       -1 0.95706314E-01 0.14873514E+04</pdfrwt>
<totfact> 0.18951861E+01</totfact>
</mgrwt>
</event>
<event>
 6    1  0.1762360E-005  0.3261653E+04  0.7818608E-02  0.8172722E-01
          2   -1    0    0  501    0  0.00000000000E+00  0.00000000000E+00  0.13462645040E+04  0.13462645040E+04  0.00000000000E+00 0. -1.
         -2   -1    0    0    0  501 -0.00000000000E+00 -0.00000000000E+00 -0.19755371632E+04  0.19755371632E+04  0.00000000000E+00 0.  1.
         23    2    1    2    0    0  0.14834551179E+04  0.56910900562E+03 -0.68345194139E+03  0.17320030819E+04  0.90575782821E+02 0.  0.
         11    1    3    3    0    0  0.11345838850E+04  0.39447136086E+03 -0.52469329839E+03  0.13107979646E+04  0.00000000000E+00 0.  1.
        -11    1    3    3    0    0  0.34887123296E+03  0.17463764476E+03 -0.15875864300E+03  0.42120511735E+03  0.00000000000E+00 0. -1.
         22    1    1    2    0    0 -0.14834551179E+04 -0.56910900562E+03  0.54179282232E+02  0.15897985853E+04  0.00000000000E+00 0. -1.
<mgrwt>
<rscale>  0 0.32616533E+04</rscale>
<asrwt>0</asrwt>
<pdfrwt beam="1">  1        2 0.20711762E+00 0.32616533E+04</pdfrwt>
<pdfrwt beam="2">  1       -2 0.30392879E+00 0.32616533E+04</pdfrwt>
<totfact> 0.39141815E-01</totfact>
</mgrwt>
</event>
<event>
 6    1  0.1762360E-005  0.9237789E+03  0.7818608E-02  0.9396335E-01
         -1   -1    0    0    0  501 -0.00000000000E+00  0.00000000000E+00  0.12101035515E+04  0.12101035515E+04  0.00000000000E+00 0.  1.
          1   -1    0    0  501    0  0.00000000000E+00 -0.00000000000E+00 -0.17630050224E+03  0.17630050224E+03  0.00000000000E+00 0. -1.
         23    2    1    2    0    0  0.34551030753E+03  0.78348375245E+02  0.95602666681E+03  0.10236851458E+04  0.91806587712E+02 0.  0.
         13    1    3    3    0    0  0.13587225140E+03 -0.13333419696E+02  0.38719792693E+03  0.41056215534E+03  0.00000000000E+00 0.  1.
        -13    1    3    3    0    0  0.20963805613E+03  0.91681794940E+02  0.56882873988E+03  0.61312299045E+03  0.00000000000E+00 0. -1.
         22    1    1    2    0    0 -0.34551030753E+03 -0.78348375245E+02  0.77776382451E+02  0.36271890795E+03  0.00000000000E+00 0. -1.
<mgrwt>
<rscale>  0 0.92377890E+03</rscale>
<asrwt>0</asrwt>
<pdfrwt beam="1">  1        1 0.27123155E-01 0.92377890E+03</pdfrwt>
<pdfrwt beam="2">  1       -1 0.18616977E+00 0.92377890E+03</pdfrwt>
<totfact> 0.33297230E+01</totfact>
</mgrwt>
</event>
<event>
 6    1  0.1762360E-005  0.2737628E+04  0.7818608E-02  0.8322898E-01
          2   -1    0    0  501    0  0.00000000000E+00  0.00000000000E+00  0.28121995129E+04  0.28121995129E+04  0.00000000000E+00 0.  1.
         -2   -1    0    0    0  501 -0.00000000000E+00 -0.00000000000E+00 -0.66625830706E+03  0.66625830706E+03  0.00000000000E+00 0. -1.
         23    2    1    2    0    0  0.11352393691E+04 -0.41630244743E+02  0.10717613389E+03  0.11445631092E+04  0.89646442784E+02 0.  0.
         11    1    3    3    0    0  0.46824048645E+03  0.26893571260E+02  0.46741563577E+02  0.47133553982E+03  0.00000000000E+00 0.  1.
        -11    1    3    3    0    0  0.66699888267E+03 -0.68523816003E+02  0.60434570308E+02  0.67322756935E+03  0.00000000000E+00 0. -1.
         22    1    1    2    0    0 -0.11352393691E+04  0.41630244743E+02  0.20387650720E+04  0.23338947108E+04  0.00000000000E+00 0.  1.
<mgrwt>
<rscale>  0 0.27376276E+04</rscale>
<asrwt>0</asrwt>
<pdfrwt beam="1">  1        2 0.43264607E+00 0.27376276E+04</pdfrwt>
<pdfrwt beam="2">  1       -2 0.10250128E+00 0.27376276E+04</pdfrwt>
<totfact> 0.15478912E+00</totfact>
</mgrwt>
</event>
<event>
 6    1  0.1762360E-005  0.1522774E+04  0.7818608E-02  0.8869448E-01
          2   -1    0    0  501    0  0.00000000000E+00  0.00000000000E+00  0.45266341989E+03  0.45266341989E+03  0.00000000000E+00 0. -1.
         -2   -1    0    0    0  501 -0.00000000000E+00 -0.00000000000E+00 -0.12806647029E+04  0.12806647029E+04  0.00000000000E+00 0.  1.
         23    2    1    2    0    0 -0.96940086857E+02 -0.61456161686E+03  0.78843102815E+02  0.63357810508E+03  0.90120025614E+02 0.  0.
         11    1    3    3    0    0 -0.11376274904E+03 -0.49584356800E+03  0.61691196542E+02  0.51245352055E+03  0.00000000000E+00 0. -1.
        -11    1    3    3    0    0  0.16822662181E+02 -0.11871804886E+03  0.17151906272E+02  0.12112458453E+03  0.00000000000E+00 0.  1.
         22    1    1    2    0    0  0.96940086857E+02  0.61456161686E+03 -0.90684438584E+03  0.10997500177E+04  0.00000000000E+00 0.  1.
<mgrwt>
<rscale>  0 0.15227739E+04</rscale>
<asrwt>0</asrwt>
<pdfrwt beam="1">  1        2 0.69640528E-01 0.15227739E+04</pdfrwt>
<pdfrwt beam="2">  1       -2 0.19702533E+00 0.15227739E+04</pdfrwt>
<totfact> 0.92616034E+00</totfact>
</mgrwt>
</event>
<event>
 6    1  0.1762360E-005  0.6862091E+03  0.7818608E-02  0.9741112E-01
         -1   -1    0    0    0  501 -0.00000000000E+00  0.00000000000E+00  0.23930273000E+03  0.23930273000E+03  0.00000000000E+00 0.  1.
          1   -1    0    0  501    0  0.00000000000E+00 -0.00000000000E+00 -0.49193218794E+03  0.49193218794E+03  0.00000000000E+00 0. -1.
         23    2    1    2    0    0  0.45791045275E+02  0.14899838969E+03  0.19021998581E+03  0.26175332108E+03  0.89631568873E+02 0.  0.
         11    1    3    3    0    0  0.25914520387E+02  0.89784901740E+01  0.73280341139E+02  0.78244386700E+02  0.00000000000E+00 0. -1.
        -11    1    3    3    0    0  0.19876524888E+02  0.14001989952E+03  0.11693964467E+03  0.18350893438E+03  0.00000000000E+00 0.  1.
         22    1    1    2    0    0 -0.45791045275E+02 -0.14899838969E+03 -0.44284944375E+03  0.46948159686E+03  0.00000000000E+00 0. -1.
<mgrwt>
<rscale>  0 0.68620905E+03</rscale>
<asrwt>0</asrwt>
<pdfrwt beam="1">  1        1 0.75681875E-01 0.68620905E+03</pdfrwt>
<pdfrwt beam="2">  1       -1 0.36815805E-01 0.68620905E+03</pdfrwt>
<totfact> 0.32506761E+02</totfact>
</mgrwt>
</event>
<event>
 6    1  0.1762360E-005  0.1327704E+04  0.7818608E-02  0.9007880E-01
         -1   -1    0    0    0  501 -0.00000000000E+00  0.00000000000E+00  0.17749061318E+03  0.17749061318E+03  0.00000000000E+00 0.  1.
          1   -1    0    0  501    0  0.00000000000E+00 -0.00000000000E+00 -0.24829456336E+04  0.24829456336E+04  0.00000000000E+00 0. -1.
         23    2    1    2    0    0 -0.88263137165E+02 -0.38600288613E+03 -0.98439926162E+02  0.41818197133E+03  0.91635869603E+02 0.  0.
         11    1    3    3    0    0 -0.28300277538E+02 -0.31423569745E+02 -0.30666203195E+02  0.52237557970E+02  0.00000000000E+00 0.  1.
        -11    1    3    3    0    0 -0.59962859626E+02 -0.35457931639E+03 -0.67773722967E+02  0.36594441336E+03  0.00000000000E+00 0. -1.
         22    1    1    2    0    0  0.88263137165E+02  0.38600288613E+03 -0.22070150943E+04  0.22422542755E+04  0.00000000000E+00 0. -1.
<mgrwt>
<rscale>  0 0.13277041E+04</rscale>
<asrwt>0</asrwt>
<pdfrwt beam="1">  1        1 0.38199163E+00 0.13277041E+04</pdfrwt>
<pdfrwt beam="2">  1       -1 0.27306249E-01 0.13277041E+04</pdfrwt>
<totfact> 0.16485635E+01</totfact>
</mgrwt>
</event>
<event>
 6    1  0.1762360E-005  0.3107096E+04  0.7818608E-02  0.8213793E-01
         -2   -1    0    0    0  501 -0.00000000000E+00  0.00000000000E+00  0.86247806191E+03  0.86247806191E+03  0.00000000000E+00 0.  1.
          2   -1    0    0  501    0  0.00000000000E+00 -0.00000000000E+00 -0.27983452235E+04  0.27983452235E+04  0.00000000000E+00 0. -1.
         23    2    1    2    0    0 -0.12572934314E+04  0.46535834785E+03 -0.18903031462E+04  0.23193982059E+04  0.94957299449E+02 0.  0.
         11    1    3    3    0    0 -0.26698466267E+03  0.13521336618E+03 -0.38755652509E+03  0.48965653742E+03  0.00000000000E+00 0. -1.
        -11    1    3    3    0    0 -0.99030876869E+03  0.33014498167E+03 -0.15027466211E+04  0.18297416685E+04  0.00000000000E+00 0.  1.
         22    1    1    2    0    0  0.12572934314E+04 -0.46535834785E+03 -0.45564015434E+02  0.13414250795E+04  0.00000000000E+00 0.  1.
<mgrwt>
<rscale>  0 0.31070960E+04</rscale>
<asrwt>0</asrwt>
<pdfrwt beam="1">  1        2 0.43051465E+00 0.31070960E+04</pdfrwt>
<pdfrwt beam="2">  1       -2 0.13268893E+00 0.31070960E+04</pdfrwt>
<totfact> 0.81045168E-01</totfact>
</mgrwt>
</event>
<event>
 6    1  0.1762360E-005  0.5992017E+03  0.7818608E-02  0.9907064E-01
          1   -1    0    0  501    0  0.00000000000E+00  0.00000000000E+00  0.28623228494E+03  0.28623228494E+03  0.00000000000E+00 0. -1.
         -1   -1    0    0    0  501 -0.00000000000E+00 -0.00000000000E+00 -0.31359383197E+03  0.31359383197E+03  0.00000000000E+00 0.  1.
         23    2    1    2    0    0  0.17063530865E+03 -0.14632550320E+03  0.17393666858E+03  0.29808362230E+03  0.89846089305E+02 0.  0.
         13    1    3    3    0    0  0.14701962197E+03 -0.13499703632E+03  0.10757645751E+03  0.22674140175E+03  0.00000000000E+00 0. -1.
        -13    1    3    3    0    0  0.23615686679E+02 -0.11328466880E+02  0.66360211071E+02  0.71342220547E+02  0.00000000000E+00 0.  1.
         22    1    1    2    0    0 -0.17063530865E+03  0.14632550320E+03 -0.20129821561E+03  0.30174249461E+03  0.00000000000E+00 0.  1.
<mgrwt>
<rscale>  0 0.59920173E+03</rscale>
<asrwt>0</asrwt>
<pdfrwt beam="1">  1        1 0.44035736E-01 0.59920173E+03</pdfrwt>
<pdfrwt beam="2">  1       -1 0.48245205E-01 0.59920173E+03</pdfrwt>
<totfact> 0.40561218E+02</totfact>
</mgrwt>
</event>
<event>
 6    1  0.1762360E-005  0.2174398E+04  0.7818608E-02  0.8529160E-01
          2   -1    0    0  501    0  0.00000000000E+00  0.00000000000E+00  0.54878523451E+03  0.54878523451E+03  0.00000000000E+00 0. -1.
         -2   -1    0    0    0  501 -0.00000000000E+00 -0.00000000000E+00 -0.21538514672E+04  0.21538514672E+04  0.00000000000E+00 0.  1.
         23    2    1    2    0    0 -0.14803675289E+03 -0.37602280637E+03  0.44796225545E+03  0.61021370331E+03  0.91556268402E+02 0.  0.
         13    1    3    3    0    0 -0.87639304571E+02 -0.18271114521E+03  0.28793032835E+03  0.35209073301E+03  0.00000000000E+00 0. -1.
        -13    1    3    3    0    0 -0.60397448315E+02 -0.19331166116E+03  0.16003192710E+03  0.25812297030E+03  0.00000000000E+00 0.  1.
         22    1    1    2    0    0  0.14803675289E+03  0.37602280637E+03 -0.20530284881E+04  0.20924229984E+04  0.00000000000E+00 0.  1.
<mgrwt>
<rscale>  0 0.21743982E+04</rscale>
<asrwt>0</asrwt>
<pdfrwt beam="1">  1        2 0.84428500E-01 0.21743982E+04</pdfrwt>
<pdfrwt beam="2">  1       -2 0.33136176E+00 0.21743982E+04</pdfrwt>
<totfact> 0.10304934E+00</totfact>
</mgrwt>
</event>
<event>
 6    1  0.1762360E-005  0.2749909E+04  0.7818608E-02  0.8318991E-01
         -1   -1    0    0    0  501 -0.00000000000E+00  0.00000000000E+00  0.11044824835E+04  0.11044824835E+04  0.00000000000E+00 0.  1.
          1   -1    0    0  501    0  0.00000000000E+00 -0.00000000000E+00 -0.17116611784E+04  0.17116611784E+04  0.00000000000E+00 0. -1.
         23    2    1    2    0    0 -0.45269760869E+02 -0.19779310283E+03 -0.16949346479E+04  0.17096245812E+04  0.94028108793E+02 0.  0.
         13    1    3    3    0    0 -0.45420845283E+02 -0.13394327849E+03 -0.79930273870E+03  0.81171960869E+03  0.00000000000E+00 0. -1.
        -13    1    3    3    0    0  0.15108441374E+00 -0.63849824336E+02 -0.89563190920E+03  0.89790497252E+03  0.00000000000E+00 0.  1.
         22    1    1    2    0    0  0.45269760869E+02  0.19779310283E+03  0.10877559530E+04  0.11065190807E+04  0.00000000000E+00 0.  1.
<mgrwt>
<rscale>  0 0.27499089E+04</rscale>
<asrwt>0</asrwt>
<pdfrwt beam="1">  1        1 0.26333249E+00 0.27499089E+04</pdfrwt>
<pdfrwt beam="2">  1       -1 0.16992038E+00 0.27499089E+04</pdfrwt>
<totfact> 0.10024824E+00</totfact>
</mgrwt>
</event>
<event>
 6    1  0.1762360E-005  0.2504889E+04  0.7818608E-02  0.8401246E-01
         -2   -1    0    0    0  501 -0.00000000000E+00  0.00000000000E+00  0.16172735692E+04  0.16172735692E+04  0.00000000000E+00 0.  1.
          2   -1    0    0  501    0  0.00000000000E+00 -0.00000000000E+00 -0.96991452828E+03  0.96991452828E+03  0.00000000000E+00 0. -1.
         23    2    1    2    0    0 -0.11945781059E+04 -0.34238872267E+03  0.47130090368E+03  0.13321011060E+04  0.90121730006E+02 0.  0.
         11    1    3    3    0    0 -0.82204229188E+03 -0.21587592691E+03  0.36177805483E+03  0.92370953574E+03  0.00000000000E+00 0.  1.
        -11    1    3    3    0    0 -0.37253581405E+03 -0.12651279576E+03  0.10952284885E+03  0.40839157026E+03  0.00000000000E+00 0. -1.
         22    1    1    2    0    0  0.11945781059E+04  0.34238872267E+03  0.17605813728E+03  0.12550869915E+04  0.00000000000E+00 0. -1.
<mgrwt>
<rscale>  0 0.25048889E+04</rscale>
<asrwt>0</asrwt>
<pdfrwt beam="1">  1        2 0.14921762E+00 0.25048889E+04</pdfrwt>
<pdfrwt beam="2">  1       -2 0.24881132E+00 0.25048889E+04</pdfrwt>
<totfact> 0.15348020E+00</totfact>
</mgrwt>
</event>
<event>
 6    1  0.1762360E-005  0.2296263E+04  0.7818608E-02  0.8479396E-01
         -2   -1    0    0    0  501 -0.00000000000E+00  0.00000000000E+00  0.11383951682E+04  0.11383951682E+04  0.00000000000E+00 0.  1.
          2   -1    0    0  501    0  0.00000000000E+00 -0.00000000000E+00 -0.11579512909E+04  0.11579512909E+04  0.00000000000E+00 0. -1.
         23    2    1    2    0    0 -0.71187100644E+02 -0.31589500474E+03  0.10895436297E+04  0.11409419765E+04  0.98924290731E+02 0.  0.
         11    1    3    3    0    0 -0.27457305961E+02 -0.24459698709E+03  0.68593838910E+03  0.72876132127E+03  0.00000000000E+00 0.  1.
        -11    1    3    3    0    0 -0.43729794683E+02 -0.71298017653E+02  0.40360524065E+03  0.41218065523E+03  0.00000000000E+00 0. -1.
         22    1    1    2    0    0  0.71187100644E+02  0.31589500474E+03 -0.11090997525E+04  0.11554044826E+04  0.00000000000E+00 0. -1.
<mgrwt>
<rscale>  0 0.22962632E+04</rscale>
<asrwt>0</asrwt>
<pdfrwt beam="1">  1        2 0.17814635E+00 0.22962632E+04</pdfrwt>
<pdfrwt beam="2">  1       -2 0.17513772E+00 0.22962632E+04</pdfrwt>
<totfact> 0.35695678E+00</totfact>
</mgrwt>
</event>
<event>
 6    1  0.1762360E-005  0.2828562E+04  0.7818608E-02  0.8294456E-01
          2   -1    0    0  501    0  0.00000000000E+00  0.00000000000E+00  0.15938062149E+04  0.15938062149E+04  0.00000000000E+00 0. -1.
         -2   -1    0    0    0  501 -0.00000000000E+00 -0.00000000000E+00 -0.12549771088E+04  0.12549771088E+04  0.00000000000E+00 0.  1.
         23    2    1    2    0    0  0.12803927783E+04  0.25205712185E+03 -0.37527177521E+03  0.13612086102E+04  0.95506626727E+02 0.  0.
         11    1    3    3    0    0  0.10638403164E+04  0.20272079290E+03 -0.27399268501E+03  0.11171051562E+04  0.00000000000E+00 0. -1.
        -11    1    3    3    0    0  0.21655246192E+03  0.49336328943E+02 -0.10127909020E+03  0.24410345395E+03  0.00000000000E+00 0.  1.
         22    1    1    2    0    0 -0.12803927783E+04 -0.25205712185E+03  0.71410088130E+03  0.14875747134E+04  0.00000000000E+00 0. -1.
<mgrwt>
<rscale>  0 0.28285617E+04</rscale>
<asrwt>0</asrwt>
<pdfrwt beam="1">  1        2 0.24520096E+00 0.28285617E+04</pdfrwt>
<pdfrwt beam="2">  1       -2 0.19307340E+00 0.28285617E+04</pdfrwt>
<totfact> 0.14428042E+00</totfact>
</mgrwt>
</event>
<event>
 6    1  0.1762360E-005  0.1395671E+04  0.7818608E-02  0.8956958E-01
         -3   -1    0    0    0  501 -0.00000000000E+00  0.00000000000E+00  0.21471129093E+04  0.21471129093E+04  0.00000000000E+00 0.  1.
          3   -1    0    0  501    0  0.00000000000E+00 -0.00000000000E+00 -0.22680429688E+03  0.22680429688E+03  0.00000000000E+00 0. -1.
         23    2    1    2    0    0 -0.61523001429E+03  0.31139625094E+03  0.82076299044E+03  0.10760434949E+04  0.93499309438E+02 0.  0.
         13    1    3    3    0    0 -0.18398165702E+03  0.12878044839E+03  0.31370054037E+03  0.38580005577E+03  0.00000000000E+00 0. -1.
        -13    1    3    3    0    0 -0.43124835727E+03  0.18261580255E+03  0.50706245007E+03  0.69024343913E+03  0.00000000000E+00 0.  1.
         22    1    1    2    0    0  0.61523001429E+03 -0.31139625094E+03  0.10995456220E+04  0.12978737113E+04  0.00000000000E+00 0.  1.
<mgrwt>
<rscale>  0 0.13956711E+04</rscale>
<asrwt>0</asrwt>
<pdfrwt beam="1">  1        3 0.34892970E-01 0.13956711E+04</pdfrwt>
<pdfrwt beam="2">  1       -3 0.33032505E+00 0.13956711E+04</pdfrwt>
<totfact> 0.53760594E-01</totfact>
</mgrwt>
</event>
<event>
 6    1  0.1762360E-005  0.1064196E+04  0.7818608E-02  0.9240809E-01
          1   -1    0    0  501    0  0.00000000000E+00  0.00000000000E+00  0.42514098440E+03  0.42514098440E+03  0.00000000000E+00 0. -1.
         -1   -1    0    0    0  501 -0.00000000000E+00 -0.00000000000E+00 -0.66596339707E+03  0.66596339707E+03  0.00000000000E+00 0.  1.
         23    2    1    2    0    0 -0.12029441780E+03 -0.15770093189E+03 -0.62325773025E+03  0.66029455916E+03  0.90544882031E+02 0.  0.
         13    1    3    3    0    0  0.65365585480E+01 -0.33310677468E+02 -0.17220147583E+03  0.17551545832E+03  0.00000000000E+00 0.  1.
        -13    1    3    3    0    0 -0.12683097635E+03 -0.12439025443E+03 -0.45105625441E+03  0.48477910083E+03  0.00000000000E+00 0. -1.
         22    1    1    2    0    0  0.12029441780E+03  0.15770093189E+03  0.38243531758E+03  0.43080982232E+03  0.00000000000E+00 0. -1.
<mgrwt>
<rscale>  0 0.10641961E+04</rscale>
<asrwt>0</asrwt>
<pdfrwt beam="1">  1        1 0.65406305E-01 0.10641961E+04</pdfrwt>
<pdfrwt beam="2">  1       -1 0.10245591E+00 0.10641961E+04</pdfrwt>
<totfact> 0.49798960E+01</totfact>
</mgrwt>
</event>
<event>
 6    1  0.1762360E-005  0.6628243E+03  0.7818608E-02  0.9783008E-01
          2   -1    0    0  501    0  0.00000000000E+00  0.00000000000E+00  0.69134750755E+03  0.69134750755E+03  0.00000000000E+00 0. -1.
         -2   -1    0    0    0  501 -0.00000000000E+00 -0.00000000000E+00 -0.15886948083E+03  0.15886948083E+03  0.00000000000E+00 0.  1.
         23    2    1    2    0    0 -0.13187108178E+03 -0.11491307740E+03 -0.74313364189E+02  0.21871814463E+03  0.10825965604E+03 0.  0.
         13    1    3    3    0    0 -0.15907875720E+02  0.18355396739E+02  0.54412762892E+01  0.24891536454E+02  0.00000000000E+00 0. -1.
        -13    1    3    3    0    0 -0.11596320606E+03 -0.13326847414E+03 -0.79754640478E+02  0.19382660817E+03  0.00000000000E+00 0.  1.
         22    1    1    2    0    0  0.13187108178E+03  0.11491307740E+03  0.60679139092E+03  0.63149884375E+03  0.00000000000E+00 0. -1.
<mgrwt>
<rscale>  0 0.66282432E+03</rscale>
<asrwt>0</asrwt>
<pdfrwt beam="1">  1        2 0.10636115E+00 0.66282432E+03</pdfrwt>
<pdfrwt beam="2">  1       -2 0.24441459E-01 0.66282432E+03</pdfrwt>
<totfact> 0.62510084E+02</totfact>
</mgrwt>
</event>
<event>
 6    1  0.1762360E-005  0.2399009E+04  0.7818608E-02  0.8439875E-01
          2   -1    0    0  501    0  0.00000000000E+00  0.00000000000E+00  0.29400000634E+04  0.29400000634E+04  0.00000000000E+00 0.  1.
         -2   -1    0    0    0  501 -0.00000000000E+00 -0.00000000000E+00 -0.48939153384E+03  0.48939153384E+03  0.00000000000E+00 0. -1.
         23    2    1    2    0    0 -0.34955737146E+03  0.85838355789E+03  0.14224127935E+03  0.94190852187E+03  0.89142546630E+02 0.  0.
         11    1    3    3    0    0 -0.30959725320E+03  0.79633331405E+03  0.15081788296E+03  0.86760776857E+03  0.00000000000E+00 0.  1.
        -11    1    3    3    0    0 -0.39960118256E+02  0.62050243842E+02 -0.85766036119E+01  0.74300753303E+02  0.00000000000E+00 0. -1.
         22    1    1    2    0    0  0.34955737146E+03 -0.85838355789E+03  0.23083672502E+04  0.24874830754E+04  0.00000000000E+00 0.  1.
<mgrwt>
<rscale>  0 0.23990091E+04</rscale>
<asrwt>0</asrwt>
<pdfrwt beam="1">  1        2 0.45230769E+00 0.23990091E+04</pdfrwt>
<pdfrwt beam="2">  1       -2 0.75291007E-01 0.23990091E+04</pdfrwt>
<totfact> 0.27029952E+00</totfact>
</mgrwt>
</event>
<event>
 6    1  0.1762360E-005  0.2161573E+04  0.7818608E-02  0.8534595E-01
         -1   -1    0    0    0  501 -0.00000000000E+00  0.00000000000E+00  0.95222279645E+03  0.95222279645E+03  0.00000000000E+00 0.  1.
          1   -1    0    0  501    0  0.00000000000E+00 -0.00000000000E+00 -0.12267083591E+04  0.12267083591E+04  0.00000000000E+00 0. -1.
         23    2    1    2    0    0  0.10726241258E+04  0.77070630350E+02 -0.22386067348E+03  0.11023507931E+04  0.92743046132E+02 0.  0.
         11    1    3    3    0    0  0.46101107844E+03  0.18097815781E+02 -0.14041794285E+03  0.48226128194E+03  0.00000000000E+00 0. -1.
        -11    1    3    3    0    0  0.61161304736E+03  0.58972814570E+02 -0.83442730627E+02  0.62008951117E+03  0.00000000000E+00 0.  1.
         22    1    1    2    0    0 -0.10726241258E+04 -0.77070630350E+02 -0.50624889132E+02  0.10765803624E+04  0.00000000000E+00 0. -1.
<mgrwt>
<rscale>  0 0.21615732E+04</rscale>
<asrwt>0</asrwt>
<pdfrwt beam="1">  1        1 0.18872436E+00 0.21615732E+04</pdfrwt>
<pdfrwt beam="2">  1       -1 0.14649582E+00 0.21615732E+04</pdfrwt>
<totfact> 0.34748304E+00</totfact>
</mgrwt>
</event>
<event>
 6    1  0.1762360E-005  0.9488660E+03  0.7818608E-02  0.9366477E-01
          2   -1    0    0  501    0  0.00000000000E+00  0.00000000000E+00  0.33988690941E+03  0.33988690941E+03  0.00000000000E+00 0. -1.
         -2   -1    0    0    0  501 -0.00000000000E+00 -0.00000000000E+00 -0.66223990355E+03  0.66223990355E+03  0.00000000000E+00 0.  1.
         23    2    1    2    0    0  0.46673784555E+03  0.32607628611E+02 -0.21161847593E+03  0.52132580690E+03  0.89948561250E+02 0.  0.
         11    1    3    3    0    0  0.43838648368E+03  0.42042020701E+02 -0.17458332219E+03  0.47373998877E+03  0.00000000000E+00 0. -1.
        -11    1    3    3    0    0  0.28351361872E+02 -0.94343920909E+01 -0.37035153738E+02  0.47585818124E+02  0.00000000000E+00 0.  1.
         22    1    1    2    0    0 -0.46673784555E+03 -0.32607628611E+02 -0.11073451822E+03  0.48080100607E+03  0.00000000000E+00 0.  1.
<mgrwt>
<rscale>  0 0.94886601E+03</rscale>
<asrwt>0</asrwt>
<pdfrwt beam="1">  1        2 0.52290294E-01 0.94886601E+03</pdfrwt>
<pdfrwt beam="2">  1       -2 0.10188306E+00 0.94886601E+03</pdfrwt>
<totfact> 0.75536022E+01</totfact>
</mgrwt>
</event>
<event>
 6    1  0.1762360E-005  0.4275926E+03  0.7818608E-02  0.1034623E+00
          2   -1    0    0  501    0  0.00000000000E+00  0.00000000000E+00  0.73504873626E+03  0.73504873626E+03  0.00000000000E+00 0. -1.
         -2   -1    0    0    0  501 -0.00000000000E+00 -0.00000000000E+00 -0.62184784717E+02  0.62184784717E+02  0.00000000000E+00 0.  1.
         23    2    1    2    0    0  0.18503126141E+03  0.71882718917E+02  0.26100110736E+03  0.34003039829E+03  0.89974444910E+02 0.  0.
         13    1    3    3    0    0  0.88010688252E+02  0.78110462804E+02  0.11436333575E+03  0.16409173718E+03  0.00000000000E+00 0.  1.
        -13    1    3    3    0    0  0.97020573163E+02 -0.62277438865E+01  0.14663777161E+03  0.17593866111E+03  0.00000000000E+00 0. -1.
         22    1    1    2    0    0 -0.18503126141E+03 -0.71882718917E+02  0.41186284418E+03  0.45720312269E+03  0.00000000000E+00 0.  1.
<mgrwt>
<rscale>  0 0.42759255E+03</rscale>
<asrwt>0</asrwt>
<pdfrwt beam="1">  1        2 0.11308441E+00 0.42759255E+03</pdfrwt>
<pdfrwt beam="2">  1       -2 0.95668905E-02 0.42759255E+03</pdfrwt>
<totfact> 0.28267371E+03</totfact>
</mgrwt>
</event>
<event>
 6    1  0.1762360E-005  0.2923878E+04  0.7818608E-02  0.8265808E-01
         -1   -1    0    0    0  501 -0.00000000000E+00  0.00000000000E+00  0.76726000919E+03  0.76726000919E+03  0.00000000000E+00 0.  1.
          1   -1    0    0  501    0  0.00000000000E+00 -0.00000000000E+00 -0.27855822701E+04  0.27855822701E+04  0.00000000000E+00 0. -1.
         23    2    1    2    0    0  0.57488648376E+03  0.44820477422E+03 -0.25478721624E+04  0.26518400112E+04  0.96025518775E+02 0.  0.
         13    1    3    3    0    0  0.41452487533E+02  0.69993578694E+02 -0.28012773431E+03  0.29170011537E+03  0.00000000000E+00 0.  1.
        -13    1    3    3    0    0  0.53343399623E+03  0.37821119553E+03 -0.22677444281E+04  0.23601398959E+04  0.00000000000E+00 0. -1.
         22    1    1    2    0    0 -0.57488648376E+03 -0.44820477422E+03  0.52954990152E+03  0.90100226805E+03  0.00000000000E+00 0.  1.
<mgrwt>
<rscale>  0 0.29238782E+04</rscale>
<asrwt>0</asrwt>
<pdfrwt beam="1">  1        1 0.42855111E+00 0.29238782E+04</pdfrwt>
<pdfrwt beam="2">  1       -1 0.11804000E+00 0.29238782E+04</pdfrwt>
<totfact> 0.47084907E-01</totfact>
</mgrwt>
</event>
<event>
 6    1  0.1762360E-005  0.1484712E+04  0.7818608E-02  0.8894683E-01
         -1   -1    0    0    0  501 -0.00000000000E+00  0.00000000000E+00  0.29427010637E+03  0.29427010637E+03  0.00000000000E+00 0.  1.
          1   -1    0    0  501    0  0.00000000000E+00 -0.00000000000E+00 -0.18727432134E+04  0.18727432134E+04  0.00000000000E+00 0. -1.
         23    2    1    2    0    0 -0.14255253860E+03  0.51264745096E+03 -0.42655448333E+02  0.54163197498E+03  0.91744611907E+02 0.  0.
         11    1    3    3    0    0 -0.37091423022E+02  0.18789298449E+03 -0.57184109937E+02  0.19987388452E+03  0.00000000000E+00 0.  1.
        -11    1    3    3    0    0 -0.10546111558E+03  0.32475446647E+03  0.14528661604E+02  0.34175809046E+03  0.00000000000E+00 0. -1.
         22    1    1    2    0    0  0.14255253860E+03 -0.51264745096E+03 -0.15358176587E+04  0.16253813448E+04  0.00000000000E+00 0. -1.
<mgrwt>
<rscale>  0 0.14847119E+04</rscale>
<asrwt>0</asrwt>
<pdfrwt beam="1">  1        1 0.28811434E+00 0.14847119E+04</pdfrwt>
<pdfrwt beam="2">  1       -1 0.45272325E-01 0.14847119E+04</pdfrwt>
<totfact> 0.17058312E+01</totfact>
</mgrwt>
</event>
<event>
 6    1  0.1762360E-005  0.1006410E+04  0.7818608E-02  0.9301542E-01
         -1   -1    0    0    0  501 -0.00000000000E+00  0.00000000000E+00  0.22436689722E+03  0.22436689722E+03  0.00000000000E+00 0.  1.
          1   -1    0    0  501    0  0.00000000000E+00 -0.00000000000E+00 -0.11285771149E+04  0.11285771149E+04  0.00000000000E+00 0. -1.
         23    2    1    2    0    0  0.16918055888E+03 -0.20062640912E+03  0.11451145577E+03  0.30096166175E+03  0.92693207957E+02 0.  0.
         11    1    3    3    0    0  0.39292290724E+02 -0.83814698397E+02  0.81180529296E+02  0.12312215932E+03  0.00000000000E+00 0. -1.
        -11    1    3    3    0    0  0.12988826816E+03 -0.11681171072E+03  0.33330926477E+02  0.17783950244E+03  0.00000000000E+00 0.  1.
         22    1    1    2    0    0 -0.16918055888E+03  0.20062640912E+03 -0.10187216734E+04  0.10519823504E+04  0.00000000000E+00 0. -1.
<mgrwt>
<rscale>  0 0.10064101E+04</rscale>
<asrwt>0</asrwt>
<pdfrwt beam="1">  1        1 0.17362725E+00 0.10064101E+04</pdfrwt>
<pdfrwt beam="2">  1       -1 0.34517984E-01 0.10064101E+04</pdfrwt>
<totfact> 0.96111449E+01</totfact>
</mgrwt>
</event>
<event>
 6    1  0.1762360E-005  0.2334171E+04  0.7818608E-02  0.8464568E-01
         -1   -1    0    0    0  501 -0.00000000000E+00  0.00000000000E+00  0.81417254259E+03  0.81417254259E+03  0.00000000000E+00 0.  1.
          1   -1    0    0  501    0  0.00000000000E+00 -0.00000000000E+00 -0.16729732846E+04  0.16729732846E+04  0.00000000000E+00 0. -1.
         23    2    1    2    0    0  0.76060673836E+03  0.52504230525E+03  0.32638671619E+03  0.98419494848E+03  0.88990872444E+02 0.  0.
         11    1    3    3    0    0  0.30336229189E+03  0.23587348548E+03  0.17608919415E+03  0.42269656444E+03  0.00000000000E+00 0.  1.
        -11    1    3    3    0    0  0.45724444647E+03  0.28916881977E+03  0.15029752204E+03  0.56149838404E+03  0.00000000000E+00 0. -1.
         22    1    1    2    0    0 -0.76060673836E+03 -0.52504230525E+03 -0.11851874582E+04  0.15029508787E+04  0.00000000000E+00 0. -1.
<mgrwt>
<rscale>  0 0.23341713E+04</rscale>
<asrwt>0</asrwt>
<pdfrwt beam="1">  1        1 0.25738050E+00 0.23341713E+04</pdfrwt>
<pdfrwt beam="2">  1       -1 0.12525731E+00 0.23341713E+04</pdfrwt>
<totfact> 0.24952086E+00</totfact>
</mgrwt>
</event>
<event>
 6    1  0.1762360E-005  0.1182955E+04  0.7818608E-02  0.9127908E-01
         -2   -1    0    0    0  501 -0.00000000000E+00  0.00000000000E+00  0.37370023842E+03  0.37370023842E+03  0.00000000000E+00 0.  1.
          2   -1    0    0  501    0  0.00000000000E+00 -0.00000000000E+00 -0.93616687964E+03  0.93616687964E+03  0.00000000000E+00 0. -1.
         23    2    1    2    0    0 -0.38003937694E+03 -0.40763924655E+03 -0.75594731395E+02  0.56983742951E+03  0.91653965009E+02 0.  0.
         11    1    3    3    0    0 -0.16371242592E+03 -0.23212962665E+03 -0.63163737408E+02  0.29099068660E+03  0.00000000000E+00 0.  1.
        -11    1    3    3    0    0 -0.21632695102E+03 -0.17550961991E+03 -0.12430993986E+02  0.27884674291E+03  0.00000000000E+00 0. -1.
         22    1    1    2    0    0  0.38003937694E+03  0.40763924655E+03 -0.48687190983E+03  0.74002968855E+03  0.00000000000E+00 0. -1.
<mgrwt>
<rscale>  0 0.11829553E+04</rscale>
<asrwt>0</asrwt>
<pdfrwt beam="1">  1        2 0.14402567E+00 0.11829553E+04</pdfrwt>
<pdfrwt beam="2">  1       -2 0.57492345E-01 0.11829553E+04</pdfrwt>
<totfact> 0.77630250E+01</totfact>
</mgrwt>
</event>
<event>
 6    1  0.1762360E-005  0.1205547E+04  0.7818608E-02  0.9108015E-01
          1   -1    0    0  501    0  0.00000000000E+00  0.00000000000E+00  0.12511361816E+04  0.12511361816E+04  0.00000000000E+00 0. -1.
         -1   -1    0    0    0  501 -0.00000000000E+00 -0.00000000000E+00 -0.29040497257E+03  0.29040497257E+03  0.00000000000E+00 0.  1.
         23    2    1    2    0    0  0.27741454478E+03  0.31891817036E+03 -0.60268207874E+02  0.43650385238E+03  0.90750907554E+02 0.  0.
         11    1    3    3    0    0  0.11596873217E+03  0.16962599078E+03  0.98125954978E+01  0.20571341867E+03  0.00000000000E+00 0.  1.
        -11    1    3    3    0    0  0.16144581260E+03  0.14929217958E+03 -0.70080803372E+02  0.23079043371E+03  0.00000000000E+00 0. -1.
         22    1    1    2    0    0 -0.27741454478E+03 -0.31891817036E+03  0.10209994169E+04  0.11050373018E+04  0.00000000000E+00 0. -1.
<mgrwt>
<rscale>  0 0.12055475E+04</rscale>
<asrwt>0</asrwt>
<pdfrwt beam="1">  1        1 0.19248249E+00 0.12055475E+04</pdfrwt>
<pdfrwt beam="2">  1       -1 0.44677689E-01 0.12055475E+04</pdfrwt>
<totfact> 0.48146452E+01</totfact>
</mgrwt>
</event>
<event>
 6    1  0.1762360E-005  0.2767743E+04  0.7818608E-02  0.8313354E-01
         -2   -1    0    0    0  501 -0.00000000000E+00  0.00000000000E+00  0.86067558244E+03  0.86067558244E+03  0.00000000000E+00 0.  1.
          2   -1    0    0  501    0  0.00000000000E+00 -0.00000000000E+00 -0.22251122880E+04  0.22251122880E+04  0.00000000000E+00 0. -1.
         23    2    1    2    0    0  0.11004510707E+04  0.87055040760E+02 -0.16106420198E+04  0.19547758475E+04  0.91704737628E+02 0.  0.
         11    1    3    3    0    0  0.95029084196E+03  0.58872353936E+02 -0.14330417323E+04  0.17205020328E+04  0.00000000000E+00 0. -1.
        -11    1    3    3    0    0  0.15016022876E+03  0.28182686824E+02 -0.17760028750E+03  0.23427381470E+03  0.00000000000E+00 0.  1.
         22    1    1    2    0    0 -0.11004510707E+04 -0.87055040760E+02  0.24620531428E+03  0.11310120229E+04  0.00000000000E+00 0.  1.
<mgrwt>
<rscale>  0 0.27677426E+04</rscale>
<asrwt>0</asrwt>
<pdfrwt beam="1">  1        2 0.34232496E+00 0.27677426E+04</pdfrwt>
<pdfrwt beam="2">  1       -2 0.13241163E+00 0.27677426E+04</pdfrwt>
<totfact> 0.18073655E+00</totfact>
</mgrwt>
</event>
<event>
 6    1  0.1762360E-005  0.3744138E+04  0.7818608E-02  0.8058250E-01
          2   -1    0    0  501    0  0.00000000000E+00  0.00000000000E+00  0.35948670447E+04  0.35948670447E+04  0.00000000000E+00 0. -1.
         -2   -1    0    0    0  501 -0.00000000000E+00 -0.00000000000E+00 -0.97490176894E+03  0.97490176894E+03  0.00000000000E+00 0.  1.
         23    2    1    2    0    0  0.62951698778E+03 -0.35812193887E+03 -0.79474025914E+03  0.10791017067E+04  0.91134257991E+02 0.  0.
         13    1    3    3    0    0  0.23158594373E+03 -0.13048915200E+03 -0.35828766779E+03  0.44612724756E+03  0.00000000000E+00 0.  1.
        -13    1    3    3    0    0  0.39793104405E+03 -0.22763278687E+03 -0.43645259136E+03  0.63297445918E+03  0.00000000000E+00 0. -1.
         22    1    1    2    0    0 -0.62951698778E+03  0.35812193887E+03  0.34147055349E+04  0.34906671069E+04  0.00000000000E+00 0. -1.
<mgrwt>
<rscale>  0 0.37441379E+04</rscale>
<asrwt>0</asrwt>
<pdfrwt beam="1">  1        2 0.55305646E+00 0.37441379E+04</pdfrwt>
<pdfrwt beam="2">  1       -2 0.14998489E+00 0.37441379E+04</pdfrwt>
<totfact> 0.16774872E-01</totfact>
</mgrwt>
</event>
<event>
 6    1  0.1762360E-005  0.3782213E+04  0.7818608E-02  0.8049983E-01
         -1   -1    0    0    0  501 -0.00000000000E+00  0.00000000000E+00  0.19746194747E+04  0.19746194747E+04  0.00000000000E+00 0.  1.
          1   -1    0    0  501    0  0.00000000000E+00 -0.00000000000E+00 -0.18111252883E+04  0.18111252883E+04  0.00000000000E+00 0. -1.
         23    2    1    2    0    0  0.90569455496E+03 -0.64426001118E+03  0.16118359721E+04  0.19600811803E+04  0.92463201327E+02 0.  0.
         11    1    3    3    0    0  0.38494185993E+03 -0.32621253442E+03  0.69940678964E+03  0.86241794424E+03  0.00000000000E+00 0. -1.
        -11    1    3    3    0    0  0.52075269503E+03 -0.31804747675E+03  0.91242918242E+03  0.10976632361E+04  0.00000000000E+00 0.  1.
         22    1    1    2    0    0 -0.90569455496E+03  0.64426001118E+03 -0.14483417857E+04  0.18256635827E+04  0.00000000000E+00 0. -1.
<mgrwt>
<rscale>  0 0.37822127E+04</rscale>
<asrwt>0</asrwt>
<pdfrwt beam="1">  1        1 0.27863466E+00 0.37822127E+04</pdfrwt>
<pdfrwt beam="2">  1       -1 0.30378761E+00 0.37822127E+04</pdfrwt>
<totfact> 0.99554055E-02</totfact>
</mgrwt>
</event>
<event>
 6    1  0.1762360E-005  0.8018428E+03  0.7818608E-02  0.9557354E-01
          1   -1    0    0  501    0  0.00000000000E+00  0.00000000000E+00  0.17963915368E+04  0.17963915368E+04  0.00000000000E+00 0. -1.
         -1   -1    0    0    0  501 -0.00000000000E+00 -0.00000000000E+00 -0.89478246042E+02  0.89478246042E+02  0.00000000000E+00 0.  1.
         23    2    1    2    0    0 -0.26674149255E+03  0.28063287047E+03  0.66913268554E+03  0.77821712231E+03  0.89316889491E+02 0.  0.
         13    1    3    3    0    0 -0.42934799095E+02  0.67631936997E+01  0.65873689362E+02  0.78920724227E+02  0.00000000000E+00 0.  1.
        -13    1    3    3    0    0 -0.22380669346E+03  0.27386967677E+03  0.60325899618E+03  0.69929639808E+03  0.00000000000E+00 0. -1.
         22    1    1    2    0    0  0.26674149255E+03 -0.28063287047E+03  0.10377806052E+04  0.11076526605E+04  0.00000000000E+00 0.  1.
<mgrwt>
<rscale>  0 0.80184279E+03</rscale>
<asrwt>0</asrwt>
<pdfrwt beam="1">  1        1 0.27636790E+00 0.80184279E+03</pdfrwt>
<pdfrwt beam="2">  1       -1 0.13765885E-01 0.80184279E+03</pdfrwt>
<totfact> 0.15814508E+02</totfact>
</mgrwt>
</event>
<event>
 6    1  0.1762360E-005  0.3663438E+04  0.7818608E-02  0.8076113E-01
          2   -1    0    0  501    0  0.00000000000E+00  0.00000000000E+00  0.40238616586E+04  0.40238616586E+04  0.00000000000E+00 0. -1.
         -2   -1    0    0    0  501 -0.00000000000E+00 -0.00000000000E+00 -0.83382449099E+03  0.83382449099E+03  0.00000000000E+00 0.  1.
         23    2    1    2    0    0 -0.83571431581E+03 -0.80383234528E+03  0.34743386855E+04  0.36637882435E+04  0.88034849289E+02 0.  0.
         11    1    3    3    0    0 -0.50146341596E+03 -0.49471440881E+03  0.22408362122E+04  0.23489476013E+04  0.00000000000E+00 0. -1.
        -11    1    3    3    0    0 -0.33425089986E+03 -0.30911793648E+03  0.12335024733E+04  0.13148406422E+04  0.00000000000E+00 0.  1.
         22    1    1    2    0    0  0.83571431581E+03  0.80383234528E+03 -0.28430151793E+03  0.11938979061E+04  0.00000000000E+00 0.  1.
<mgrwt>
<rscale>  0 0.36634379E+04</rscale>
<asrwt>0</asrwt>
<pdfrwt beam="1">  1        2 0.61905563E+00 0.36634379E+04</pdfrwt>
<pdfrwt beam="2">  1       -2 0.12828069E+00 0.36634379E+04</pdfrwt>
<totfact> 0.11877936E-01</totfact>
</mgrwt>
</event>
<event>
 6    1  0.1762360E-005  0.1417439E+04  0.7818608E-02  0.8941291E-01
         -2   -1    0    0    0  501 -0.00000000000E+00  0.00000000000E+00  0.53709699099E+03  0.53709699099E+03  0.00000000000E+00 0.  1.
          2   -1    0    0  501    0  0.00000000000E+00 -0.00000000000E+00 -0.93518158234E+03  0.93518158234E+03  0.00000000000E+00 0. -1.
         23    2    1    2    0    0 -0.61664119647E+03 -0.14242491219E+02  0.15638864082E+03  0.64288736351E+03  0.91638100376E+02 0.  0.
         13    1    3    3    0    0 -0.24559002965E+03 -0.45936336212E+02  0.83389087408E+02  0.26339770225E+03  0.00000000000E+00 0.  1.
        -13    1    3    3    0    0 -0.37105116682E+03  0.31693844992E+02  0.72999553410E+02  0.37948966126E+03  0.00000000000E+00 0. -1.
         22    1    1    2    0    0  0.61664119647E+03  0.14242491219E+02 -0.55447323216E+03  0.82939120982E+03  0.00000000000E+00 0. -1.
<mgrwt>
<rscale>  0 0.14174388E+04</rscale>
<asrwt>0</asrwt>
<pdfrwt beam="1">  1        2 0.14387409E+00 0.14174388E+04</pdfrwt>
<pdfrwt beam="2">  1       -2 0.82630306E-01 0.14174388E+04</pdfrwt>
<totfact> 0.34695401E+01</totfact>
</mgrwt>
</event>
<event>
 6    1  0.1762360E-005  0.1987159E+04  0.7818608E-02  0.8612648E-01
          2   -1    0    0  501    0  0.00000000000E+00  0.00000000000E+00  0.12882958449E+04  0.12882958449E+04  0.00000000000E+00 0. -1.
         -2   -1    0    0    0  501 -0.00000000000E+00 -0.00000000000E+00 -0.76628343854E+03  0.76628343854E+03  0.00000000000E+00 0.  1.
         23    2    1    2    0    0  0.50141656920E+03 -0.85021174882E+03  0.16515526971E+03  0.10049957424E+04  0.91986876050E+02 0.  0.
         13    1    3    3    0    0  0.22181859951E+03 -0.46256588417E+03  0.71732616616E+02  0.51799252559E+03  0.00000000000E+00 0. -1.
        -13    1    3    3    0    0  0.27959796970E+03 -0.38764586465E+03  0.93422653098E+02  0.48700321678E+03  0.00000000000E+00 0.  1.
         22    1    1    2    0    0 -0.50141656920E+03  0.85021174882E+03  0.35685713663E+03  0.10495835411E+04  0.00000000000E+00 0. -1.
<mgrwt>
<rscale>  0 0.19871585E+04</rscale>
<asrwt>0</asrwt>
<pdfrwt beam="1">  1        2 0.19819936E+00 0.19871585E+04</pdfrwt>
<pdfrwt beam="2">  1       -2 0.11788976E+00 0.19871585E+04</pdfrwt>
<totfact> 0.86678654E+00</totfact>
</mgrwt>
</event>
<event>
 6    1  0.1762360E-005  0.1969264E+04  0.7818608E-02  0.8621127E-01
          2   -1    0    0  501    0  0.00000000000E+00  0.00000000000E+00  0.13657250435E+04  0.13657250435E+04  0.00000000000E+00 0. -1.
         -2   -1    0    0    0  501 -0.00000000000E+00 -0.00000000000E+00 -0.70987982758E+03  0.70987982758E+03  0.00000000000E+00 0.  1.
         23    2    1    2    0    0 -0.54903170403E+03 -0.73599657824E+03  0.69711955146E+03  0.11564583397E+04  0.91068366151E+02 0.  0.
         13    1    3    3    0    0 -0.25194946081E+03 -0.27794444768E+03  0.25044257197E+03  0.45105778859E+03  0.00000000000E+00 0.  1.
        -13    1    3    3    0    0 -0.29708224323E+03 -0.45805213056E+03  0.44667697949E+03  0.70540055115E+03  0.00000000000E+00 0. -1.
         22    1    1    2    0    0  0.54903170403E+03  0.73599657824E+03 -0.41274335588E+02  0.91914653130E+03  0.00000000000E+00 0.  1.
<mgrwt>
<rscale>  0 0.19692645E+04</rscale>
<asrwt>0</asrwt>
<pdfrwt beam="1">  1        2 0.21011154E+00 0.19692645E+04</pdfrwt>
<pdfrwt beam="2">  1       -2 0.10921228E+00 0.19692645E+04</pdfrwt>
<totfact> 0.94301444E+00</totfact>
</mgrwt>
</event>
<event>
 6    1  0.1762360E-005  0.8479006E+03  0.7818608E-02  0.9493159E-01
         -1   -1    0    0    0  501 -0.00000000000E+00  0.00000000000E+00  0.26216360472E+03  0.26216360472E+03  0.00000000000E+00 0.  1.
          1   -1    0    0  501    0  0.00000000000E+00 -0.00000000000E+00 -0.68557904132E+03  0.68557904132E+03  0.00000000000E+00 0. -1.
         23    2    1    2    0    0 -0.23260434523E+03  0.33313081139E+02  0.17339556421E+03  0.30633956413E+03  0.92538446425E+02 0.  0.
         13    1    3    3    0    0 -0.81521685992E+02  0.53313692184E+02  0.89964899292E+02  0.13259644854E+03  0.00000000000E+00 0. -1.
        -13    1    3    3    0    0 -0.15108265924E+03 -0.20000611045E+02  0.83430664919E+02  0.17374311558E+03  0.00000000000E+00 0.  1.
         22    1    1    2    0    0  0.23260434523E+03 -0.33313081139E+02 -0.59681100082E+03  0.64140308192E+03  0.00000000000E+00 0. -1.
<mgrwt>
<rscale>  0 0.84790064E+03</rscale>
<asrwt>0</asrwt>
<pdfrwt beam="1">  1        1 0.10547370E+00 0.84790064E+03</pdfrwt>
<pdfrwt beam="2">  1       -1 0.40332862E-01 0.84790064E+03</pdfrwt>
<totfact> 0.17019981E+02</totfact>
</mgrwt>
</event>
<event>
 6    1  0.1762360E-005  0.2874485E+04  0.7818608E-02  0.8280510E-01
          1   -1    0    0  501    0  0.00000000000E+00  0.00000000000E+00  0.13135084231E+04  0.13135084231E+04  0.00000000000E+00 0. -1.
         -1   -1    0    0    0  501 -0.00000000000E+00 -0.00000000000E+00 -0.15726326389E+04  0.15726326389E+04  0.00000000000E+00 0.  1.
         23    2    1    2    0    0 -0.92434691894E+03  0.77189210502E+03  0.65533888941E+03  0.13740308084E+04  0.90867783745E+02 0.  0.
         11    1    3    3    0    0 -0.74217049103E+02  0.76185991842E+02  0.85802022323E+02  0.13665453803E+03  0.00000000000E+00 0. -1.
        -11    1    3    3    0    0 -0.85012986984E+03  0.69570611317E+03  0.56953686708E+03  0.12373762704E+04  0.00000000000E+00 0.  1.
         22    1    1    2    0    0  0.92434691894E+03 -0.77189210502E+03 -0.91446310519E+03  0.15121102536E+04  0.00000000000E+00 0.  1.
<mgrwt>
<rscale>  0 0.28744851E+04</rscale>
<asrwt>0</asrwt>
<pdfrwt beam="1">  1        1 0.20207822E+00 0.28744851E+04</pdfrwt>
<pdfrwt beam="2">  1       -1 0.24194348E+00 0.28744851E+04</pdfrwt>
<totfact> 0.59911028E-01</totfact>
</mgrwt>
</event>
<event>
 6    1  0.1762360E-005  0.2140981E+04  0.7818608E-02  0.8543403E-01
         -1   -1    0    0    0  501 -0.00000000000E+00  0.00000000000E+00  0.74303807193E+03  0.74303807193E+03  0.00000000000E+00 0.  1.
          1   -1    0    0  501    0  0.00000000000E+00 -0.00000000000E+00 -0.15422496085E+04  0.15422496085E+04  0.00000000000E+00 0. -1.
         23    2    1    2    0    0  0.23183313901E+02  0.10446280333E+04 -0.63851727813E+03  0.12281179501E+04  0.93724014054E+02 0.  0.
         11    1    3    3    0    0  0.10055866554E+02  0.25705072744E+03 -0.20552683409E+03  0.32926809208E+03  0.00000000000E+00 0. -1.
        -11    1    3    3    0    0  0.13127447347E+02  0.78757730590E+03 -0.43299044405E+03  0.89884985803E+03  0.00000000000E+00 0.  1.
         22    1    1    2    0    0 -0.23183313901E+02 -0.10446280333E+04 -0.16069425847E+03  0.10571697304E+04  0.00000000000E+00 0.  1.
<mgrwt>
<rscale>  0 0.21409812E+04</rscale>
<asrwt>0</asrwt>
<pdfrwt beam="1">  1        1 0.23726917E+00 0.21409812E+04</pdfrwt>
<pdfrwt beam="2">  1       -1 0.11431355E+00 0.21409812E+04</pdfrwt>
<totfact> 0.39024351E+00</totfact>
</mgrwt>
</event>
<event>
 6    1  0.1762360E-005  0.1983663E+04  0.7818608E-02  0.8614297E-01
         -2   -1    0    0    0  501 -0.00000000000E+00  0.00000000000E+00  0.41564337063E+03  0.41564337063E+03  0.00000000000E+00 0.  1.
          2   -1    0    0  501    0  0.00000000000E+00 -0.00000000000E+00 -0.23667630417E+04  0.23667630417E+04  0.00000000000E+00 0. -1.
         23    2    1    2    0    0  0.27288896011E+03  0.87734138620E+03 -0.14937600744E+04  0.17560662674E+04  0.90847581805E+02 0.  0.
         11    1    3    3    0    0  0.16536317125E+03  0.58365370733E+03 -0.90715749040E+03  0.10912980074E+04  0.00000000000E+00 0. -1.
        -11    1    3    3    0    0  0.10752578886E+03  0.29368767887E+03 -0.58660258398E+03  0.66476826002E+03  0.00000000000E+00 0.  1.
         22    1    1    2    0    0 -0.27288896011E+03 -0.87734138620E+03 -0.45735959674E+03  0.10263401450E+04  0.00000000000E+00 0.  1.
<mgrwt>
<rscale>  0 0.19836626E+04</rscale>
<asrwt>0</asrwt>
<pdfrwt beam="1">  1        2 0.36411739E+00 0.19836626E+04</pdfrwt>
<pdfrwt beam="2">  1       -2 0.63945134E-01 0.19836626E+04</pdfrwt>
<totfact> 0.87400914E+00</totfact>
</mgrwt>
</event>
<event>
 6    1  0.1762360E-005  0.2006381E+04  0.7818608E-02  0.8603643E-01
         -2   -1    0    0    0  501 -0.00000000000E+00  0.00000000000E+00  0.94607099307E+03  0.94607099307E+03  0.00000000000E+00 0.  1.
          2   -1    0    0  501    0  0.00000000000E+00 -0.00000000000E+00 -0.10637583497E+04  0.10637583497E+04  0.00000000000E+00 0. -1.
         23    2    1    2    0    0  0.74210931354E+03 -0.41776317899E+03 -0.58599768043E+03  0.10379410434E+04  0.93145161746E+02 0.  0.
         13    1    3    3    0    0  0.39275981705E+03 -0.23111376251E+03 -0.36856252815E+03  0.58609912324E+03  0.00000000000E+00 0. -1.
        -13    1    3    3    0    0  0.34934949649E+03 -0.18664941649E+03 -0.21743515228E+03  0.45184192017E+03  0.00000000000E+00 0.  1.
         22    1    1    2    0    0 -0.74210931354E+03  0.41776317899E+03  0.46831032384E+03  0.97188829933E+03  0.00000000000E+00 0.  1.
<mgrwt>
<rscale>  0 0.20063807E+04</rscale>
<asrwt>0</asrwt>
<pdfrwt beam="1">  1        2 0.16365513E+00 0.20063807E+04</pdfrwt>
<pdfrwt beam="2">  1       -2 0.14554938E+00 0.20063807E+04</pdfrwt>
<totfact> 0.69130538E+00</totfact>
</mgrwt>
</event>
<event>
 6    1  0.1762360E-005  0.1336400E+04  0.7818608E-02  0.9001188E-01
         -2   -1    0    0    0  501 -0.00000000000E+00  0.00000000000E+00  0.14491655134E+03  0.14491655134E+03  0.00000000000E+00 0.  1.
          2   -1    0    0  501    0  0.00000000000E+00 -0.00000000000E+00 -0.30810222304E+04  0.30810222304E+04  0.00000000000E+00 0. -1.
         23    2    1    2    0    0  0.57367086028E+03 -0.31368258370E+03 -0.11838375517E+04  0.13556610993E+04  0.94077883306E+02 0.  0.
         13    1    3    3    0    0  0.46852639253E+03 -0.29277734703E+03 -0.10162396046E+04  0.11567102011E+04  0.00000000000E+00 0.  1.
        -13    1    3    3    0    0  0.10514446774E+03 -0.20905236667E+02 -0.16759794716E+03  0.19895089824E+03  0.00000000000E+00 0. -1.
         22    1    1    2    0    0 -0.57367086028E+03  0.31368258370E+03 -0.17522681273E+04  0.18702776824E+04  0.00000000000E+00 0. -1.
<mgrwt>
<rscale>  0 0.13363998E+04</rscale>
<asrwt>0</asrwt>
<pdfrwt beam="1">  1        2 0.47400335E+00 0.13363998E+04</pdfrwt>
<pdfrwt beam="2">  1       -2 0.22294857E-01 0.13363998E+04</pdfrwt>
<totfact> 0.26991909E+01</totfact>
</mgrwt>
</event>
<event>
 6    1  0.1762360E-005  0.1866855E+04  0.7818608E-02  0.8671533E-01
          1   -1    0    0  501    0  0.00000000000E+00  0.00000000000E+00  0.15306381030E+04  0.15306381030E+04  0.00000000000E+00 0. -1.
         -1   -1    0    0    0  501 -0.00000000000E+00 -0.00000000000E+00 -0.56923128393E+03  0.56923128393E+03  0.00000000000E+00 0.  1.
         23    2    1    2    0    0 -0.81986053316E+03 -0.26506143037E+02 -0.13990877255E+02  0.82539909090E+03  0.90631369591E+02 0.  0.
         13    1    3    3    0    0 -0.59884937190E+03  0.18188080568E+02  0.46641714241E+01  0.59914366473E+03  0.00000000000E+00 0. -1.
        -13    1    3    3    0    0 -0.22101116126E+03 -0.44694223605E+02 -0.18655048679E+02  0.22625542616E+03  0.00000000000E+00 0.  1.
         22    1    1    2    0    0  0.81986053316E+03  0.26506143037E+02  0.97539769629E+03  0.12744702960E+04  0.00000000000E+00 0. -1.
<mgrwt>
<rscale>  0 0.18668552E+04</rscale>
<asrwt>0</asrwt>
<pdfrwt beam="1">  1        1 0.23548278E+00 0.18668552E+04</pdfrwt>
<pdfrwt beam="2">  1       -1 0.87574044E-01 0.18668552E+04</pdfrwt>
<totfact> 0.74976269E+00</totfact>
</mgrwt>
</event>
<event>
 6    1  0.1762360E-005  0.2210093E+04  0.7818608E-02  0.8514239E-01
         -1   -1    0    0    0  501 -0.00000000000E+00  0.00000000000E+00  0.17820885402E+04  0.17820885402E+04  0.00000000000E+00 0.  1.
          1   -1    0    0  501    0  0.00000000000E+00 -0.00000000000E+00 -0.68522264971E+03  0.68522264971E+03  0.00000000000E+00 0. -1.
         23    2    1    2    0    0  0.10875761277E+04  0.15945014865E+03  0.65490498484E+03  0.12825852193E+04  0.88758785993E+02 0.  0.
         11    1    3    3    0    0  0.14723867556E+03  0.25871397768E+02  0.55411762278E+02  0.15943343502E+03  0.00000000000E+00 0. -1.
        -11    1    3    3    0    0  0.94033745214E+03  0.13357875088E+03  0.59949322256E+03  0.11231517843E+04  0.00000000000E+00 0.  1.
         22    1    1    2    0    0 -0.10875761277E+04 -0.15945014865E+03  0.44196090569E+03  0.11847259707E+04  0.00000000000E+00 0.  1.
<mgrwt>
<rscale>  0 0.22100927E+04</rscale>
<asrwt>0</asrwt>
<pdfrwt beam="1">  1        1 0.10541887E+00 0.22100927E+04</pdfrwt>
<pdfrwt beam="2">  1       -1 0.27416747E+00 0.22100927E+04</pdfrwt>
<totfact> 0.12447051E+00</totfact>
</mgrwt>
</event>
<event>
 6    1  0.1762360E-005  0.1400095E+04  0.7818608E-02  0.8953750E-01
         -1   -1    0    0    0  501 -0.00000000000E+00  0.00000000000E+00  0.93231389728E+03  0.93231389728E+03  0.00000000000E+00 0.  1.
          1   -1    0    0  501    0  0.00000000000E+00 -0.00000000000E+00 -0.52564521004E+03  0.52564521004E+03  0.00000000000E+00 0. -1.
         23    2    1    2    0    0 -0.45130727011E+03  0.48520615078E+03  0.42955039062E+03  0.79491549401E+03  0.90960671344E+02 0.  0.
         13    1    3    3    0    0 -0.40542201583E+02  0.57886692687E+02  0.16826349875E+02  0.72647541937E+02  0.00000000000E+00 0. -1.
        -13    1    3    3    0    0 -0.41076506853E+03  0.42731945809E+03  0.41272404074E+03  0.72226795207E+03  0.00000000000E+00 0.  1.
         22    1    1    2    0    0  0.45130727011E+03 -0.48520615078E+03 -0.22881703366E+02  0.66304361331E+03  0.00000000000E+00 0. -1.
<mgrwt>
<rscale>  0 0.14000948E+04</rscale>
<asrwt>0</asrwt>
<pdfrwt beam="1">  1        1 0.80868494E-01 0.14000948E+04</pdfrwt>
<pdfrwt beam="2">  1       -1 0.14343291E+00 0.14000948E+04</pdfrwt>
<totfact> 0.15855052E+01</totfact>
</mgrwt>
</event>
<event>
 6    1  0.1762360E-005  0.5747633E+04  0.7818608E-02  0.7722505E-01
         -2   -1    0    0    0  501 -0.00000000000E+00  0.00000000000E+00  0.43657995504E+04  0.43657995504E+04  0.00000000000E+00 0.  1.
          2   -1    0    0  501    0  0.00000000000E+00 -0.00000000000E+00 -0.18917084423E+04  0.18917084423E+04  0.00000000000E+00 0. -1.
         23    2    1    2    0    0  0.24481250422E+03  0.10551006012E+04 -0.16597869434E+04  0.19840880291E+04  0.92423856013E+02 0.  0.
         11    1    3    3    0    0  0.23195013357E+03  0.90802906107E+03 -0.14752340027E+04  0.17477508412E+04  0.00000000000E+00 0. -1.
        -11    1    3    3    0    0  0.12862370654E+02  0.14707154013E+03 -0.18455294063E+03  0.23633718791E+03  0.00000000000E+00 0.  1.
         22    1    1    2    0    0 -0.24481250422E+03 -0.10551006012E+04  0.41338780515E+04  0.42734199636E+04  0.00000000000E+00 0.  1.
<mgrwt>
<rscale>  0 0.57476325E+04</rscale>
<asrwt>0</asrwt>
<pdfrwt beam="1">  1        2 0.29103207E+00 0.57476325E+04</pdfrwt>
<pdfrwt beam="2">  1       -2 0.67166146E+00 0.57476325E+04</pdfrwt>
<totfact> 0.15254989E-03</totfact>
</mgrwt>
</event>
<event>
 6    1  0.1762360E-005  0.2127828E+04  0.7818608E-02  0.8549083E-01
          3   -1    0    0  501    0  0.00000000000E+00  0.00000000000E+00  0.11383201044E+04  0.11383201044E+04  0.00000000000E+00 0. -1.
         -3   -1    0    0    0  501 -0.00000000000E+00 -0.00000000000E+00 -0.99437101026E+03  0.99437101026E+03  0.00000000000E+00 0.  1.
         23    2    1    2    0    0  0.10170359871E+04  0.28950489491E+03 -0.26470352192E+02  0.10616084516E+04  0.90202781622E+02 0.  0.
         11    1    3    3    0    0  0.45124516677E+03  0.15690947667E+03  0.23636285710E+02  0.47833195420E+03  0.00000000000E+00 0. -1.
        -11    1    3    3    0    0  0.56579082034E+03  0.13259541824E+03 -0.50106637902E+02  0.58327649745E+03  0.00000000000E+00 0.  1.
         22    1    1    2    0    0 -0.10170359871E+04 -0.28950489491E+03  0.17041944629E+03  0.10710826630E+04  0.00000000000E+00 0.  1.
<mgrwt>
<rscale>  0 0.21278275E+04</rscale>
<asrwt>0</asrwt>
<pdfrwt beam="1">  1        3 0.17512617E+00 0.21278275E+04</pdfrwt>
<pdfrwt beam="2">  1       -3 0.15298016E+00 0.21278275E+04</pdfrwt>
<totfact> 0.15757081E-01</totfact>
</mgrwt>
</event>
<event>
 6    1  0.1762360E-005  0.5409627E+04  0.7818608E-02  0.7768248E-01
          2   -1    0    0  501    0  0.00000000000E+00  0.00000000000E+00  0.33782955062E+04  0.33782955062E+04  0.00000000000E+00 0.  1.
         -2   -1    0    0    0  501 -0.00000000000E+00 -0.00000000000E+00 -0.21655941468E+04  0.21655941468E+04  0.00000000000E+00 0. -1.
         23    2    1    2    0    0 -0.16925641385E+04  0.15816166675E+04 -0.82353102427E+03  0.24596511787E+04  0.73456974599E+02 0.  0.
         11    1    3    3    0    0 -0.12766922136E+03  0.10294076452E+03 -0.43043051496E+02  0.16955511011E+03  0.00000000000E+00 0.  1.
        -11    1    3    3    0    0 -0.15648949171E+04  0.14786759030E+04 -0.78048797278E+03  0.22900960686E+04  0.00000000000E+00 0. -1.
         22    1    1    2    0    0  0.16925641385E+04 -0.15816166675E+04  0.20362323837E+04  0.30842384743E+04  0.00000000000E+00 0.  1.
<mgrwt>
<rscale>  0 0.54096273E+04</rscale>
<asrwt>0</asrwt>
<pdfrwt beam="1">  1        2 0.51973777E+00 0.54096273E+04</pdfrwt>
<pdfrwt beam="2">  1       -2 0.33316833E+00 0.54096273E+04</pdfrwt>
<totfact> 0.13771034E-02</totfact>
</mgrwt>
</event>
<event>
 6    1  0.1762360E-005  0.4369130E+04  0.7818608E-02  0.7933958E-01
         -2   -1    0    0    0  501 -0.00000000000E+00  0.00000000000E+00  0.22897127661E+04  0.22897127661E+04  0.00000000000E+00 0.  1.
          2   -1    0    0  501    0  0.00000000000E+00 -0.00000000000E+00 -0.20842456815E+04  0.20842456815E+04  0.00000000000E+00 0. -1.
         23    2    1    2    0    0 -0.14051640848E+04  0.60664936105E+03 -0.14561453690E+04  0.21148733456E+04  0.99097830048E+02 0.  0.
         13    1    3    3    0    0 -0.74613291525E+03  0.37182910770E+03 -0.81762627539E+03  0.11676831500E+04  0.00000000000E+00 0. -1.
        -13    1    3    3    0    0 -0.65903116951E+03  0.23482025335E+03 -0.63851909362E+03  0.94719019562E+03  0.00000000000E+00 0.  1.
         22    1    1    2    0    0  0.14051640848E+04 -0.60664936105E+03  0.16616124535E+04  0.22590851020E+04  0.00000000000E+00 0.  1.
<mgrwt>
<rscale>  0 0.43691299E+04</rscale>
<asrwt>0</asrwt>
<pdfrwt beam="1">  1        2 0.32065318E+00 0.43691299E+04</pdfrwt>
<pdfrwt beam="2">  1       -2 0.35226350E+00 0.43691299E+04</pdfrwt>
<totfact> 0.69119524E-02</totfact>
</mgrwt>
</event>
<event>
 6    1  0.1762360E-005  0.1737573E+04  0.7818608E-02  0.8740221E-01
         -1   -1    0    0    0  501 -0.00000000000E+00  0.00000000000E+00  0.73703058620E+03  0.73703058620E+03  0.00000000000E+00 0.  1.
          1   -1    0    0  501    0  0.00000000000E+00 -0.00000000000E+00 -0.10240953359E+04  0.10240953359E+04  0.00000000000E+00 0. -1.
         23    2    1    2    0    0 -0.65180184612E+03 -0.56241465394E+03 -0.24331052196E+03  0.89911065424E+03  0.89688733334E+02 0.  0.
         13    1    3    3    0    0 -0.49287846714E+03 -0.40733596415E+03 -0.14175704498E+03  0.65494032618E+03  0.00000000000E+00 0. -1.
        -13    1    3    3    0    0 -0.15892337899E+03 -0.15507868979E+03 -0.10155347698E+03  0.24417032805E+03  0.00000000000E+00 0.  1.
         22    1    1    2    0    0  0.65180184612E+03  0.56241465394E+03 -0.43754227746E+02  0.86201526786E+03  0.00000000000E+00 0. -1.
<mgrwt>
<rscale>  0 0.17375725E+04</rscale>
<asrwt>0</asrwt>
<pdfrwt beam="1">  1        1 0.15755313E+00 0.17375725E+04</pdfrwt>
<pdfrwt beam="2">  1       -1 0.11338932E+00 0.17375725E+04</pdfrwt>
<totfact> 0.97617958E+00</totfact>
</mgrwt>
</event>
<event>
 6    1  0.1762360E-005  0.3469711E+04  0.7818608E-02  0.8121006E-01
          2   -1    0    0  501    0  0.00000000000E+00  0.00000000000E+00  0.11871621051E+04  0.11871621051E+04  0.00000000000E+00 0. -1.
         -2   -1    0    0    0  501 -0.00000000000E+00 -0.00000000000E+00 -0.25352257798E+04  0.25352257798E+04  0.00000000000E+00 0.  1.
         23    2    1    2    0    0  0.86189419049E+03 -0.10687512347E+04  0.46106924862E+03  0.14512532056E+04  0.91979441110E+02 0.  0.
         13    1    3    3    0    0  0.36590167386E+03 -0.40685016784E+03  0.21964328778E+03  0.58962213991E+03  0.00000000000E+00 0. -1.
        -13    1    3    3    0    0  0.49599251663E+03 -0.66190106688E+03  0.24142596083E+03  0.86163106574E+03  0.00000000000E+00 0.  1.
         22    1    1    2    0    0 -0.86189419049E+03  0.10687512347E+04 -0.18091329233E+04  0.22711346793E+04  0.00000000000E+00 0.  1.
<mgrwt>
<rscale>  0 0.34697112E+04</rscale>
<asrwt>0</asrwt>
<pdfrwt beam="1">  1        2 0.18264032E+00 0.34697112E+04</pdfrwt>
<pdfrwt beam="2">  1       -2 0.39003473E+00 0.34697112E+04</pdfrwt>
<totfact> 0.13679807E-01</totfact>
</mgrwt>
</event>
<event>
 6    1  0.1762360E-005  0.1028104E+04  0.7818608E-02  0.9278247E-01
          2   -1    0    0  501    0  0.00000000000E+00  0.00000000000E+00  0.18558116131E+04  0.18558116131E+04  0.00000000000E+00 0. -1.
         -2   -1    0    0    0  501 -0.00000000000E+00 -0.00000000000E+00 -0.14239013614E+03  0.14239013614E+03  0.00000000000E+00 0.  1.
         23    2    1    2    0    0  0.24917768708E+03 -0.37612978513E+03  0.39800334098E+03  0.60755872982E+03  0.84603875496E+02 0.  0.
         13    1    3    3    0    0  0.14512917112E+03 -0.28685397467E+03  0.29139243734E+03  0.43388619664E+03  0.00000000000E+00 0.  1.
        -13    1    3    3    0    0  0.10404851596E+03 -0.89275810464E+02  0.10661090364E+03  0.17367253318E+03  0.00000000000E+00 0. -1.
         22    1    1    2    0    0 -0.24917768708E+03  0.37612978513E+03  0.13154181360E+04  0.13906430194E+04  0.00000000000E+00 0. -1.
<mgrwt>
<rscale>  0 0.10281036E+04</rscale>
<asrwt>0</asrwt>
<pdfrwt beam="1">  1        2 0.28550946E+00 0.10281036E+04</pdfrwt>
<pdfrwt beam="2">  1       -2 0.21906176E-01 0.10281036E+04</pdfrwt>
<totfact> 0.14595682E+02</totfact>
</mgrwt>
</event>
<event>
 6    1  0.1910696E-005  0.4372940E+04  0.7818608E-02  0.7933267E-01
          1   -1    0    0  501    0  0.00000000000E+00  0.00000000000E+00  0.28114457470E+04  0.28114457470E+04  0.00000000000E+00 0. -1.
         -1   -1    0    0    0  501 -0.00000000000E+00 -0.00000000000E+00 -0.17004247055E+04  0.17004247055E+04  0.00000000000E+00 0.  1.
         23    2    1    2    0    0 -0.41285074008E+03  0.30730734521E+03 -0.16358087974E+04  0.17172402977E+04  0.90334271117E+02 0.  0.
         11    1    3    3    0    0 -0.21160282077E+03  0.20191400690E+03 -0.10088812504E+04  0.10504220092E+04  0.00000000000E+00 0. -1.
        -11    1    3    3    0    0 -0.20124791931E+03  0.10539333830E+03 -0.62692754694E+03  0.66681828851E+03  0.00000000000E+00 0.  1.
         22    1    1    2    0    0  0.41285074008E+03 -0.30730734521E+03  0.27468298389E+04  0.27946301547E+04  0.00000000000E+00 0. -1.
<mgrwt>
<rscale>  0 0.43729403E+04</rscale>
<asrwt>0</asrwt>
<pdfrwt beam="1">  1        1 0.43253012E+00 0.43729403E+04</pdfrwt>
<pdfrwt beam="2">  1       -1 0.26160380E+00 0.43729403E+04</pdfrwt>
<totfact> 0.36370296E-02</totfact>
</mgrwt>
</event>
<event>
 6    1  0.1762360E-005  0.4593581E+04  0.7818608E-02  0.7894455E-01
         -1   -1    0    0    0  501 -0.00000000000E+00  0.00000000000E+00  0.24283023007E+04  0.24283023007E+04  0.00000000000E+00 0.  1.
          1   -1    0    0  501    0  0.00000000000E+00 -0.00000000000E+00 -0.21724013515E+04  0.21724013515E+04  0.00000000000E+00 0. -1.
         23    2    1    2    0    0 -0.13537325190E+02 -0.95771595237E+03  0.22181261870E+04  0.24171902016E+04  0.72949189955E+02 0.  0.
         11    1    3    3    0    0 -0.42026691050E+02 -0.60044432844E+03  0.14176726109E+04  0.15401607923E+04  0.00000000000E+00 0. -1.
        -11    1    3    3    0    0  0.28489365860E+02 -0.35727162393E+03  0.80045357610E+03  0.87702940927E+03  0.00000000000E+00 0.  1.
         22    1    1    2    0    0  0.13537325190E+02  0.95771595237E+03 -0.19622252378E+04  0.21835134505E+04  0.00000000000E+00 0. -1.
<mgrwt>
<rscale>  0 0.45935813E+04</rscale>
<asrwt>0</asrwt>
<pdfrwt beam="1">  1        1 0.33421559E+00 0.45935813E+04</pdfrwt>
<pdfrwt beam="2">  1       -1 0.37358497E+00 0.45935813E+04</pdfrwt>
<totfact> 0.18337532E-02</totfact>
</mgrwt>
</event>
<event>
 6    1  0.1762360E-005  0.3142362E+04  0.7818608E-02  0.8204207E-01
          2   -1    0    0  501    0  0.00000000000E+00  0.00000000000E+00  0.28955351115E+04  0.28955351115E+04  0.00000000000E+00 0. -1.
         -2   -1    0    0    0  501 -0.00000000000E+00 -0.00000000000E+00 -0.85255728708E+03  0.85255728708E+03  0.00000000000E+00 0.  1.
         23    2    1    2    0    0 -0.80283405115E+03 -0.85485568991E+01 -0.58679506582E+03  0.99848860063E+03  0.89640642583E+02 0.  0.
         11    1    3    3    0    0 -0.45136534445E+03  0.30552319636E+02 -0.29582384556E+03  0.54053294627E+03  0.00000000000E+00 0.  1.
        -11    1    3    3    0    0 -0.35146870670E+03 -0.39100876535E+02 -0.29097122026E+03  0.45795565435E+03  0.00000000000E+00 0. -1.
         22    1    1    2    0    0  0.80283405115E+03  0.85485568991E+01  0.26297728903E+04  0.27496037980E+04  0.00000000000E+00 0. -1.
<mgrwt>
<rscale>  0 0.31423619E+04</rscale>
<asrwt>0</asrwt>
<pdfrwt beam="1">  1        2 0.44546693E+00 0.31423619E+04</pdfrwt>
<pdfrwt beam="2">  1       -2 0.13116266E+00 0.31423619E+04</pdfrwt>
<totfact> 0.72589849E-01</totfact>
</mgrwt>
</event>
<event>
 6    1  0.1762360E-005  0.3766466E+04  0.7818608E-02  0.8053390E-01
          2   -1    0    0  501    0  0.00000000000E+00  0.00000000000E+00  0.17961968613E+04  0.17961968613E+04  0.00000000000E+00 0.  1.
         -2   -1    0    0    0  501 -0.00000000000E+00 -0.00000000000E+00 -0.19744862962E+04  0.19744862962E+04  0.00000000000E+00 0. -1.
         23    2    1    2    0    0  0.17924709418E+04  0.10522867566E+03  0.47577598229E+03  0.18597078250E+04  0.90140210207E+02 0.  0.
         13    1    3    3    0    0  0.14763182224E+04  0.52215904278E+02  0.38852139384E+03  0.15274785982E+04  0.00000000000E+00 0. -1.
        -13    1    3    3    0    0  0.31615271946E+03  0.53012771379E+02  0.87254588448E+02  0.33222922682E+03  0.00000000000E+00 0.  1.
         22    1    1    2    0    0 -0.17924709418E+04 -0.10522867566E+03 -0.65406541721E+03  0.19109753325E+04  0.00000000000E+00 0. -1.
<mgrwt>
<rscale>  0 0.37664658E+04</rscale>
<asrwt>0</asrwt>
<pdfrwt beam="1">  1        2 0.27633798E+00 0.37664658E+04</pdfrwt>
<pdfrwt beam="2">  1       -2 0.30376712E+00 0.37664658E+04</pdfrwt>
<totfact> 0.21009871E-01</totfact>
</mgrwt>
</event>
<event>
 6    1  0.1762360E-005  0.3552485E+03  0.7818608E-02  0.1060481E+00
         -1   -1    0    0    0  501 -0.00000000000E+00  0.00000000000E+00  0.30720537258E+03  0.30720537258E+03  0.00000000000E+00 0.  1.
          1   -1    0    0  501    0  0.00000000000E+00 -0.00000000000E+00 -0.10270122542E+03  0.10270122542E+03  0.00000000000E+00 0. -1.
         23    2    1    2    0    0 -0.74964085955E+02 -0.25645724874E+02 -0.59797140121E+02  0.13398543563E+03  0.89994897670E+02 0.  0.
         11    1    3    3    0    0 -0.91982773784E+02 -0.82551011616E+01 -0.33711726050E+02  0.98313060381E+02  0.00000000000E+00 0. -1.
        -11    1    3    3    0    0  0.17018687829E+02 -0.17390623713E+02 -0.26085414072E+02  0.35672375248E+02  0.00000000000E+00 0.  1.
         22    1    1    2    0    0  0.74964085955E+02  0.25645724874E+02  0.26430128728E+03  0.27592116238E+03  0.00000000000E+00 0.  1.
<mgrwt>
<rscale>  0 0.35524847E+03</rscale>
<asrwt>0</asrwt>
<pdfrwt beam="1">  1        1 0.15800189E-01 0.35524847E+03</pdfrwt>
<pdfrwt beam="2">  1       -1 0.47262365E-01 0.35524847E+03</pdfrwt>
<totfact> 0.15922590E+03</totfact>
</mgrwt>
</event>
<event>
 6    1  0.1762360E-005  0.4401416E+04  0.7818608E-02  0.7928127E-01
          2   -1    0    0  501    0  0.00000000000E+00  0.00000000000E+00  0.21586793260E+04  0.21586793260E+04  0.00000000000E+00 0. -1.
         -2   -1    0    0    0  501 -0.00000000000E+00 -0.00000000000E+00 -0.22435551805E+04  0.22435551805E+04  0.00000000000E+00 0.  1.
         23    2    1    2    0    0 -0.44390964819E+03  0.10777630926E+04  0.18234435404E+04  0.21660967709E+04  0.91650510452E+02 0.  0.
         11    1    3    3    0    0 -0.22522040887E+03  0.42829345709E+03  0.75463425216E+03  0.89645544925E+03  0.00000000000E+00 0. -1.
        -11    1    3    3    0    0 -0.21868923932E+03  0.64946963555E+03  0.10688092883E+04  0.12696413216E+04  0.00000000000E+00 0.  1.
         22    1    1    2    0    0  0.44390964819E+03 -0.10777630926E+04 -0.19083193949E+04  0.22361377356E+04  0.00000000000E+00 0.  1.
<mgrwt>
<rscale>  0 0.44014162E+04</rscale>
<asrwt>0</asrwt>
<pdfrwt beam="1">  1        2 0.33210451E+00 0.44014162E+04</pdfrwt>
<pdfrwt beam="2">  1       -2 0.34516233E+00 0.44014162E+04</pdfrwt>
<totfact> 0.69430994E-02</totfact>
</mgrwt>
</event>
<event>
 6    1  0.1762360E-005  0.3147409E+04  0.7818608E-02  0.8202846E-01
          2   -1    0    0  501    0  0.00000000000E+00  0.00000000000E+00  0.12010367857E+04  0.12010367857E+04  0.00000000000E+00 0. -1.
         -2   -1    0    0    0  501 -0.00000000000E+00 -0.00000000000E+00 -0.20620062945E+04  0.20620062945E+04  0.00000000000E+00 0.  1.
         23    2    1    2    0    0  0.68433801450E+03  0.41147143998E+03 -0.18351358091E+04  0.20034291534E+04  0.91529616167E+02 0.  0.
         11    1    3    3    0    0  0.43028598676E+03  0.30677437320E+03 -0.11728762612E+04  0.12864273282E+04  0.00000000000E+00 0. -1.
        -11    1    3    3    0    0  0.25405202775E+03  0.10469706677E+03 -0.66225954790E+03  0.71700182523E+03  0.00000000000E+00 0.  1.
         22    1    1    2    0    0 -0.68433801450E+03 -0.41147143998E+03  0.97416630037E+03  0.12596139269E+04  0.00000000000E+00 0. -1.
<mgrwt>
<rscale>  0 0.31474087E+04</rscale>
<asrwt>0</asrwt>
<pdfrwt beam="1">  1        2 0.18477489E+00 0.31474087E+04</pdfrwt>
<pdfrwt beam="2">  1       -2 0.31723173E+00 0.31474087E+04</pdfrwt>
<totfact> 0.39830785E-01</totfact>
</mgrwt>
</event>
<event>
 6    1  0.1762360E-005  0.2353004E+04  0.7818608E-02  0.8457311E-01
          2   -1    0    0  501    0  0.00000000000E+00  0.00000000000E+00  0.28380341364E+04  0.28380341364E+04  0.00000000000E+00 0. -1.
         -2   -1    0    0    0  501 -0.00000000000E+00 -0.00000000000E+00 -0.48771661530E+03  0.48771661530E+03  0.00000000000E+00 0.  1.
         23    2    1    2    0    0  0.22366483452E+03  0.15498866490E+03  0.27922700725E+04  0.28067425609E+04  0.83571532049E+02 0.  0.
         11    1    3    3    0    0  0.32028918074E+02  0.36064306702E+02  0.25904281121E+03  0.26349509265E+03  0.00000000000E+00 0.  1.
        -11    1    3    3    0    0  0.19163591645E+03  0.11892435820E+03  0.25332272613E+04  0.25432474683E+04  0.00000000000E+00 0. -1.
         22    1    1    2    0    0 -0.22366483452E+03 -0.15498866490E+03 -0.44195255139E+03  0.51900819081E+03  0.00000000000E+00 0.  1.
<mgrwt>
<rscale>  0 0.23530035E+04</rscale>
<asrwt>0</asrwt>
<pdfrwt beam="1">  1        2 0.43662063E+00 0.23530035E+04</pdfrwt>
<pdfrwt beam="2">  1       -2 0.75033327E-01 0.23530035E+04</pdfrwt>
<totfact> 0.31583212E+00</totfact>
</mgrwt>
</event>
<event>
 6    1  0.1762360E-005  0.3588859E+04  0.7818608E-02  0.8093048E-01
          1   -1    0    0  501    0  0.00000000000E+00  0.00000000000E+00  0.17113652076E+04  0.17113652076E+04  0.00000000000E+00 0. -1.
         -1   -1    0    0    0  501 -0.00000000000E+00 -0.00000000000E+00 -0.18815254298E+04  0.18815254298E+04  0.00000000000E+00 0.  1.
         23    2    1    2    0    0  0.10652622071E+04 -0.14367881285E+04 -0.21443999965E+03  0.18037275943E+04  0.91131909188E+02 0.  0.
         13    1    3    3    0    0  0.87126025380E+03 -0.11935470975E+04 -0.20999662524E+03  0.14925641314E+04  0.00000000000E+00 0.  1.
        -13    1    3    3    0    0  0.19400195327E+03 -0.24324103108E+03 -0.44433744033E+01  0.31116346291E+03  0.00000000000E+00 0. -1.
         22    1    1    2    0    0 -0.10652622071E+04  0.14367881285E+04  0.44279777370E+02  0.17891630431E+04  0.00000000000E+00 0. -1.
<mgrwt>
<rscale>  0 0.35888590E+04</rscale>
<asrwt>0</asrwt>
<pdfrwt beam="1">  1        1 0.26328695E+00 0.35888590E+04</pdfrwt>
<pdfrwt beam="2">  1       -1 0.28946545E+00 0.35888590E+04</pdfrwt>
<totfact> 0.14651106E-01</totfact>
</mgrwt>
</event>
<event>
 6    1  0.1762360E-005  0.3820297E+04  0.7818608E-02  0.8041813E-01
         -1   -1    0    0    0  501 -0.00000000000E+00  0.00000000000E+00  0.99900108492E+03  0.99900108492E+03  0.00000000000E+00 0.  1.
          1   -1    0    0  501    0  0.00000000000E+00 -0.00000000000E+00 -0.36523155745E+04  0.36523155745E+04  0.00000000000E+00 0. -1.
         23    2    1    2    0    0 -0.15617240199E+04  0.45918001907E+03 -0.25418427278E+04  0.30196751062E+04  0.87436206330E+02 0.  0.
         13    1    3    3    0    0 -0.11620916973E+04  0.37478553160E+03 -0.18659007385E+04  0.22299118534E+04  0.00000000000E+00 0. -1.
        -13    1    3    3    0    0 -0.39963232261E+03  0.84394487471E+02 -0.67594198925E+03  0.78976325290E+03  0.00000000000E+00 0.  1.
         22    1    1    2    0    0  0.15617240199E+04 -0.45918001907E+03 -0.11147176180E+03  0.16316415532E+04  0.00000000000E+00 0.  1.
<mgrwt>
<rscale>  0 0.38202970E+04</rscale>
<asrwt>0</asrwt>
<pdfrwt beam="1">  1        1 0.56189470E+00 0.38202970E+04</pdfrwt>
<pdfrwt beam="2">  1       -1 0.15369248E+00 0.38202970E+04</pdfrwt>
<totfact> 0.48861826E-02</totfact>
</mgrwt>
</event>
<event>
 6    1  0.1762360E-005  0.3679544E+04  0.7818608E-02  0.8072510E-01
         -2   -1    0    0    0  501 -0.00000000000E+00  0.00000000000E+00  0.20132141871E+04  0.20132141871E+04  0.00000000000E+00 0.  1.
          2   -1    0    0  501    0  0.00000000000E+00 -0.00000000000E+00 -0.16812722823E+04  0.16812722823E+04  0.00000000000E+00 0. -1.
         23    2    1    2    0    0  0.92178802045E+03  0.15251810880E+04 -0.28817135439E+03  0.18075813419E+04  0.91853537946E+02 0.  0.
         11    1    3    3    0    0  0.75441583743E+03  0.13118830370E+04 -0.24542305118E+03  0.15331056169E+04  0.00000000000E+00 0. -1.
        -11    1    3    3    0    0  0.16737218302E+03  0.21329805095E+03 -0.42748303214E+02  0.27447572500E+03  0.00000000000E+00 0.  1.
         22    1    1    2    0    0 -0.92178802045E+03 -0.15251810880E+04  0.62011325916E+03  0.18869051274E+04  0.00000000000E+00 0. -1.
<mgrwt>
<rscale>  0 0.36795441E+04</rscale>
<asrwt>0</asrwt>
<pdfrwt beam="1">  1        2 0.25865727E+00 0.36795441E+04</pdfrwt>
<pdfrwt beam="2">  1       -2 0.30972526E+00 0.36795441E+04</pdfrwt>
<totfact> 0.22531573E-01</totfact>
</mgrwt>
</event>
<event>
 6    1  0.1762360E-005  0.2350332E+04  0.7818608E-02  0.8458336E-01
         -1   -1    0    0    0  501 -0.00000000000E+00  0.00000000000E+00  0.13041371116E+04  0.13041371116E+04  0.00000000000E+00 0.  1.
          1   -1    0    0  501    0  0.00000000000E+00 -0.00000000000E+00 -0.10589492702E+04  0.10589492702E+04  0.00000000000E+00 0. -1.
         23    2    1    2    0    0 -0.10621042930E+04  0.15993717702E+03 -0.35230684398E+03  0.11340032564E+04  0.90541942947E+02 0.  0.
         11    1    3    3    0    0 -0.67917851874E+03  0.69001337236E+02 -0.19322140593E+03  0.70949218218E+03  0.00000000000E+00 0.  1.
        -11    1    3    3    0    0 -0.38292577428E+03  0.90935839780E+02 -0.15908543805E+03  0.42451107425E+03  0.00000000000E+00 0. -1.
         22    1    1    2    0    0  0.10621042930E+04 -0.15993717702E+03  0.59749468539E+03  0.12290831253E+04  0.00000000000E+00 0.  1.
<mgrwt>
<rscale>  0 0.23503319E+04</rscale>
<asrwt>0</asrwt>
<pdfrwt beam="1">  1        1 0.16291527E+00 0.23503319E+04</pdfrwt>
<pdfrwt beam="2">  1       -1 0.20063648E+00 0.23503319E+04</pdfrwt>
<totfact> 0.18265634E+00</totfact>
</mgrwt>
</event>
<event>
 6    1  0.1762360E-005  0.1827541E+04  0.7818608E-02  0.8691789E-01
         -2   -1    0    0    0  501 -0.00000000000E+00  0.00000000000E+00  0.37840960650E+03  0.37840960650E+03  0.00000000000E+00 0. -1.
          2   -1    0    0  501    0  0.00000000000E+00 -0.00000000000E+00 -0.22065412076E+04  0.22065412076E+04  0.00000000000E+00 0.  1.
         23    2    1    2    0    0  0.45944055110E+03  0.77538058829E+03 -0.72345764735E+03  0.11592561691E+04  0.90461159790E+02 0.  0.
         11    1    3    3    0    0  0.13842071039E+03  0.22032744257E+03 -0.15852299571E+03  0.30468674927E+03  0.00000000000E+00 0. -1.
        -11    1    3    3    0    0  0.32101984071E+03  0.55505314571E+03 -0.56493465165E+03  0.85456941984E+03  0.00000000000E+00 0.  1.
         22    1    1    2    0    0 -0.45944055110E+03 -0.77538058829E+03 -0.11046739538E+04  0.14256946450E+04  0.00000000000E+00 0.  1.
<mgrwt>
<rscale>  0 0.18275409E+04</rscale>
<asrwt>0</asrwt>
<pdfrwt beam="1">  1        2 0.33946788E+00 0.18275409E+04</pdfrwt>
<pdfrwt beam="2">  1       -2 0.58216863E-01 0.18275409E+04</pdfrwt>
<totfact> 0.13316496E+01</totfact>
</mgrwt>
</event>
<event>
 6    1  0.1762360E-005  0.2128178E+04  0.7818608E-02  0.8548931E-01
         -2   -1    0    0    0  501 -0.00000000000E+00  0.00000000000E+00  0.80887400060E+03  0.80887400060E+03  0.00000000000E+00 0. -1.
          2   -1    0    0  501    0  0.00000000000E+00 -0.00000000000E+00 -0.13998293509E+04  0.13998293509E+04  0.00000000000E+00 0.  1.
         23    2    1    2    0    0  0.45106558710E+03 -0.66399957019E+03 -0.10178983423E+04  0.12995081517E+04  0.90822948798E+02 0.  0.
         11    1    3    3    0    0  0.39688037483E+03 -0.59346855139E+03 -0.94580599642E+03  0.11850181164E+04  0.00000000000E+00 0. -1.
        -11    1    3    3    0    0  0.54185212271E+02 -0.70531018799E+02 -0.72092345839E+02  0.11449003524E+03  0.00000000000E+00 0.  1.
         22    1    1    2    0    0 -0.45106558710E+03  0.66399957019E+03  0.42694299193E+03  0.90919519986E+03  0.00000000000E+00 0. -1.
<mgrwt>
<rscale>  0 0.21281782E+04</rscale>
<asrwt>0</asrwt>
<pdfrwt beam="1">  1        2 0.21535836E+00 0.21281782E+04</pdfrwt>
<pdfrwt beam="2">  1       -2 0.12444215E+00 0.21281782E+04</pdfrwt>
<totfact> 0.64540571E+00</totfact>
</mgrwt>
</event>
<event>
 6    1  0.1762360E-005  0.3078671E+04  0.7818608E-02  0.8221616E-01
          2   -1    0    0  501    0  0.00000000000E+00  0.00000000000E+00  0.13984624906E+04  0.13984624906E+04  0.00000000000E+00 0. -1.
         -2   -1    0    0    0  501 -0.00000000000E+00 -0.00000000000E+00 -0.16943997581E+04  0.16943997581E+04  0.00000000000E+00 0.  1.
         23    2    1    2    0    0 -0.56730539954E+03  0.99626543508E+03 -0.11779816460E+04  0.16463552425E+04  0.92003220956E+02 0.  0.
         13    1    3    3    0    0 -0.96082938277E+02  0.19066486396E+03 -0.17251587152E+03  0.27449361978E+03  0.00000000000E+00 0.  1.
        -13    1    3    3    0    0 -0.47122246126E+03  0.80560057113E+03 -0.10054657745E+04  0.13718616227E+04  0.00000000000E+00 0. -1.
         22    1    1    2    0    0  0.56730539954E+03 -0.99626543508E+03  0.88204437851E+03  0.14465070063E+04  0.00000000000E+00 0. -1.
<mgrwt>
<rscale>  0 0.30786715E+04</rscale>
<asrwt>0</asrwt>
<pdfrwt beam="1">  1        2 0.21514808E+00 0.30786715E+04</pdfrwt>
<pdfrwt beam="2">  1       -2 0.26067688E+00 0.30786715E+04</pdfrwt>
<totfact> 0.68152537E-01</totfact>
</mgrwt>
</event>
<event>
 6    1  0.1762360E-005  0.2204717E+04  0.7818608E-02  0.8516467E-01
          2   -1    0    0  501    0  0.00000000000E+00  0.00000000000E+00  0.24197258144E+04  0.24197258144E+04  0.00000000000E+00 0. -1.
         -2   -1    0    0    0  501 -0.00000000000E+00 -0.00000000000E+00 -0.50220348113E+03  0.50220348113E+03  0.00000000000E+00 0.  1.
         23    2    1    2    0    0 -0.93063641342E+03 -0.35077150877E+03  0.15844513278E+04  0.18730913290E+04  0.94129332413E+02 0.  0.
         11    1    3    3    0    0 -0.22529427237E+03 -0.12044331443E+03  0.45219994585E+03  0.51937355745E+03  0.00000000000E+00 0. -1.
        -11    1    3    3    0    0 -0.70534214105E+03 -0.23032819434E+03  0.11322513819E+04  0.13537177715E+04  0.00000000000E+00 0.  1.
         22    1    1    2    0    0  0.93063641342E+03  0.35077150877E+03  0.33307100544E+03  0.10488379665E+04  0.00000000000E+00 0.  1.
<mgrwt>
<rscale>  0 0.22047174E+04</rscale>
<asrwt>0</asrwt>
<pdfrwt beam="1">  1        2 0.37226550E+00 0.22047174E+04</pdfrwt>
<pdfrwt beam="2">  1       -2 0.77262075E-01 0.22047174E+04</pdfrwt>
<totfact> 0.52891055E+00</totfact>
</mgrwt>
</event>
<event>
 6    1  0.1762360E-005  0.7358284E+03  0.7818608E-02  0.9657849E-01
         -2   -1    0    0    0  501 -0.00000000000E+00  0.00000000000E+00  0.12824300235E+03  0.12824300235E+03  0.00000000000E+00 0.  1.
          2   -1    0    0  501    0  0.00000000000E+00 -0.00000000000E+00 -0.10555029824E+04  0.10555029824E+04  0.00000000000E+00 0. -1.
         23    2    1    2    0    0 -0.27762733984E+03 -0.13285020794E+03 -0.16342388806E+03  0.36023417974E+03  0.91297204192E+02 0.  0.
         13    1    3    3    0    0 -0.17462465579E+03 -0.57222455960E+02 -0.52744874798E+02  0.19118107044E+03  0.00000000000E+00 0.  1.
        -13    1    3    3    0    0 -0.10300268405E+03 -0.75627751976E+02 -0.11067901326E+03  0.16905310930E+03  0.00000000000E+00 0. -1.
         22    1    1    2    0    0  0.27762733984E+03  0.13285020794E+03 -0.76383609199E+03  0.82351180502E+03  0.00000000000E+00 0. -1.
<mgrwt>
<rscale>  0 0.73582844E+03</rscale>
<asrwt>0</asrwt>
<pdfrwt beam="1">  1        2 0.16238508E+00 0.73582844E+03</pdfrwt>
<pdfrwt beam="2">  1       -2 0.19729692E-01 0.73582844E+03</pdfrwt>
<totfact> 0.51095985E+02</totfact>
</mgrwt>
</event>
<event>
 6    1  0.1762360E-005  0.1195773E+04  0.7818608E-02  0.9116565E-01
         -1   -1    0    0    0  501 -0.00000000000E+00  0.00000000000E+00  0.19055378312E+03  0.19055378312E+03  0.00000000000E+00 0.  1.
          1   -1    0    0  501    0  0.00000000000E+00 -0.00000000000E+00 -0.18759427017E+04  0.18759427017E+04  0.00000000000E+00 0. -1.
         23    2    1    2    0    0  0.48491145097E+03 -0.50833799051E+02 -0.25999510637E+03  0.56002022868E+03  0.91115370746E+02 0.  0.
         13    1    3    3    0    0  0.19195094188E+03 -0.48057150045E+02 -0.65794841836E+02  0.20852725235E+03  0.00000000000E+00 0.  1.
        -13    1    3    3    0    0  0.29296050909E+03 -0.27766490062E+01 -0.19420026454E+03  0.35149297634E+03  0.00000000000E+00 0. -1.
         22    1    1    2    0    0 -0.48491145097E+03  0.50833799051E+02 -0.14253938122E+04  0.15064762561E+04  0.00000000000E+00 0. -1.
<mgrwt>
<rscale>  0 0.11957725E+04</rscale>
<asrwt>0</asrwt>
<pdfrwt beam="1">  1        1 0.28860655E+00 0.11957725E+04</pdfrwt>
<pdfrwt beam="2">  1       -1 0.29315969E-01 0.11957725E+04</pdfrwt>
<totfact> 0.38099937E+01</totfact>
</mgrwt>
</event>
<event>
 6    1  0.1762360E-005  0.1843830E+04  0.7818608E-02  0.8683332E-01
         -3   -1    0    0    0  501 -0.00000000000E+00  0.00000000000E+00  0.20412512445E+04  0.20412512445E+04  0.00000000000E+00 0.  1.
          3   -1    0    0  501    0  0.00000000000E+00 -0.00000000000E+00 -0.41637557390E+03  0.41637557390E+03  0.00000000000E+00 0. -1.
         23    2    1    2    0    0  0.34562610070E+02 -0.83317484251E+03  0.29771392740E+03  0.89022987288E+03  0.92199521688E+02 0.  0.
         11    1    3    3    0    0 -0.15956657329E+01 -0.25529038688E+03  0.48504215440E+02  0.25986224562E+03  0.00000000000E+00 0. -1.
        -11    1    3    3    0    0  0.36158275803E+02 -0.57788445563E+03  0.24920971196E+03  0.63036762726E+03  0.00000000000E+00 0.  1.
         22    1    1    2    0    0 -0.34562610070E+02  0.83317484251E+03  0.13271617432E+04  0.15673969455E+04  0.00000000000E+00 0.  1.
<mgrwt>
<rscale>  0 0.18438299E+04</rscale>
<asrwt>0</asrwt>
<pdfrwt beam="1">  1        3 0.64057782E-01 0.18438299E+04</pdfrwt>
<pdfrwt beam="2">  1       -3 0.31403865E+00 0.18438299E+04</pdfrwt>
<totfact> 0.18484037E-01</totfact>
</mgrwt>
</event>
<event>
 6    1  0.1762360E-005  0.3287820E+04  0.7818608E-02  0.8166002E-01
         -1   -1    0    0    0  501 -0.00000000000E+00  0.00000000000E+00  0.16006566023E+04  0.16006566023E+04  0.00000000000E+00 0.  1.
          1   -1    0    0  501    0  0.00000000000E+00 -0.00000000000E+00 -0.16883320387E+04  0.16883320387E+04  0.00000000000E+00 0. -1.
         23    2    1    2    0    0 -0.11184351614E+04 -0.54393387265E+03  0.10295582931E+04  0.16171715236E+04  0.92153077723E+02 0.  0.
         11    1    3    3    0    0 -0.50439135895E+03 -0.27517338611E+03  0.42701297443E+03  0.71587087923E+03  0.00000000000E+00 0. -1.
        -11    1    3    3    0    0 -0.61404380240E+03 -0.26876048654E+03  0.60254531868E+03  0.90130064432E+03  0.00000000000E+00 0.  1.
         22    1    1    2    0    0  0.11184351614E+04  0.54393387265E+03 -0.11172337294E+04  0.16718171174E+04  0.00000000000E+00 0. -1.
<mgrwt>
<rscale>  0 0.32878198E+04</rscale>
<asrwt>0</asrwt>
<pdfrwt beam="1">  1        1 0.25974339E+00 0.32878198E+04</pdfrwt>
<pdfrwt beam="2">  1       -1 0.24625486E+00 0.32878198E+04</pdfrwt>
<totfact> 0.29738338E-01</totfact>
</mgrwt>
</event>
<event>
 6    1  0.1762360E-005  0.3374908E+04  0.7818608E-02  0.8144092E-01
          1   -1    0    0  501    0  0.00000000000E+00  0.00000000000E+00  0.45896291805E+04  0.45896291805E+04  0.00000000000E+00 0. -1.
         -1   -1    0    0    0  501 -0.00000000000E+00 -0.00000000000E+00 -0.62042068783E+03  0.62042068783E+03  0.00000000000E+00 0.  1.
         23    2    1    2    0    0 -0.26223791707E+02 -0.10088520201E+04 -0.99403081682E+02  0.10181445463E+04  0.90924468575E+02 0.  0.
         13    1    3    3    0    0 -0.53028855236E+02 -0.60391275608E+03 -0.83985213409E+02  0.61202630051E+03  0.00000000000E+00 0.  1.
        -13    1    3    3    0    0  0.26805063528E+02 -0.40493926397E+03 -0.15417868273E+02  0.40611824584E+03  0.00000000000E+00 0. -1.
         22    1    1    2    0    0  0.26223791707E+02  0.10088520201E+04  0.40686115744E+04  0.41919053220E+04  0.00000000000E+00 0. -1.
<mgrwt>
<rscale>  0 0.33749079E+04</rscale>
<asrwt>0</asrwt>
<pdfrwt beam="1">  1        1 0.70609677E+00 0.33749079E+04</pdfrwt>
<pdfrwt beam="2">  1       -1 0.95449340E-01 0.33749079E+04</pdfrwt>
<totfact> 0.22601447E-02</totfact>
</mgrwt>
</event>
<event>
 6    1  0.1762360E-005  0.1709649E+04  0.7818608E-02  0.8755880E-01
          3   -1    0    0  501    0  0.00000000000E+00  0.00000000000E+00  0.29282051319E+03  0.29282051319E+03  0.00000000000E+00 0. -1.
         -3   -1    0    0    0  501 -0.00000000000E+00 -0.00000000000E+00 -0.24954714346E+04  0.24954714346E+04  0.00000000000E+00 0.  1.
         23    2    1    2    0    0 -0.40481157821E+03 -0.74802151859E+03 -0.10114326167E+04  0.13245946923E+04  0.90258266836E+02 0.  0.
         11    1    3    3    0    0 -0.29851658625E+02 -0.21707746348E+02 -0.31628410739E+02  0.48607655159E+02  0.00000000000E+00 0.  1.
        -11    1    3    3    0    0 -0.37495991958E+03 -0.72631377224E+03 -0.97980420593E+03  0.12759870372E+04  0.00000000000E+00 0. -1.
         22    1    1    2    0    0  0.40481157821E+03  0.74802151859E+03 -0.11912183047E+04  0.14636972554E+04  0.00000000000E+00 0. -1.
<mgrwt>
<rscale>  0 0.17096494E+04</rscale>
<asrwt>0</asrwt>
<pdfrwt beam="1">  1        3 0.45049309E-01 0.17096494E+04</pdfrwt>
<pdfrwt beam="2">  1       -3 0.38391869E+00 0.17096494E+04</pdfrwt>
<totfact> 0.15934947E-01</totfact>
</mgrwt>
</event>
<event>
 6    1  0.1762360E-005  0.2897283E+04  0.7818608E-02  0.8273686E-01
          1   -1    0    0  501    0  0.00000000000E+00  0.00000000000E+00  0.27641655914E+04  0.27641655914E+04  0.00000000000E+00 0. -1.
         -1   -1    0    0    0  501 -0.00000000000E+00 -0.00000000000E+00 -0.75920252288E+03  0.75920252288E+03  0.00000000000E+00 0.  1.
         23    2    1    2    0    0 -0.11261526307E+04  0.55353968171E+03  0.12682240997E+03  0.12645989228E+04  0.92198617346E+02 0.  0.
         11    1    3    3    0    0 -0.83649096005E+03  0.36562825605E+03  0.87471674798E+02  0.91708911331E+03  0.00000000000E+00 0.  1.
        -11    1    3    3    0    0 -0.28966167067E+03  0.18791142567E+03  0.39350735174E+02  0.34750980952E+03  0.00000000000E+00 0. -1.
         22    1    1    2    0    0  0.11261526307E+04 -0.55353968171E+03  0.18781406585E+04  0.22587691914E+04  0.00000000000E+00 0. -1.
<mgrwt>
<rscale>  0 0.28972825E+04</rscale>
<asrwt>0</asrwt>
<pdfrwt beam="1">  1        1 0.42525624E+00 0.28972825E+04</pdfrwt>
<pdfrwt beam="2">  1       -1 0.11680039E+00 0.28972825E+04</pdfrwt>
<totfact> 0.50143242E-01</totfact>
</mgrwt>
</event>
<event>
 6    1  0.1762360E-005  0.7645701E+03  0.7818608E-02  0.9612766E-01
         -2   -1    0    0    0  501 -0.00000000000E+00  0.00000000000E+00  0.23621415448E+03  0.23621415448E+03  0.00000000000E+00 0.  1.
          2   -1    0    0  501    0  0.00000000000E+00 -0.00000000000E+00 -0.61868367839E+03  0.61868367839E+03  0.00000000000E+00 0. -1.
         23    2    1    2    0    0  0.11401019527E+03  0.21677819500E+03  0.12648691130E+03  0.29007240552E+03  0.90288156839E+02 0.  0.
         11    1    3    3    0    0  0.77535818735E+02  0.17805816254E+03  0.56683303966E+02  0.20231042826E+03  0.00000000000E+00 0.  1.
        -11    1    3    3    0    0  0.36474376533E+02  0.38720032457E+02  0.69803607329E+02  0.87761977263E+02  0.00000000000E+00 0. -1.
         22    1    1    2    0    0 -0.11401019527E+03 -0.21677819500E+03 -0.50895643520E+03  0.56482542735E+03  0.00000000000E+00 0. -1.
<mgrwt>
<rscale>  0 0.76457005E+03</rscale>
<asrwt>0</asrwt>
<pdfrwt beam="1">  1        2 0.95182104E-01 0.76457005E+03</pdfrwt>
<pdfrwt beam="2">  1       -2 0.36340639E-01 0.76457005E+03</pdfrwt>
<totfact> 0.34265337E+02</totfact>
</mgrwt>
</event>
<event>
 6    1  0.1762360E-005  0.4517779E+04  0.7818608E-02  0.7907532E-01
         -2   -1    0    0    0  501 -0.00000000000E+00  0.00000000000E+00  0.14079455094E+04  0.14079455094E+04  0.00000000000E+00 0.  1.
          2   -1    0    0  501    0  0.00000000000E+00 -0.00000000000E+00 -0.36241328094E+04  0.36241328094E+04  0.00000000000E+00 0. -1.
         23    2    1    2    0    0 -0.12690895798E+04  0.85676628378E+03 -0.29569822031E+04  0.33310745225E+04  0.87617910980E+02 0.  0.
         13    1    3    3    0    0 -0.16136558153E+03  0.14501347561E+03 -0.43135702518E+03  0.48284225393E+03  0.00000000000E+00 0. -1.
        -13    1    3    3    0    0 -0.11077239983E+04  0.71175280817E+03 -0.25256251779E+04  0.28482322685E+04  0.00000000000E+00 0.  1.
         22    1    1    2    0    0  0.12690895798E+04 -0.85676628378E+03  0.74079490309E+03  0.17010037963E+04  0.00000000000E+00 0.  1.
<mgrwt>
<rscale>  0 0.45177789E+04</rscale>
<asrwt>0</asrwt>
<pdfrwt beam="1">  1        2 0.55755889E+00 0.45177789E+04</pdfrwt>
<pdfrwt beam="2">  1       -2 0.21660700E+00 0.45177789E+04</pdfrwt>
<totfact> 0.52000670E-02</totfact>
</mgrwt>
</event>
<event>
 6    1  0.1762360E-005  0.2114078E+04  0.7818608E-02  0.8555067E-01
         -1   -1    0    0    0  501 -0.00000000000E+00  0.00000000000E+00  0.17586922127E+04  0.17586922127E+04  0.00000000000E+00 0.  1.
          1   -1    0    0  501    0  0.00000000000E+00 -0.00000000000E+00 -0.63531972359E+03  0.63531972359E+03  0.00000000000E+00 0. -1.
         23    2    1    2    0    0  0.27227330041E+03 -0.64394157014E+03 -0.33203036946E+03  0.77939403207E+03  0.91746362939E+02 0.  0.
         11    1    3    3    0    0  0.90174034127E+02 -0.27355250087E+03 -0.94214544369E+02  0.30304901837E+03  0.00000000000E+00 0.  1.
        -11    1    3    3    0    0  0.18209926628E+03 -0.37038906927E+03 -0.23781582509E+03  0.47634501371E+03  0.00000000000E+00 0. -1.
         22    1    1    2    0    0 -0.27227330041E+03  0.64394157014E+03  0.14554028586E+04  0.16146179042E+04  0.00000000000E+00 0.  1.
<mgrwt>
<rscale>  0 0.21140784E+04</rscale>
<asrwt>0</asrwt>
<pdfrwt beam="1">  1        1 0.97741496E-01 0.21140784E+04</pdfrwt>
<pdfrwt beam="2">  1       -1 0.27056803E+00 0.21140784E+04</pdfrwt>
<totfact> 0.14827252E+00</totfact>
</mgrwt>
</event>
<event>
 6    1  0.1762360E-005  0.2798330E+04  0.7818608E-02  0.8303787E-01
          2   -1    0    0  501    0  0.00000000000E+00  0.00000000000E+00  0.20390860025E+04  0.20390860025E+04  0.00000000000E+00 0. -1.
         -2   -1    0    0    0  501 -0.00000000000E+00 -0.00000000000E+00 -0.96006879951E+03  0.96006879951E+03  0.00000000000E+00 0.  1.
         23    2    1    2    0    0  0.14250116736E+03 -0.12915308967E+04  0.10920217140E+04  0.16997211726E+04  0.90454412699E+02 0.  0.
         13    1    3    3    0    0  0.97566958093E+02 -0.10972494581E+04  0.89410660452E+03  0.14187678827E+04  0.00000000000E+00 0. -1.
        -13    1    3    3    0    0  0.44934209271E+02 -0.19428143861E+03  0.19791510951E+03  0.28095328993E+03  0.00000000000E+00 0.  1.
         22    1    1    2    0    0 -0.14250116736E+03  0.12915308967E+04 -0.13004511019E+02  0.12994336294E+04  0.00000000000E+00 0.  1.
<mgrwt>
<rscale>  0 0.27983301E+04</rscale>
<asrwt>0</asrwt>
<pdfrwt beam="1">  1        2 0.31370554E+00 0.27983301E+04</pdfrwt>
<pdfrwt beam="2">  1       -2 0.14770289E+00 0.27983301E+04</pdfrwt>
<totfact> 0.17261350E+00</totfact>
</mgrwt>
</event>
<event>
 6    1  0.1762360E-005  0.1986353E+04  0.7818608E-02  0.8613028E-01
         -2   -1    0    0    0  501 -0.00000000000E+00  0.00000000000E+00  0.40453603318E+03  0.40453603318E+03  0.00000000000E+00 0. -1.
          2   -1    0    0  501    0  0.00000000000E+00 -0.00000000000E+00 -0.24383484783E+04  0.24383484783E+04  0.00000000000E+00 0.  1.
         23    2    1    2    0    0 -0.74912107010E+03  0.13572240071E+03 -0.11082249419E+03  0.77467434346E+03  0.90751118332E+02 0.  0.
         13    1    3    3    0    0 -0.23996149898E+03  0.84469245062E+02 -0.51006526940E+02  0.25945758834E+03  0.00000000000E+00 0. -1.
        -13    1    3    3    0    0 -0.50915957112E+03  0.51253155652E+02 -0.59815967250E+02  0.51521675512E+03  0.00000000000E+00 0.  1.
         22    1    1    2    0    0  0.74912107010E+03 -0.13572240071E+03 -0.19229899509E+04  0.20682101680E+04  0.00000000000E+00 0.  1.
<mgrwt>
<rscale>  0 0.19863533E+04</rscale>
<asrwt>0</asrwt>
<pdfrwt beam="1">  1        2 0.37513054E+00 0.19863533E+04</pdfrwt>
<pdfrwt beam="2">  1       -2 0.62236312E-01 0.19863533E+04</pdfrwt>
<totfact> 0.84252433E+00</totfact>
</mgrwt>
</event>
<event>
 6    1  0.1762360E-005  0.3175810E+04  0.7818608E-02  0.8195235E-01
         -2   -1    0    0    0  501 -0.00000000000E+00  0.00000000000E+00  0.18636207668E+04  0.18636207668E+04  0.00000000000E+00 0.  1.
          2   -1    0    0  501    0  0.00000000000E+00 -0.00000000000E+00 -0.13529804737E+04  0.13529804737E+04  0.00000000000E+00 0. -1.
         23    2    1    2    0    0 -0.61382655827E+03 -0.90769445322E+03 -0.90673442556E+03  0.14250534860E+04  0.88982331366E+02 0.  0.
         11    1    3    3    0    0 -0.21841405356E+03 -0.35709999617E+03 -0.29646109763E+03  0.51294667214E+03  0.00000000000E+00 0. -1.
        -11    1    3    3    0    0 -0.39541250472E+03 -0.55059445705E+03 -0.61027332794E+03  0.91210681381E+03  0.00000000000E+00 0.  1.
         22    1    1    2    0    0  0.61382655827E+03  0.90769445322E+03  0.14173747187E+04  0.17915477546E+04  0.00000000000E+00 0.  1.
<mgrwt>
<rscale>  0 0.31758101E+04</rscale>
<asrwt>0</asrwt>
<pdfrwt beam="1">  1        2 0.20815084E+00 0.31758101E+04</pdfrwt>
<pdfrwt beam="2">  1       -2 0.28671089E+00 0.31758101E+04</pdfrwt>
<totfact> 0.49793748E-01</totfact>
</mgrwt>
</event>
<event>
 6    1  0.1762360E-005  0.3312624E+04  0.7818608E-02  0.8159691E-01
          2   -1    0    0  501    0  0.00000000000E+00  0.00000000000E+00  0.16424340087E+04  0.16424340087E+04  0.00000000000E+00 0. -1.
         -2   -1    0    0    0  501 -0.00000000000E+00 -0.00000000000E+00 -0.16703076975E+04  0.16703076975E+04  0.00000000000E+00 0.  1.
         23    2    1    2    0    0 -0.15857918651E+04 -0.46256086622E+03  0.88273874701E+02  0.16567861963E+04  0.91922950901E+02 0.  0.
         11    1    3    3    0    0 -0.13099415857E+04 -0.41740160635E+03  0.79293296255E+02  0.13771196338E+04  0.00000000000E+00 0. -1.
        -11    1    3    3    0    0 -0.27585027933E+03 -0.45159259870E+02  0.89805784465E+01  0.27966656244E+03  0.00000000000E+00 0.  1.
         22    1    1    2    0    0  0.15857918651E+04  0.46256086622E+03 -0.11614756344E+03  0.16559555099E+04  0.00000000000E+00 0. -1.
<mgrwt>
<rscale>  0 0.33126244E+04</rscale>
<asrwt>0</asrwt>
<pdfrwt beam="1">  1        2 0.25268215E+00 0.33126244E+04</pdfrwt>
<pdfrwt beam="2">  1       -2 0.25697042E+00 0.33126244E+04</pdfrwt>
<totfact> 0.51300310E-01</totfact>
</mgrwt>
</event>
<event>
 6    1  0.1762360E-005  0.1225510E+04  0.7818608E-02  0.9090816E-01
          2   -1    0    0  501    0  0.00000000000E+00  0.00000000000E+00  0.15796733573E+04  0.15796733573E+04  0.00000000000E+00 0.  1.
         -2   -1    0    0    0  501 -0.00000000000E+00 -0.00000000000E+00 -0.23768763226E+03  0.23768763226E+03  0.00000000000E+00 0. -1.
         23    2    1    2    0    0  0.16206577760E+03  0.41745230653E+03  0.12875497040E+04  0.13662567612E+04  0.91332100743E+02 0.  0.
         13    1    3    3    0    0  0.10823802239E+03  0.27283080648E+03  0.96578127511E+03  0.10093986278E+04  0.00000000000E+00 0.  1.
        -13    1    3    3    0    0  0.53827755212E+02  0.14462150005E+03  0.32176842889E+03  0.35685813335E+03  0.00000000000E+00 0. -1.
         22    1    1    2    0    0 -0.16206577760E+03 -0.41745230653E+03  0.54436021044E+02  0.45110422840E+03  0.00000000000E+00 0. -1.
<mgrwt>
<rscale>  0 0.12255102E+04</rscale>
<asrwt>0</asrwt>
<pdfrwt beam="1">  1        2 0.24302666E+00 0.12255102E+04</pdfrwt>
<pdfrwt beam="2">  1       -2 0.36567329E-01 0.12255102E+04</pdfrwt>
<totfact> 0.79383283E+01</totfact>
</mgrwt>
</event>
<event>
 6    1  0.1762360E-005  0.8070070E+03  0.7818608E-02  0.9549930E-01
          2   -1    0    0  501    0  0.00000000000E+00  0.00000000000E+00  0.56753283416E+03  0.56753283416E+03  0.00000000000E+00 0. -1.
         -2   -1    0    0    0  501 -0.00000000000E+00 -0.00000000000E+00 -0.28688221183E+03  0.28688221183E+03  0.00000000000E+00 0.  1.
         23    2    1    2    0    0  0.98884964764E+02 -0.96709379458E+02 -0.25325500585E+03  0.30288430330E+03  0.92031857901E+02 0.  0.
         11    1    3    3    0    0  0.64732859182E+02 -0.29897786172E+02 -0.19579992486E+03  0.20837905666E+03  0.00000000000E+00 0. -1.
        -11    1    3    3    0    0  0.34152105582E+02 -0.66811593286E+02 -0.57455080986E+02  0.94505246648E+02  0.00000000000E+00 0.  1.
         22    1    1    2    0    0 -0.98884964764E+02  0.96709379458E+02  0.53390562817E+03  0.55153074268E+03  0.00000000000E+00 0. -1.
<mgrwt>
<rscale>  0 0.80700700E+03</rscale>
<asrwt>0</asrwt>
<pdfrwt beam="1">  1        2 0.87312744E-01 0.80700700E+03</pdfrwt>
<pdfrwt beam="2">  1       -2 0.44135725E-01 0.80700700E+03</pdfrwt>
<totfact> 0.25979127E+02</totfact>
</mgrwt>
</event>
<event>
 6    1  0.1762360E-005  0.6022786E+03  0.7818608E-02  0.9900690E-01
          2   -1    0    0  501    0  0.00000000000E+00  0.00000000000E+00  0.32932669025E+03  0.32932669025E+03  0.00000000000E+00 0. -1.
         -2   -1    0    0    0  501 -0.00000000000E+00 -0.00000000000E+00 -0.27536445632E+03  0.27536445632E+03  0.00000000000E+00 0.  1.
         23    2    1    2    0    0  0.26406655840E+03 -0.12327364367E+03 -0.12809305258E+02  0.30571626981E+03  0.91492190021E+02 0.  0.
         13    1    3    3    0    0  0.11628780326E+03 -0.24949681353E+02 -0.41389611741E+02  0.12593029718E+03  0.00000000000E+00 0.  1.
        -13    1    3    3    0    0  0.14777875514E+03 -0.98323962316E+02  0.28580306483E+02  0.17978597263E+03  0.00000000000E+00 0. -1.
         22    1    1    2    0    0 -0.26406655840E+03  0.12327364367E+03  0.66771539183E+02  0.29897487676E+03  0.00000000000E+00 0. -1.
<mgrwt>
<rscale>  0 0.60227856E+03</rscale>
<asrwt>0</asrwt>
<pdfrwt beam="1">  1        2 0.50665644E-01 0.60227856E+03</pdfrwt>
<pdfrwt beam="2">  1       -2 0.42363763E-01 0.60227856E+03</pdfrwt>
<totfact> 0.52666461E+02</totfact>
</mgrwt>
</event>
<event>
 6    1  0.1762360E-005  0.2924974E+04  0.7818608E-02  0.8265485E-01
         -1   -1    0    0    0  501 -0.00000000000E+00  0.00000000000E+00  0.76842711372E+03  0.76842711372E+03  0.00000000000E+00 0.  1.
          1   -1    0    0  501    0  0.00000000000E+00 -0.00000000000E+00 -0.27834372814E+04  0.27834372814E+04  0.00000000000E+00 0. -1.
         23    2    1    2    0    0 -0.19438201747E+03 -0.10924618812E+04  0.14575594087E+03  0.11228383544E+04  0.90905693928E+02 0.  0.
         13    1    3    3    0    0 -0.62185760272E+02 -0.50865427043E+03  0.10327931081E+03  0.52274549414E+03  0.00000000000E+00 0.  1.
        -13    1    3    3    0    0 -0.13219625719E+03 -0.58380761079E+03  0.42476630058E+02  0.60009286026E+03  0.00000000000E+00 0. -1.
         22    1    1    2    0    0  0.19438201747E+03  0.10924618812E+04 -0.21607661086E+04  0.24290260407E+04  0.00000000000E+00 0. -1.
<mgrwt>
<rscale>  0 0.29249743E+04</rscale>
<asrwt>0</asrwt>
<pdfrwt beam="1">  1        1 0.42822111E+00 0.29249743E+04</pdfrwt>
<pdfrwt beam="2">  1       -1 0.11821956E+00 0.29249743E+04</pdfrwt>
<totfact> 0.47072646E-01</totfact>
</mgrwt>
</event>
<event>
 6    1  0.1762360E-005  0.2961954E+04  0.7818608E-02  0.8254679E-01
          1   -1    0    0  501    0  0.00000000000E+00  0.00000000000E+00  0.10926932055E+04  0.10926932055E+04  0.00000000000E+00 0. -1.
         -1   -1    0    0    0  501 -0.00000000000E+00 -0.00000000000E+00 -0.20072360016E+04  0.20072360016E+04  0.00000000000E+00 0.  1.
         23    2    1    2    0    0  0.89031825141E+03 -0.10385939286E+04 -0.10474832686E+04  0.17255140200E+04  0.93986690039E+02 0.  0.
         13    1    3    3    0    0  0.80670665087E+03 -0.92710488142E+03 -0.90502112114E+03  0.15262248561E+04  0.00000000000E+00 0. -1.
        -13    1    3    3    0    0  0.83611600536E+02 -0.11148904718E+03 -0.14246214741E+03  0.19928916386E+03  0.00000000000E+00 0.  1.
         22    1    1    2    0    0 -0.89031825141E+03  0.10385939286E+04  0.13294047244E+03  0.13744151871E+04  0.00000000000E+00 0. -1.
<mgrwt>
<rscale>  0 0.29619542E+04</rscale>
<asrwt>0</asrwt>
<pdfrwt beam="1">  1        1 0.16810665E+00 0.29619542E+04</pdfrwt>
<pdfrwt beam="2">  1       -1 0.30880554E+00 0.29619542E+04</pdfrwt>
<totfact> 0.31736215E-01</totfact>
</mgrwt>
</event>
<event>
 6    1  0.1762360E-005  0.3910028E+04  0.7818608E-02  0.8022947E-01
         -1   -1    0    0    0  501 -0.00000000000E+00  0.00000000000E+00  0.91292949416E+03  0.91292949416E+03  0.00000000000E+00 0.  1.
          1   -1    0    0  501    0  0.00000000000E+00 -0.00000000000E+00 -0.41866092146E+04  0.41866092146E+04  0.00000000000E+00 0. -1.
         23    2    1    2    0    0  0.13888682589E+04 -0.10401904449E+04 -0.28095289352E+04  0.33033240352E+04  0.86865652757E+02 0.  0.
         13    1    3    3    0    0  0.23050631354E+03 -0.17183471138E+03 -0.52931462314E+03  0.60235728508E+03  0.00000000000E+00 0.  1.
        -13    1    3    3    0    0  0.11583619453E+04 -0.86835573354E+03 -0.22802143120E+04  0.27009667501E+04  0.00000000000E+00 0. -1.
         22    1    1    2    0    0 -0.13888682589E+04  0.10401904449E+04 -0.46415078527E+03  0.17962146736E+04  0.00000000000E+00 0.  1.
<mgrwt>
<rscale>  0 0.39100276E+04</rscale>
<asrwt>0</asrwt>
<pdfrwt beam="1">  1        1 0.64409371E+00 0.39100276E+04</pdfrwt>
<pdfrwt beam="2">  1       -1 0.14045069E+00 0.39100276E+04</pdfrwt>
<totfact> 0.21242928E-02</totfact>
</mgrwt>
</event>
<event>
 6    1  0.1762360E-005  0.3824395E+04  0.7818608E-02  0.8040940E-01
         -2   -1    0    0    0  501 -0.00000000000E+00  0.00000000000E+00  0.34506906074E+04  0.34506906074E+04  0.00000000000E+00 0.  1.
          2   -1    0    0  501    0  0.00000000000E+00 -0.00000000000E+00 -0.10596427315E+04  0.10596427315E+04  0.00000000000E+00 0. -1.
         23    2    1    2    0    0  0.11529596458E+04 -0.30683222342E+03 -0.56438923375E+03  0.13231605373E+04  0.93576931725E+02 0.  0.
         11    1    3    3    0    0  0.62606739499E+03 -0.20500857661E+03 -0.27989610056E+03  0.71577281777E+03  0.00000000000E+00 0. -1.
        -11    1    3    3    0    0  0.52689225085E+03 -0.10182364681E+03 -0.28449313319E+03  0.60738771957E+03  0.00000000000E+00 0.  1.
         22    1    1    2    0    0 -0.11529596458E+04  0.30683222342E+03  0.29554371096E+04  0.31871728016E+04  0.00000000000E+00 0.  1.
<mgrwt>
<rscale>  0 0.38243950E+04</rscale>
<asrwt>0</asrwt>
<pdfrwt beam="1">  1        2 0.16302196E+00 0.38243950E+04</pdfrwt>
<pdfrwt beam="2">  1       -2 0.53087547E+00 0.38243950E+04</pdfrwt>
<totfact> 0.19988919E-02</totfact>
</mgrwt>
</event>
<event>
 6    1  0.1762360E-005  0.2270681E+04  0.7818608E-02  0.8489572E-01
         -1   -1    0    0    0  501 -0.00000000000E+00  0.00000000000E+00  0.62285006212E+03  0.62285006212E+03  0.00000000000E+00 0.  1.
          1   -1    0    0  501    0  0.00000000000E+00 -0.00000000000E+00 -0.20695165775E+04  0.20695165775E+04  0.00000000000E+00 0. -1.
         23    2    1    2    0    0  0.75134784475E+03  0.14231611739E+03  0.26766729197E+03  0.81520978307E+03  0.90242729035E+02 0.  0.
         13    1    3    3    0    0  0.38345425227E+03  0.10794881098E+03  0.10835473731E+03  0.41283272457E+03  0.00000000000E+00 0.  1.
        -13    1    3    3    0    0  0.36789359249E+03  0.34367306408E+02  0.15931255466E+03  0.40237705851E+03  0.00000000000E+00 0. -1.
         22    1    1    2    0    0 -0.75134784475E+03 -0.14231611739E+03 -0.17143338074E+04  0.18771568566E+04  0.00000000000E+00 0. -1.
<mgrwt>
<rscale>  0 0.22706814E+04</rscale>
<asrwt>0</asrwt>
<pdfrwt beam="1">  1        1 0.31838716E+00 0.22706814E+04</pdfrwt>
<pdfrwt beam="2">  1       -1 0.95823087E-01 0.22706814E+04</pdfrwt>
<totfact> 0.25431897E+00</totfact>
</mgrwt>
</event>
<event>
 6    1  0.1762360E-005  0.2964754E+04  0.7818608E-02  0.8253868E-01
         -1   -1    0    0    0  501 -0.00000000000E+00  0.00000000000E+00  0.13846461241E+04  0.13846461241E+04  0.00000000000E+00 0.  1.
          1   -1    0    0  501    0  0.00000000000E+00 -0.00000000000E+00 -0.15870060940E+04  0.15870060940E+04  0.00000000000E+00 0. -1.
         23    2    1    2    0    0  0.21940665590E+03  0.87938806875E+03  0.10727328469E+04  0.14072595732E+04  0.90338748555E+02 0.  0.
         11    1    3    3    0    0  0.67078676808E+02  0.45535913536E+03  0.54404219651E+03  0.71262430679E+03  0.00000000000E+00 0. -1.
        -11    1    3    3    0    0  0.15232797909E+03  0.42402893339E+03  0.52869065039E+03  0.69463526643E+03  0.00000000000E+00 0.  1.
         22    1    1    2    0    0 -0.21940665590E+03 -0.87938806875E+03 -0.12750928168E+04  0.15643926449E+04  0.00000000000E+00 0. -1.
<mgrwt>
<rscale>  0 0.29647542E+04</rscale>
<asrwt>0</asrwt>
<pdfrwt beam="1">  1        1 0.24415478E+00 0.29647542E+04</pdfrwt>
<pdfrwt beam="2">  1       -1 0.21302248E+00 0.29647542E+04</pdfrwt>
<totfact> 0.59630500E-01</totfact>
</mgrwt>
</event>
<event>
 6    1  0.1762360E-005  0.7540867E+03  0.7818608E-02  0.9628961E-01
         -1   -1    0    0    0  501 -0.00000000000E+00  0.00000000000E+00  0.10696058214E+03  0.10696058214E+03  0.00000000000E+00 0.  1.
          1   -1    0    0  501    0  0.00000000000E+00 -0.00000000000E+00 -0.13291034345E+04  0.13291034345E+04  0.00000000000E+00 0. -1.
         23    2    1    2    0    0  0.24780425925E+03 -0.24861020254E+03 -0.85211097193E+03  0.92602717852E+03  0.90660041677E+02 0.  0.
         13    1    3    3    0    0  0.14764928913E+03 -0.18171850030E+03 -0.46513600014E+03  0.52074314643E+03  0.00000000000E+00 0.  1.
        -13    1    3    3    0    0  0.10015497012E+03 -0.66891702240E+02 -0.38697497179E+03  0.40528403209E+03  0.00000000000E+00 0. -1.
         22    1    1    2    0    0 -0.24780425925E+03  0.24861020254E+03 -0.37003188043E+03  0.51003683813E+03  0.00000000000E+00 0.  1.
<mgrwt>
<rscale>  0 0.75408667E+03</rscale>
<asrwt>0</asrwt>
<pdfrwt beam="1">  1        1 0.20447746E+00 0.75408667E+03</pdfrwt>
<pdfrwt beam="2">  1       -1 0.16455473E-01 0.75408667E+03</pdfrwt>
<totfact> 0.24744478E+02</totfact>
</mgrwt>
</event>
<event>
 6    1  0.1762360E-005  0.3246897E+04  0.7818608E-02  0.8176541E-01
          1   -1    0    0  501    0  0.00000000000E+00  0.00000000000E+00  0.12472075084E+04  0.12472075084E+04  0.00000000000E+00 0.  1.
         -1   -1    0    0    0  501 -0.00000000000E+00 -0.00000000000E+00 -0.21131885215E+04  0.21131885215E+04  0.00000000000E+00 0. -1.
         23    2    1    2    0    0  0.54322928383E+03 -0.14512775721E+03 -0.20081226132E+04  0.20873494654E+04  0.91166004605E+02 0.  0.
         13    1    3    3    0    0  0.23819329972E+03 -0.98082985222E+02 -0.10277603759E+04  0.10595507115E+04  0.00000000000E+00 0.  1.
        -13    1    3    3    0    0  0.30503598412E+03 -0.47044771983E+02 -0.98036223734E+03  0.10277987539E+04  0.00000000000E+00 0. -1.
         22    1    1    2    0    0 -0.54322928383E+03  0.14512775721E+03  0.11421416001E+04  0.12730465645E+04  0.00000000000E+00 0.  1.
<mgrwt>
<rscale>  0 0.32468967E+04</rscale>
<asrwt>0</asrwt>
<pdfrwt beam="1">  1        1 0.19187808E+00 0.32468967E+04</pdfrwt>
<pdfrwt beam="2">  1       -1 0.32510593E+00 0.32468967E+04</pdfrwt>
<totfact> 0.18641388E-01</totfact>
</mgrwt>
</event>
<event>
 6    1  0.1762360E-005  0.2549937E+04  0.7818608E-02  0.8385408E-01
          2   -1    0    0  501    0  0.00000000000E+00  0.00000000000E+00  0.11428530800E+04  0.11428530800E+04  0.00000000000E+00 0. -1.
         -2   -1    0    0    0  501 -0.00000000000E+00 -0.00000000000E+00 -0.14223567218E+04  0.14223567218E+04  0.00000000000E+00 0.  1.
         23    2    1    2    0    0 -0.77273878326E+03  0.62819958035E+03  0.65831155255E+03  0.11972707393E+04  0.91231480832E+02 0.  0.
         13    1    3    3    0    0 -0.55472212807E+03  0.41627310868E+03  0.41843987634E+03  0.80999498177E+03  0.00000000000E+00 0.  1.
        -13    1    3    3    0    0 -0.21801665519E+03  0.21192647168E+03  0.23987167621E+03  0.38727575755E+03  0.00000000000E+00 0. -1.
         22    1    1    2    0    0  0.77273878326E+03 -0.62819958035E+03 -0.93781519439E+03  0.13679390625E+04  0.00000000000E+00 0.  1.
<mgrwt>
<rscale>  0 0.25499371E+04</rscale>
<asrwt>0</asrwt>
<pdfrwt beam="1">  1        2 0.17582355E+00 0.25499371E+04</pdfrwt>
<pdfrwt beam="2">  1       -2 0.21882411E+00 0.25499371E+04</pdfrwt>
<totfact> 0.18312882E+00</totfact>
</mgrwt>
</event>
<event>
 6    1  0.2213574E-005  0.3614809E+04  0.7818608E-02  0.8087108E-01
          2   -1    0    0  501    0  0.00000000000E+00  0.00000000000E+00  0.20786552873E+04  0.20786552873E+04  0.00000000000E+00 0.  1.
         -2   -1    0    0    0  501 -0.00000000000E+00 -0.00000000000E+00 -0.15715500090E+04  0.15715500090E+04  0.00000000000E+00 0. -1.
         23    2    1    2    0    0  0.13575718335E+04  0.58055804311E+03 -0.79692188355E+03  0.16802977443E+04  0.90923574079E+02 0.  0.
         13    1    3    3    0    0  0.78599340845E+03  0.34916308777E+03 -0.51299375805E+03  0.10014305247E+04  0.00000000000E+00 0.  1.
        -13    1    3    3    0    0  0.57157842510E+03  0.23139495534E+03 -0.28392812550E+03  0.67886721959E+03  0.00000000000E+00 0. -1.
         22    1    1    2    0    0 -0.13575718335E+04 -0.58055804311E+03  0.13040271619E+04  0.19699075520E+04  0.00000000000E+00 0.  1.
<mgrwt>
<rscale>  0 0.36148088E+04</rscale>
<asrwt>0</asrwt>
<pdfrwt beam="1">  1        2 0.31979312E+00 0.36148088E+04</pdfrwt>
<pdfrwt beam="2">  1       -2 0.24177692E+00 0.36148088E+04</pdfrwt>
<totfact> 0.35510222E-01</totfact>
</mgrwt>
</event>
<event>
 6    1  0.1762360E-005  0.4540550E+04  0.7818608E-02  0.7903576E-01
          2   -1    0    0  501    0  0.00000000000E+00  0.00000000000E+00  0.28190174154E+04  0.28190174154E+04  0.00000000000E+00 0. -1.
         -2   -1    0    0    0  501 -0.00000000000E+00 -0.00000000000E+00 -0.18283489640E+04  0.18283489640E+04  0.00000000000E+00 0.  1.
         23    2    1    2    0    0 -0.11739901718E+04  0.18009284851E+04 -0.24895808611E+03  0.21657801358E+04  0.83828014010E+02 0.  0.
         11    1    3    3    0    0 -0.31372816163E+02  0.32271782786E+02  0.30595219266E+01  0.45111885713E+02  0.00000000000E+00 0. -1.
        -11    1    3    3    0    0 -0.11426173557E+04  0.17686567023E+04 -0.25201760803E+03  0.21206682501E+04  0.00000000000E+00 0.  1.
         22    1    1    2    0    0  0.11739901718E+04 -0.18009284851E+04  0.12396265375E+04  0.24815862436E+04  0.00000000000E+00 0. -1.
<mgrwt>
<rscale>  0 0.45405496E+04</rscale>
<asrwt>0</asrwt>
<pdfrwt beam="1">  1        2 0.43369499E+00 0.45405496E+04</pdfrwt>
<pdfrwt beam="2">  1       -2 0.28128446E+00 0.45405496E+04</pdfrwt>
<totfact> 0.70320588E-02</totfact>
</mgrwt>
</event>
<event>
 6    1  0.1762360E-005  0.3000168E+04  0.7818608E-02  0.8243683E-01
          2   -1    0    0  501    0  0.00000000000E+00  0.00000000000E+00  0.37369374489E+04  0.37369374489E+04  0.00000000000E+00 0. -1.
         -2   -1    0    0    0  501 -0.00000000000E+00 -0.00000000000E+00 -0.60216465524E+03  0.60216465524E+03  0.00000000000E+00 0.  1.
         23    2    1    2    0    0  0.56213022696E+03 -0.12652124613E+04  0.73965742250E+03  0.15726367410E+04  0.96644980766E+02 0.  0.
         13    1    3    3    0    0  0.47881452798E+03 -0.98052213612E+03  0.57806888085E+03  0.12348484290E+04  0.00000000000E+00 0. -1.
        -13    1    3    3    0    0  0.83315698972E+02 -0.28469032516E+03  0.16158854165E+03  0.33778831201E+03  0.00000000000E+00 0.  1.
         22    1    1    2    0    0 -0.56213022696E+03  0.12652124613E+04  0.23951153712E+04  0.27664653631E+04  0.00000000000E+00 0. -1.
<mgrwt>
<rscale>  0 0.30001678E+04</rscale>
<asrwt>0</asrwt>
<pdfrwt beam="1">  1        2 0.57491344E+00 0.30001678E+04</pdfrwt>
<pdfrwt beam="2">  1       -2 0.92640718E-01 0.30001678E+04</pdfrwt>
<totfact> 0.46321418E-01</totfact>
</mgrwt>
</event>
<event>
 6    1  0.1762360E-005  0.1663753E+04  0.7818608E-02  0.8782312E-01
          1   -1    0    0  501    0  0.00000000000E+00  0.00000000000E+00  0.10739955703E+04  0.10739955703E+04  0.00000000000E+00 0.  1.
         -1   -1    0    0    0  501 -0.00000000000E+00 -0.00000000000E+00 -0.64434042071E+03  0.64434042071E+03  0.00000000000E+00 0. -1.
         23    2    1    2    0    0 -0.14868537602E+03 -0.53894035064E+03 -0.41703900645E+03  0.70371535430E+03  0.93432994069E+02 0.  0.
         13    1    3    3    0    0 -0.26650623573E+02 -0.25905327687E+03 -0.17046041655E+03  0.31124846924E+03  0.00000000000E+00 0. -1.
        -13    1    3    3    0    0 -0.12203475245E+03 -0.27988707377E+03 -0.24657858989E+03  0.39246688505E+03  0.00000000000E+00 0.  1.
         22    1    1    2    0    0  0.14868537602E+03  0.53894035064E+03  0.84669415607E+03  0.10146206367E+04  0.00000000000E+00 0.  1.
<mgrwt>
<rscale>  0 0.16637533E+04</rscale>
<asrwt>0</asrwt>
<pdfrwt beam="1">  1        1 0.16523009E+00 0.16637533E+04</pdfrwt>
<pdfrwt beam="2">  1       -1 0.99129296E-01 0.16637533E+04</pdfrwt>
<totfact> 0.12315678E+01</totfact>
</mgrwt>
</event>
<event>
 6    1  0.1762360E-005  0.3273265E+04  0.7818608E-02  0.8169732E-01
         -2   -1    0    0    0  501 -0.00000000000E+00  0.00000000000E+00  0.12101497418E+04  0.12101497418E+04  0.00000000000E+00 0.  1.
          2   -1    0    0  501    0  0.00000000000E+00 -0.00000000000E+00 -0.22134170310E+04  0.22134170310E+04  0.00000000000E+00 0. -1.
         23    2    1    2    0    0  0.14913909668E+04  0.50250250995E+03 -0.37055904402E+02  0.15768615368E+04  0.91451505271E+02 0.  0.
         11    1    3    3    0    0  0.88247873086E+03  0.34367539681E+03 -0.13461944400E+02  0.94713394657E+03  0.00000000000E+00 0. -1.
        -11    1    3    3    0    0  0.60891223596E+03  0.15882711314E+03 -0.23593960003E+02  0.62972759024E+03  0.00000000000E+00 0.  1.
         22    1    1    2    0    0 -0.14913909668E+04 -0.50250250995E+03 -0.96621138477E+03  0.18467052359E+04  0.00000000000E+00 0. -1.
<mgrwt>
<rscale>  0 0.32732651E+04</rscale>
<asrwt>0</asrwt>
<pdfrwt beam="1">  1        2 0.34052570E+00 0.32732651E+04</pdfrwt>
<pdfrwt beam="2">  1       -2 0.18617688E+00 0.32732651E+04</pdfrwt>
<totfact> 0.69871659E-01</totfact>
</mgrwt>
</event>
<event>
 6    1  0.1762360E-005  0.8397393E+03  0.7818608E-02  0.9504213E-01
          2   -1    0    0  501    0  0.00000000000E+00  0.00000000000E+00  0.90799938519E+03  0.90799938519E+03  0.00000000000E+00 0. -1.
         -2   -1    0    0    0  501 -0.00000000000E+00 -0.00000000000E+00 -0.19415270352E+03  0.19415270352E+03  0.00000000000E+00 0.  1.
         23    2    1    2    0    0 -0.39764885030E+03  0.99356749467E+02  0.44584598081E+03  0.61243712318E+03  0.91127489948E+02 0.  0.
         11    1    3    3    0    0 -0.32878392352E+03  0.11076693960E+03  0.34089533873E+03  0.48639265541E+03  0.00000000000E+00 0.  1.
        -11    1    3    3    0    0 -0.68864926787E+02 -0.11410190131E+02  0.10495064208E+03  0.12604446776E+03  0.00000000000E+00 0. -1.
         22    1    1    2    0    0  0.39764885030E+03 -0.99356749467E+02  0.26800070085E+03  0.48971496553E+03  0.00000000000E+00 0.  1.
<mgrwt>
<rscale>  0 0.83973933E+03</rscale>
<asrwt>0</asrwt>
<pdfrwt beam="1">  1        2 0.13969221E+00 0.83973933E+03</pdfrwt>
<pdfrwt beam="2">  1       -2 0.29869647E-01 0.83973933E+03</pdfrwt>
<totfact> 0.30032531E+02</totfact>
</mgrwt>
</event>
<event>
 6    1  0.2663829E-005  0.3906374E+04  0.7818608E-02  0.8023705E-01
         -2   -1    0    0    0  501 -0.00000000000E+00  0.00000000000E+00  0.17234068033E+04  0.17234068033E+04  0.00000000000E+00 0. -1.
          2   -1    0    0  501    0  0.00000000000E+00 -0.00000000000E+00 -0.22136035010E+04  0.22136035010E+04  0.00000000000E+00 0.  1.
         23    2    1    2    0    0 -0.10187218035E+04 -0.16322455042E+04  0.87207405155E+02  0.19281760660E+04  0.90765142533E+02 0.  0.
         13    1    3    3    0    0 -0.50606490806E+03 -0.73165499735E+03  0.57324592623E+02  0.89146331121E+03  0.00000000000E+00 0. -1.
        -13    1    3    3    0    0 -0.51265689547E+03 -0.90059050687E+03  0.29882812533E+02  0.10367127548E+04  0.00000000000E+00 0.  1.
         22    1    1    2    0    0  0.10187218035E+04  0.16322455042E+04 -0.57740410284E+03  0.20088342383E+04  0.00000000000E+00 0.  1.
<mgrwt>
<rscale>  0 0.39063739E+04</rscale>
<asrwt>0</asrwt>
<pdfrwt beam="1">  1        2 0.34055438E+00 0.39063739E+04</pdfrwt>
<pdfrwt beam="2">  1       -2 0.26513951E+00 0.39063739E+04</pdfrwt>
<totfact> 0.20930745E-01</totfact>
</mgrwt>
</event>
<event>
 6    1  0.1762360E-005  0.9766986E+03  0.7818608E-02  0.9334477E-01
         -1   -1    0    0    0  501 -0.00000000000E+00  0.00000000000E+00  0.16171971302E+03  0.16171971302E+03  0.00000000000E+00 0.  1.
          1   -1    0    0  501    0  0.00000000000E+00 -0.00000000000E+00 -0.14746813087E+04  0.14746813087E+04  0.00000000000E+00 0. -1.
         23    2    1    2    0    0 -0.12664101071E+03  0.45858573111E+03 -0.51284783131E+03  0.70553000256E+03  0.91765287936E+02 0.  0.
         13    1    3    3    0    0 -0.62865398334E+02  0.36828943291E+03 -0.38418868313E+03  0.53590121193E+03  0.00000000000E+00 0.  1.
        -13    1    3    3    0    0 -0.63775612377E+02  0.90296298194E+02 -0.12865914818E+03  0.16962879063E+03  0.00000000000E+00 0. -1.
         22    1    1    2    0    0  0.12664101071E+03 -0.45858573111E+03 -0.80011376442E+03  0.93087101920E+03  0.00000000000E+00 0. -1.
<mgrwt>
<rscale>  0 0.97669860E+03</rscale>
<asrwt>0</asrwt>
<pdfrwt beam="1">  1        1 0.22687406E+00 0.97669860E+03</pdfrwt>
<pdfrwt beam="2">  1       -1 0.24879955E-01 0.97669860E+03</pdfrwt>
<totfact> 0.96585846E+01</totfact>
</mgrwt>
</event>
<event>
 6    1  0.1762360E-005  0.5255398E+04  0.7818608E-02  0.7790274E-01
          2   -1    0    0  501    0  0.00000000000E+00  0.00000000000E+00  0.48938491484E+04  0.48938491484E+04  0.00000000000E+00 0. -1.
         -2   -1    0    0    0  501 -0.00000000000E+00 -0.00000000000E+00 -0.14109142513E+04  0.14109142513E+04  0.00000000000E+00 0.  1.
         23    2    1    2    0    0 -0.15591704531E+04 -0.75168832261E+03 -0.62867470170E+03  0.18436669730E+04  0.88477060838E+02 0.  0.
         13    1    3    3    0    0 -0.98235867170E+03 -0.49203576147E+03 -0.35704343704E+03  0.11552522523E+04  0.00000000000E+00 0. -1.
        -13    1    3    3    0    0 -0.57681178144E+03 -0.25965256114E+03 -0.27163126466E+03  0.68841472069E+03  0.00000000000E+00 0.  1.
         22    1    1    2    0    0  0.15591704531E+04  0.75168832261E+03  0.41116095988E+04  0.44610964268E+04  0.00000000000E+00 0. -1.
<mgrwt>
<rscale>  0 0.52553978E+04</rscale>
<asrwt>0</asrwt>
<pdfrwt beam="1">  1        2 0.75289986E+00 0.52553978E+04</pdfrwt>
<pdfrwt beam="2">  1       -2 0.21706373E+00 0.52553978E+04</pdfrwt>
<totfact> 0.33546922E-03</totfact>
</mgrwt>
</event>
<event>
 6    1  0.1762360E-005  0.1466897E+04  0.7818608E-02  0.8906769E-01
          1   -1    0    0  501    0  0.00000000000E+00  0.00000000000E+00  0.92706744199E+03  0.92706744199E+03  0.00000000000E+00 0. -1.
         -1   -1    0    0    0  501 -0.00000000000E+00 -0.00000000000E+00 -0.58026726896E+03  0.58026726896E+03  0.00000000000E+00 0.  1.
         23    2    1    2    0    0 -0.15738148520E+03 -0.59786801586E+03  0.57415651292E+03  0.84861929322E+03  0.91015972357E+02 0.  0.
         13    1    3    3    0    0 -0.14156922548E+02 -0.98633997464E+02  0.53042288474E+02  0.11288298489E+03  0.00000000000E+00 0.  1.
        -13    1    3    3    0    0 -0.14322456265E+03 -0.49923401840E+03  0.52111422445E+03  0.73573630833E+03  0.00000000000E+00 0. -1.
         22    1    1    2    0    0  0.15738148520E+03  0.59786801586E+03 -0.22735633989E+03  0.65871541773E+03  0.00000000000E+00 0.  1.
<mgrwt>
<rscale>  0 0.14668973E+04</rscale>
<asrwt>0</asrwt>
<pdfrwt beam="1">  1        1 0.14262576E+00 0.14668973E+04</pdfrwt>
<pdfrwt beam="2">  1       -1 0.89271887E-01 0.14668973E+04</pdfrwt>
<totfact> 0.20635771E+01</totfact>
</mgrwt>
</event>
<event>
 6    1  0.2461844E-005  0.5337568E+04  0.7818608E-02  0.7778444E-01
          2   -1    0    0  501    0  0.00000000000E+00  0.00000000000E+00  0.18393323102E+04  0.18393323102E+04  0.00000000000E+00 0. -1.
         -2   -1    0    0    0  501 -0.00000000000E+00 -0.00000000000E+00 -0.38722788701E+04  0.38722788701E+04  0.00000000000E+00 0.  1.
         23    2    1    2    0    0  0.25302569863E+03 -0.55531124053E+03 -0.37960575934E+04  0.38458799310E+04  0.91359801685E+02 0.  0.
         11    1    3    3    0    0  0.44817579827E+02 -0.17249492578E+03 -0.12830778289E+04  0.12953963988E+04  0.00000000000E+00 0.  1.
        -11    1    3    3    0    0  0.20820811881E+03 -0.38281631474E+03 -0.25129797644E+04  0.25504835322E+04  0.00000000000E+00 0. -1.
         22    1    1    2    0    0 -0.25302569863E+03  0.55531124053E+03  0.17631110335E+04  0.18657312493E+04  0.00000000000E+00 0. -1.
<mgrwt>
<rscale>  0 0.53375679E+04</rscale>
<asrwt>0</asrwt>
<pdfrwt beam="1">  1        2 0.28297421E+00 0.53375679E+04</pdfrwt>
<pdfrwt beam="2">  1       -2 0.59573520E+00 0.53375679E+04</pdfrwt>
<totfact> 0.31145883E-03</totfact>
</mgrwt>
</event>
<event>
 6    1  0.1762360E-005  0.1391788E+04  0.7818608E-02  0.8959785E-01
         -1   -1    0    0    0  501 -0.00000000000E+00  0.00000000000E+00  0.10281611929E+04  0.10281611929E+04  0.00000000000E+00 0.  1.
          1   -1    0    0  501    0  0.00000000000E+00 -0.00000000000E+00 -0.47100416550E+03  0.47100416550E+03  0.00000000000E+00 0. -1.
         23    2    1    2    0    0  0.49685810064E+03  0.48318655192E+03  0.26927542230E+03  0.74869015248E+03  0.87695354732E+02 0.  0.
         13    1    3    3    0    0  0.96614132048E+02  0.50472978312E+02  0.47673652698E+02  0.11897306087E+03  0.00000000000E+00 0.  1.
        -13    1    3    3    0    0  0.40024396859E+03  0.43271357360E+03  0.22160176960E+03  0.62971709161E+03  0.00000000000E+00 0. -1.
         22    1    1    2    0    0 -0.49685810064E+03 -0.48318655192E+03  0.28788160509E+03  0.75047520590E+03  0.00000000000E+00 0.  1.
<mgrwt>
<rscale>  0 0.13917876E+04</rscale>
<asrwt>0</asrwt>
<pdfrwt beam="1">  1        1 0.72462180E-01 0.13917876E+04</pdfrwt>
<pdfrwt beam="2">  1       -1 0.15817864E+00 0.13917876E+04</pdfrwt>
<totfact> 0.14164880E+01</totfact>
</mgrwt>
</event>
<event>
 6    1  0.1762360E-005  0.3531778E+04  0.7818608E-02  0.8106300E-01
         -2   -1    0    0    0  501 -0.00000000000E+00  0.00000000000E+00  0.23931791739E+04  0.23931791739E+04  0.00000000000E+00 0.  1.
          2   -1    0    0  501    0  0.00000000000E+00 -0.00000000000E+00 -0.13030213788E+04  0.13030213788E+04  0.00000000000E+00 0. -1.
         23    2    1    2    0    0 -0.57579442168E+03 -0.15221429551E+04 -0.16912248150E+03  0.16384723864E+04  0.86781076975E+02 0.  0.
         11    1    3    3    0    0 -0.45420752481E+03 -0.11495282266E+04 -0.16087649566E+03  0.12464352635E+04  0.00000000000E+00 0. -1.
        -11    1    3    3    0    0 -0.12158689687E+03 -0.37261472854E+03 -0.82459858462E+01  0.39203712286E+03  0.00000000000E+00 0.  1.
         22    1    1    2    0    0  0.57579442168E+03  0.15221429551E+04  0.12592802766E+04  0.20577281664E+04  0.00000000000E+00 0. -1.
<mgrwt>
<rscale>  0 0.35317778E+04</rscale>
<asrwt>0</asrwt>
<pdfrwt beam="1">  1        2 0.20046483E+00 0.35317778E+04</pdfrwt>
<pdfrwt beam="2">  1       -2 0.36818141E+00 0.35317778E+04</pdfrwt>
<totfact> 0.16082632E-01</totfact>
</mgrwt>
</event>
<event>
 6    1  0.1762360E-005  0.4618666E+04  0.7818608E-02  0.7890185E-01
         -2   -1    0    0    0  501 -0.00000000000E+00  0.00000000000E+00  0.30580562487E+04  0.30580562487E+04  0.00000000000E+00 0.  1.
          2   -1    0    0  501    0  0.00000000000E+00 -0.00000000000E+00 -0.17439243109E+04  0.17439243109E+04  0.00000000000E+00 0. -1.
         23    2    1    2    0    0  0.91975143645E+03 -0.15751465602E+04 -0.81363351601E+03  0.19994075957E+04  0.92746130276E+02 0.  0.
         11    1    3    3    0    0  0.47998107106E+03 -0.88899394836E+03 -0.41593918906E+03  0.10925646332E+04  0.00000000000E+00 0.  1.
        -11    1    3    3    0    0  0.43977036539E+03 -0.68615261181E+03 -0.39769432695E+03  0.90684296251E+03  0.00000000000E+00 0. -1.
         22    1    1    2    0    0 -0.91975143645E+03  0.15751465602E+04  0.21277654539E+04  0.28025729638E+04  0.00000000000E+00 0.  1.
<mgrwt>
<rscale>  0 0.46186659E+04</rscale>
<asrwt>0</asrwt>
<pdfrwt beam="1">  1        2 0.26829605E+00 0.46186659E+04</pdfrwt>
<pdfrwt beam="2">  1       -2 0.47047019E+00 0.46186659E+04</pdfrwt>
<totfact> 0.17761683E-02</totfact>
</mgrwt>
</event>
<event>
 6    1  0.1762360E-005  0.3242507E+04  0.7818608E-02  0.8177681E-01
         -2   -1    0    0    0  501 -0.00000000000E+00  0.00000000000E+00  0.24874698333E+04  0.24874698333E+04  0.00000000000E+00 0.  1.
          2   -1    0    0  501    0  0.00000000000E+00 -0.00000000000E+00 -0.10566810625E+04  0.10566810625E+04  0.00000000000E+00 0. -1.
         23    2    1    2    0    0 -0.15551747773E+04 -0.11686055378E+03  0.11950281067E+04  0.19668722053E+04  0.90934695756E+02 0.  0.
         13    1    3    3    0    0 -0.80786434423E+03 -0.10351628002E+03  0.64269499849E+03  0.10375053156E+04  0.00000000000E+00 0.  1.
        -13    1    3    3    0    0 -0.74731043311E+03 -0.13344273766E+02  0.55233310822E+03  0.92936688962E+03  0.00000000000E+00 0. -1.
         22    1    1    2    0    0  0.15551747773E+04  0.11686055378E+03  0.23576066407E+03  0.15772786906E+04  0.00000000000E+00 0. -1.
<mgrwt>
<rscale>  0 0.32425066E+04</rscale>
<asrwt>0</asrwt>
<pdfrwt beam="1">  1        2 0.16256632E+00 0.32425066E+04</pdfrwt>
<pdfrwt beam="2">  1       -2 0.38268767E+00 0.32425066E+04</pdfrwt>
<totfact> 0.18700128E-01</totfact>
</mgrwt>
</event>
<event>
 6    1  0.1762360E-005  0.2131502E+04  0.7818608E-02  0.8547492E-01
         -2   -1    0    0    0  501 -0.00000000000E+00  0.00000000000E+00  0.58218496647E+03  0.58218496647E+03  0.00000000000E+00 0.  1.
          2   -1    0    0  501    0  0.00000000000E+00 -0.00000000000E+00 -0.19509695724E+04  0.19509695724E+04  0.00000000000E+00 0. -1.
         23    2    1    2    0    0  0.16298083539E+03 -0.77694261621E+03 -0.15271620254E+04  0.17236571711E+04  0.92561385218E+02 0.  0.
         13    1    3    3    0    0  0.13422805160E+03 -0.63151333045E+03 -0.11575416125E+04  0.13254164783E+04  0.00000000000E+00 0. -1.
        -13    1    3    3    0    0  0.28752783787E+02 -0.14542928576E+03 -0.36962041290E+03  0.39824069275E+03  0.00000000000E+00 0.  1.
         22    1    1    2    0    0 -0.16298083539E+03  0.77694261621E+03  0.15837741939E+03  0.80949736785E+03  0.00000000000E+00 0.  1.
<mgrwt>
<rscale>  0 0.21315020E+04</rscale>
<asrwt>0</asrwt>
<pdfrwt beam="1">  1        2 0.30014916E+00 0.21315020E+04</pdfrwt>
<pdfrwt beam="2">  1       -2 0.89566919E-01 0.21315020E+04</pdfrwt>
<totfact> 0.69875788E+00</totfact>
</mgrwt>
</event>
<event>
 6    1  0.1762360E-005  0.2019145E+04  0.7818608E-02  0.8597722E-01
          2   -1    0    0  501    0  0.00000000000E+00  0.00000000000E+00  0.18373065211E+04  0.18373065211E+04  0.00000000000E+00 0. -1.
         -2   -1    0    0    0  501 -0.00000000000E+00 -0.00000000000E+00 -0.55474479133E+03  0.55474479133E+03  0.00000000000E+00 0.  1.
         23    2    1    2    0    0  0.83440910464E+03  0.17553622451E+03  0.65828182421E+01  0.85739379274E+03  0.89606151038E+02 0.  0.
         13    1    3    3    0    0  0.55367524651E+03  0.76064026850E+02  0.20275237587E+02  0.55924332811E+03  0.00000000000E+00 0. -1.
        -13    1    3    3    0    0  0.28073385814E+03  0.99472197659E+02 -0.13692419345E+02  0.29815046463E+03  0.00000000000E+00 0.  1.
         22    1    1    2    0    0 -0.83440910464E+03 -0.17553622451E+03  0.12759789115E+04  0.15346575196E+04  0.00000000000E+00 0. -1.
<mgrwt>
<rscale>  0 0.20191446E+04</rscale>
<asrwt>0</asrwt>
<pdfrwt beam="1">  1        2 0.28266254E+00 0.20191446E+04</pdfrwt>
<pdfrwt beam="2">  1       -2 0.85345353E-01 0.20191446E+04</pdfrwt>
<totfact> 0.91100902E+00</totfact>
</mgrwt>
</event>
<event>
 6    1  0.1762360E-005  0.2448218E+04  0.7818608E-02  0.8421669E-01
          2   -1    0    0  501    0  0.00000000000E+00  0.00000000000E+00  0.25615995017E+04  0.25615995017E+04  0.00000000000E+00 0. -1.
         -2   -1    0    0    0  501 -0.00000000000E+00 -0.00000000000E+00 -0.58496390002E+03  0.58496390002E+03  0.00000000000E+00 0.  1.
         23    2    1    2    0    0  0.66766780353E+03 -0.95641346936E+03  0.14599047259E+04  0.18708213361E+04  0.90242131660E+02 0.  0.
         13    1    3    3    0    0  0.57115747076E+03 -0.78864603048E+03  0.11692301026E+04  0.15216052216E+04  0.00000000000E+00 0.  1.
        -13    1    3    3    0    0  0.96510332778E+02 -0.16776743888E+03  0.29067462339E+03  0.34921611441E+03  0.00000000000E+00 0. -1.
         22    1    1    2    0    0 -0.66766780353E+03  0.95641346936E+03  0.51673087577E+03  0.12757420657E+04  0.00000000000E+00 0.  1.
<mgrwt>
<rscale>  0 0.24482183E+04</rscale>
<asrwt>0</asrwt>
<pdfrwt beam="1">  1        2 0.39409222E+00 0.24482183E+04</pdfrwt>
<pdfrwt beam="2">  1       -2 0.89994448E-01 0.24482183E+04</pdfrwt>
<totfact> 0.30339110E+00</totfact>
</mgrwt>
</event>
<event>
 6    1  0.1762360E-005  0.1283885E+04  0.7818608E-02  0.9042443E-01
         -2   -1    0    0    0  501 -0.00000000000E+00  0.00000000000E+00  0.44472335301E+03  0.44472335301E+03  0.00000000000E+00 0.  1.
          2   -1    0    0  501    0  0.00000000000E+00 -0.00000000000E+00 -0.92662081101E+03  0.92662081101E+03  0.00000000000E+00 0. -1.
         23    2    1    2    0    0 -0.17276938809E+03  0.60803995857E+03 -0.14437740604E+03  0.65476783303E+03  0.91182383793E+02 0.  0.
         11    1    3    3    0    0 -0.13175925399E+03  0.34094191922E+03 -0.11376629490E+03  0.38281152432E+03  0.00000000000E+00 0.  1.
        -11    1    3    3    0    0 -0.41010134105E+02  0.26709803935E+03 -0.30611111140E+02  0.27195630871E+03  0.00000000000E+00 0. -1.
         22    1    1    2    0    0  0.17276938809E+03 -0.60803995857E+03 -0.33752005196E+03  0.71657633100E+03  0.00000000000E+00 0.  1.
<mgrwt>
<rscale>  0 0.12838846E+04</rscale>
<asrwt>0</asrwt>
<pdfrwt beam="1">  1        2 0.14255705E+00 0.12838846E+04</pdfrwt>
<pdfrwt beam="2">  1       -2 0.68418978E-01 0.12838846E+04</pdfrwt>
<totfact> 0.53962734E+01</totfact>
</mgrwt>
</event>
<event>
 6    1  0.1762360E-005  0.5752395E+03  0.7818608E-02  0.9958151E-01
         -1   -1    0    0    0  501 -0.00000000000E+00  0.00000000000E+00  0.13649563440E+03  0.13649563440E+03  0.00000000000E+00 0.  1.
          1   -1    0    0  501    0  0.00000000000E+00 -0.00000000000E+00 -0.60606420410E+03  0.60606420410E+03  0.00000000000E+00 0. -1.
         23    2    1    2    0    0 -0.26004389258E+03  0.49447619201E+01 -0.10646390098E+03  0.29591425508E+03  0.92646680524E+02 0.  0.
         11    1    3    3    0    0 -0.20269846415E+03 -0.16202326333E+02 -0.11592200679E+03  0.23406643161E+03  0.00000000000E+00 0. -1.
        -11    1    3    3    0    0 -0.57345428429E+02  0.21147088253E+02  0.94581058099E+01  0.61847823477E+02  0.00000000000E+00 0.  1.
         22    1    1    2    0    0  0.26004389258E+03 -0.49447619201E+01 -0.36310466872E+03  0.44664558342E+03  0.00000000000E+00 0.  1.
<mgrwt>
<rscale>  0 0.57523949E+03</rscale>
<asrwt>0</asrwt>
<pdfrwt beam="1">  1        1 0.93240646E-01 0.57523949E+03</pdfrwt>
<pdfrwt beam="2">  1       -1 0.20999328E-01 0.57523949E+03</pdfrwt>
<totfact> 0.64165181E+02</totfact>
</mgrwt>
</event>
<event>
 6    1  0.1762360E-005  0.7277008E+03  0.7818608E-02  0.9670999E-01
          3   -1    0    0  501    0  0.00000000000E+00  0.00000000000E+00  0.12435281340E+04  0.12435281340E+04  0.00000000000E+00 0. -1.
         -3   -1    0    0    0  501 -0.00000000000E+00 -0.00000000000E+00 -0.10646088898E+03  0.10646088898E+03  0.00000000000E+00 0.  1.
         23    2    1    2    0    0  0.14042437909E+03  0.31372664245E+03  0.38787701582E+03  0.52571394029E+03  0.88222192105E+02 0.  0.
         11    1    3    3    0    0 -0.82774993742E+01  0.20492282634E+02  0.84664043076E+01  0.23667079358E+02  0.00000000000E+00 0.  1.
        -11    1    3    3    0    0  0.14870187846E+03  0.29323435982E+03  0.37941061152E+03  0.50204686093E+03  0.00000000000E+00 0. -1.
         22    1    1    2    0    0 -0.14042437909E+03 -0.31372664245E+03  0.74919022923E+03  0.82427508273E+03  0.00000000000E+00 0.  1.
<mgrwt>
<rscale>  0 0.72770079E+03</rscale>
<asrwt>0</asrwt>
<pdfrwt beam="1">  1        3 0.19131201E+00 0.72770079E+03</pdfrwt>
<pdfrwt beam="2">  1       -3 0.16378599E-01 0.72770079E+03</pdfrwt>
<totfact> 0.14586174E+01</totfact>
</mgrwt>
</event>
<event>
 6    1  0.1762360E-005  0.2126366E+04  0.7818608E-02  0.8549717E-01
         -2   -1    0    0    0  501 -0.00000000000E+00  0.00000000000E+00  0.18403333678E+04  0.18403333678E+04  0.00000000000E+00 0.  1.
          2   -1    0    0  501    0  0.00000000000E+00 -0.00000000000E+00 -0.61421404180E+03  0.61421404180E+03  0.00000000000E+00 0. -1.
         23    2    1    2    0    0  0.24651856210E+03  0.90245306655E+03  0.11933375599E+04  0.15184557566E+04  0.80376699789E+02 0.  0.
         13    1    3    3    0    0  0.21590085466E+03  0.66162067493E+03  0.89951015138E+03  0.11373098122E+04  0.00000000000E+00 0. -1.
        -13    1    3    3    0    0  0.30617707440E+02  0.24083239162E+03  0.29382740857E+03  0.38114594434E+03  0.00000000000E+00 0.  1.
         22    1    1    2    0    0 -0.24651856210E+03 -0.90245306655E+03  0.32781766102E+02  0.93609165308E+03  0.00000000000E+00 0. -1.
<mgrwt>
<rscale>  0 0.21263665E+04</rscale>
<asrwt>0</asrwt>
<pdfrwt beam="1">  1        2 0.94494469E-01 0.21263665E+04</pdfrwt>
<pdfrwt beam="2">  1       -2 0.28312821E+00 0.21263665E+04</pdfrwt>
<totfact> 0.17871108E+00</totfact>
</mgrwt>
</event>
<event>
 6    1  0.1762360E-005  0.2760811E+04  0.7818608E-02  0.8315539E-01
          2   -1    0    0  501    0  0.00000000000E+00  0.00000000000E+00  0.19605332765E+04  0.19605332765E+04  0.00000000000E+00 0. -1.
         -2   -1    0    0    0  501 -0.00000000000E+00 -0.00000000000E+00 -0.97193955347E+03  0.97193955347E+03  0.00000000000E+00 0.  1.
         23    2    1    2    0    0 -0.56712439784E+02 -0.96732506363E+03 -0.54723474143E+03  0.11165149142E+04  0.90584832754E+02 0.  0.
         11    1    3    3    0    0  0.10297083135E+02 -0.54192364788E+03 -0.32343260619E+03  0.63118612216E+03  0.00000000000E+00 0. -1.
        -11    1    3    3    0    0 -0.67009522919E+02 -0.42540141574E+03 -0.22380213524E+03  0.48532879207E+03  0.00000000000E+00 0.  1.
         22    1    1    2    0    0  0.56712439784E+02  0.96732506363E+03  0.15358284645E+04  0.18159579158E+04  0.00000000000E+00 0.  1.
<mgrwt>
<rscale>  0 0.27608114E+04</rscale>
<asrwt>0</asrwt>
<pdfrwt beam="1">  1        2 0.30162050E+00 0.27608114E+04</pdfrwt>
<pdfrwt beam="2">  1       -2 0.14952916E+00 0.27608114E+04</pdfrwt>
<totfact> 0.18536387E+00</totfact>
</mgrwt>
</event>
<event>
 6    1  0.1762360E-005  0.7538292E+03  0.7818608E-02  0.9629362E-01
          2   -1    0    0  501    0  0.00000000000E+00  0.00000000000E+00  0.26247307132E+04  0.26247307132E+04  0.00000000000E+00 0. -1.
         -2   -1    0    0    0  501 -0.00000000000E+00 -0.00000000000E+00 -0.54125402530E+02  0.54125402530E+02  0.00000000000E+00 0.  1.
         23    2    1    2    0    0  0.29630546364E+03  0.47497103534E+02  0.20813483859E+04  0.21049003325E+04  0.92419715355E+02 0.  0.
         13    1    3    3    0    0  0.13656525756E+03 -0.21908274618E+01  0.67835054384E+03  0.69196411007E+03  0.00000000000E+00 0.  1.
        -13    1    3    3    0    0  0.15974020608E+03  0.49687930996E+02  0.14029978420E+04  0.14129362224E+04  0.00000000000E+00 0. -1.
         22    1    1    2    0    0 -0.29630546364E+03 -0.47497103534E+02  0.48925692477E+03  0.57395578319E+03  0.00000000000E+00 0.  1.
<mgrwt>
<rscale>  0 0.75382918E+03</rscale>
<asrwt>0</asrwt>
<pdfrwt beam="1">  1        2 0.40380463E+00 0.75382918E+03</pdfrwt>
<pdfrwt beam="2">  1       -2 0.83269870E-02 0.75382918E+03</pdfrwt>
<totfact> 0.28285674E+02</totfact>
</mgrwt>
</event>
<event>
 6    1  0.1762360E-005  0.1393944E+03  0.7818608E-02  0.1214146E+00
          4   -1    0    0  501    0  0.00000000000E+00  0.00000000000E+00  0.26202177394E+03  0.26202177394E+03  0.00000000000E+00 0. -1.
         -4   -1    0    0    0  501 -0.00000000000E+00 -0.00000000000E+00 -0.18539302879E+02  0.18539302879E+02  0.00000000000E+00 0.  1.
         23    2    1    2    0    0 -0.30288939602E+02  0.10476518710E+02  0.22108762851E+03  0.24146240319E+03  0.91636102974E+02 0.  0.
         11    1    3    3    0    0  0.25564875150E+02 -0.14864589099E+02  0.36643307055E+02  0.47087692686E+02  0.00000000000E+00 0. -1.
        -11    1    3    3    0    0 -0.55853814752E+02  0.25341107810E+02  0.18444432145E+03  0.19437471050E+03  0.00000000000E+00 0.  1.
         22    1    1    2    0    0  0.30288939602E+02 -0.10476518710E+02  0.22394842550E+02  0.39098673626E+02  0.00000000000E+00 0.  1.
<mgrwt>
<rscale>  0 0.13939442E+03</rscale>
<asrwt>0</asrwt>
<pdfrwt beam="1">  1        4 0.40311040E-01 0.13939442E+03</pdfrwt>
<pdfrwt beam="2">  1       -4 0.28522006E-02 0.13939442E+03</pdfrwt>
<totfact> 0.57557953E+03</totfact>
</mgrwt>
</event>
<event>
 6    1  0.1762360E-005  0.2023700E+04  0.7818608E-02  0.8595620E-01
          1   -1    0    0  501    0  0.00000000000E+00  0.00000000000E+00  0.50540045434E+03  0.50540045434E+03  0.00000000000E+00 0. -1.
         -1   -1    0    0    0  501 -0.00000000000E+00 -0.00000000000E+00 -0.20257996553E+04  0.20257996553E+04  0.00000000000E+00 0.  1.
         23    2    1    2    0    0 -0.81597196696E+03 -0.20296418517E+03 -0.14611896744E+04  0.16882822730E+04  0.90647984894E+02 0.  0.
         11    1    3    3    0    0 -0.59053112896E+03 -0.12089872446E+03 -0.11072786969E+04  0.12607179020E+04  0.00000000000E+00 0. -1.
        -11    1    3    3    0    0 -0.22544083800E+03 -0.82065460707E+02 -0.35391097758E+03  0.42756437098E+03  0.00000000000E+00 0.  1.
         22    1    1    2    0    0  0.81597196696E+03  0.20296418517E+03 -0.59209526481E+02  0.84291783665E+03  0.00000000000E+00 0. -1.
<mgrwt>
<rscale>  0 0.20236996E+04</rscale>
<asrwt>0</asrwt>
<pdfrwt beam="1">  1        1 0.77753916E-01 0.20236996E+04</pdfrwt>
<pdfrwt beam="2">  1       -1 0.31166149E+00 0.20236996E+04</pdfrwt>
<totfact> 0.11222576E+00</totfact>
</mgrwt>
</event>
<event>
 6    1  0.1762360E-005  0.1383386E+04  0.7818608E-02  0.8965934E-01
         -2   -1    0    0    0  501 -0.00000000000E+00  0.00000000000E+00  0.67546148019E+03  0.67546148019E+03  0.00000000000E+00 0.  1.
          2   -1    0    0  501    0  0.00000000000E+00 -0.00000000000E+00 -0.70831407176E+03  0.70831407176E+03  0.00000000000E+00 0. -1.
         23    2    1    2    0    0  0.34477982280E+03  0.10700352986E+03 -0.60278429083E+03  0.70913118383E+03  0.95891881805E+02 0.  0.
         13    1    3    3    0    0  0.13542389304E+03  0.91394541165E+02 -0.27551553511E+03  0.32031453768E+03  0.00000000000E+00 0.  1.
        -13    1    3    3    0    0  0.20935592977E+03  0.15608988694E+02 -0.32726875572E+03  0.38881664616E+03  0.00000000000E+00 0. -1.
         22    1    1    2    0    0 -0.34477982280E+03 -0.10700352986E+03  0.56993169926E+03  0.67464436812E+03  0.00000000000E+00 0.  1.
<mgrwt>
<rscale>  0 0.13833855E+04</rscale>
<asrwt>0</asrwt>
<pdfrwt beam="1">  1        2 0.10897140E+00 0.13833855E+04</pdfrwt>
<pdfrwt beam="2">  1       -2 0.10391715E+00 0.13833855E+04</pdfrwt>
<totfact> 0.29645843E+01</totfact>
</mgrwt>
</event>
<event>
 6    1  0.1762360E-005  0.1832878E+04  0.7818608E-02  0.8689008E-01
          1   -1    0    0  501    0  0.00000000000E+00  0.00000000000E+00  0.31370147903E+04  0.31370147903E+04  0.00000000000E+00 0. -1.
         -1   -1    0    0    0  501 -0.00000000000E+00 -0.00000000000E+00 -0.26772611344E+03  0.26772611344E+03  0.00000000000E+00 0.  1.
         23    2    1    2    0    0 -0.59734549226E+03  0.52567409661E+03  0.22753154312E+04  0.24117861669E+04  0.80605894087E+02 0.  0.
         13    1    3    3    0    0 -0.33927895237E+03  0.29765058164E+03  0.11686102889E+04  0.12527394317E+04  0.00000000000E+00 0.  1.
        -13    1    3    3    0    0 -0.25806653989E+03  0.22802351497E+03  0.11067051423E+04  0.11590467352E+04  0.00000000000E+00 0. -1.
         22    1    1    2    0    0  0.59734549226E+03 -0.52567409661E+03  0.59397324567E+03  0.99295473691E+03  0.00000000000E+00 0.  1.
<mgrwt>
<rscale>  0 0.18328784E+04</rscale>
<asrwt>0</asrwt>
<pdfrwt beam="1">  1        1 0.48261763E+00 0.18328784E+04</pdfrwt>
<pdfrwt beam="2">  1       -1 0.41188635E-01 0.18328784E+04</pdfrwt>
<totfact> 0.25822491E+00</totfact>
</mgrwt>
</event>
<event>
 6    1  0.1762360E-005  0.3250649E+04  0.7818608E-02  0.8175568E-01
         -1   -1    0    0    0  501 -0.00000000000E+00  0.00000000000E+00  0.91664608315E+03  0.91664608315E+03  0.00000000000E+00 0.  1.
          1   -1    0    0  501    0  0.00000000000E+00 -0.00000000000E+00 -0.28818963318E+04  0.28818963318E+04  0.00000000000E+00 0. -1.
         23    2    1    2    0    0  0.83405541956E+03 -0.19810415646E+03  0.62850015838E+03  0.10667966593E+04  0.90271609342E+02 0.  0.
         11    1    3    3    0    0  0.39891083891E+03 -0.61540576124E+02  0.33403934944E+03  0.52392689078E+03  0.00000000000E+00 0. -1.
        -11    1    3    3    0    0  0.43514458065E+03 -0.13656358033E+03  0.29446080894E+03  0.54286976850E+03  0.00000000000E+00 0.  1.
         22    1    1    2    0    0 -0.83405541956E+03  0.19810415646E+03 -0.25937504071E+04  0.27317457557E+04  0.00000000000E+00 0. -1.
<mgrwt>
<rscale>  0 0.32506485E+04</rscale>
<asrwt>0</asrwt>
<pdfrwt beam="1">  1        1 0.44336867E+00 0.32506485E+04</pdfrwt>
<pdfrwt beam="2">  1       -1 0.14102247E+00 0.32506485E+04</pdfrwt>
<totfact> 0.24923542E-01</totfact>
</mgrwt>
</event>
<event>
 6    1  0.1762360E-005  0.1800476E+04  0.7818608E-02  0.8706046E-01
         -1   -1    0    0    0  501 -0.00000000000E+00  0.00000000000E+00  0.31570521625E+03  0.31570521625E+03  0.00000000000E+00 0.  1.
          1   -1    0    0  501    0  0.00000000000E+00 -0.00000000000E+00 -0.25670422355E+04  0.25670422355E+04  0.00000000000E+00 0. -1.
         23    2    1    2    0    0 -0.29646871044E+02  0.69063898344E+03 -0.20461577028E+04  0.21616651442E+04  0.90408563502E+02 0.  0.
         11    1    3    3    0    0 -0.57866050558E+02  0.56559068963E+03 -0.16396042845E+04  0.17353799347E+04  0.00000000000E+00 0. -1.
        -11    1    3    3    0    0  0.28219179514E+02  0.12504829381E+03 -0.40655341831E+03  0.42628520948E+03  0.00000000000E+00 0.  1.
         22    1    1    2    0    0  0.29646871044E+02 -0.69063898344E+03 -0.20517931645E+03  0.72108230759E+03  0.00000000000E+00 0.  1.
<mgrwt>
<rscale>  0 0.18004762E+04</rscale>
<asrwt>0</asrwt>
<pdfrwt beam="1">  1        1 0.39492956E+00 0.18004762E+04</pdfrwt>
<pdfrwt beam="2">  1       -1 0.48570035E-01 0.18004762E+04</pdfrwt>
<totfact> 0.48758822E+00</totfact>
</mgrwt>
</event>
<event>
 6    1  0.1762360E-005  0.2354552E+04  0.7818608E-02  0.8456717E-01
          1   -1    0    0  501    0  0.00000000000E+00  0.00000000000E+00  0.90910134974E+03  0.90910134974E+03  0.00000000000E+00 0. -1.
         -1   -1    0    0    0  501 -0.00000000000E+00 -0.00000000000E+00 -0.15245596509E+04  0.15245596509E+04  0.00000000000E+00 0.  1.
         23    2    1    2    0    0  0.68221615312E+03  0.13464963109E+03  0.67098786054E+03  0.97130224517E+03  0.98254464266E+02 0.  0.
         11    1    3    3    0    0  0.49920851127E+03  0.13976309362E+03  0.51587863425E+03  0.73135054888E+03  0.00000000000E+00 0.  1.
        -11    1    3    3    0    0  0.18300764185E+03 -0.51134625295E+01  0.15510922629E+03  0.23995169630E+03  0.00000000000E+00 0. -1.
         22    1    1    2    0    0 -0.68221615312E+03 -0.13464963109E+03 -0.12864461617E+04  0.14623587555E+04  0.00000000000E+00 0.  1.
<mgrwt>
<rscale>  0 0.23545524E+04</rscale>
<asrwt>0</asrwt>
<pdfrwt beam="1">  1        1 0.13986175E+00 0.23545524E+04</pdfrwt>
<pdfrwt beam="2">  1       -1 0.23454764E+00 0.23545524E+04</pdfrwt>
<totfact> 0.14170819E+00</totfact>
</mgrwt>
</event>
<event>
 6    1  0.1762360E-005  0.2949168E+04  0.7818608E-02  0.8258397E-01
          2   -1    0    0  501    0  0.00000000000E+00  0.00000000000E+00  0.29580671379E+04  0.29580671379E+04  0.00000000000E+00 0.  1.
         -2   -1    0    0    0  501 -0.00000000000E+00 -0.00000000000E+00 -0.73507382621E+03  0.73507382621E+03  0.00000000000E+00 0. -1.
         23    2    1    2    0    0 -0.24775156899E+03  0.41654766592E+03  0.28546678024E+04  0.28969591632E+04  0.91385630679E+02 0.  0.
         11    1    3    3    0    0 -0.50076647828E+02  0.74051493516E+02  0.76480664603E+03  0.77001331168E+03  0.00000000000E+00 0.  1.
        -11    1    3    3    0    0 -0.19767492116E+03  0.34249617241E+03  0.20898611563E+04  0.21269458515E+04  0.00000000000E+00 0. -1.
         22    1    1    2    0    0  0.24775156899E+03 -0.41654766592E+03 -0.63167449067E+03  0.79618180090E+03  0.00000000000E+00 0. -1.
<mgrwt>
<rscale>  0 0.29491678E+04</rscale>
<asrwt>0</asrwt>
<pdfrwt beam="1">  1        2 0.45508725E+00 0.29491678E+04</pdfrwt>
<pdfrwt beam="2">  1       -2 0.11308828E+00 0.29491678E+04</pdfrwt>
<totfact> 0.97601118E-01</totfact>
</mgrwt>
</event>
<event>
 6    1  0.1762360E-005  0.2891004E+04  0.7818608E-02  0.8275559E-01
          1   -1    0    0  501    0  0.00000000000E+00  0.00000000000E+00  0.26856245395E+04  0.26856245395E+04  0.00000000000E+00 0. -1.
         -1   -1    0    0    0  501 -0.00000000000E+00 -0.00000000000E+00 -0.77802222262E+03  0.77802222262E+03  0.00000000000E+00 0.  1.
         23    2    1    2    0    0  0.22638292411E+03  0.76852150366E+03 -0.48464667530E+03  0.94080515581E+03  0.91418878838E+02 0.  0.
         13    1    3    3    0    0  0.17235146635E+03  0.46977076405E+03 -0.26624402353E+03  0.56681167840E+03  0.00000000000E+00 0.  1.
        -13    1    3    3    0    0  0.54031457762E+02  0.29875073961E+03 -0.21840265176E+03  0.37399347741E+03  0.00000000000E+00 0. -1.
         22    1    1    2    0    0 -0.22638292411E+03 -0.76852150366E+03  0.23922489922E+04  0.25228416063E+04  0.00000000000E+00 0. -1.
<mgrwt>
<rscale>  0 0.28910037E+04</rscale>
<asrwt>0</asrwt>
<pdfrwt beam="1">  1        1 0.41317300E+00 0.28910037E+04</pdfrwt>
<pdfrwt beam="2">  1       -1 0.11969573E+00 0.28910037E+04</pdfrwt>
<totfact> 0.53728947E-01</totfact>
</mgrwt>
</event>
<event>
 6    1  0.1762360E-005  0.1353439E+04  0.7818608E-02  0.8988229E-01
          2   -1    0    0  501    0  0.00000000000E+00  0.00000000000E+00  0.87318467551E+03  0.87318467551E+03  0.00000000000E+00 0. -1.
         -2   -1    0    0    0  501 -0.00000000000E+00 -0.00000000000E+00 -0.52445866135E+03  0.52445866135E+03  0.00000000000E+00 0.  1.
         23    2    1    2    0    0  0.48912984053E+03  0.45797664674E+03  0.24163808977E+03  0.71907246112E+03  0.98415588468E+02 0.  0.
         13    1    3    3    0    0  0.34577344420E+03  0.27804738157E+03  0.12408976127E+03  0.46072539539E+03  0.00000000000E+00 0. -1.
        -13    1    3    3    0    0  0.14335639634E+03  0.17992926517E+03  0.11754832851E+03  0.25834706573E+03  0.00000000000E+00 0.  1.
         22    1    1    2    0    0 -0.48912984053E+03 -0.45797664674E+03  0.10708792438E+03  0.67857087574E+03  0.00000000000E+00 0.  1.
<mgrwt>
<rscale>  0 0.13534390E+04</rscale>
<asrwt>0</asrwt>
<pdfrwt beam="1">  1        2 0.13433610E+00 0.13534390E+04</pdfrwt>
<pdfrwt beam="2">  1       -2 0.80685948E-01 0.13534390E+04</pdfrwt>
<totfact> 0.40513078E+01</totfact>
</mgrwt>
</event>
<event>
 6    1  0.1762360E-005  0.1645079E+04  0.7818608E-02  0.8793323E-01
          2   -1    0    0  501    0  0.00000000000E+00  0.00000000000E+00  0.97979689064E+03  0.97979689064E+03  0.00000000000E+00 0. -1.
         -2   -1    0    0    0  501 -0.00000000000E+00 -0.00000000000E+00 -0.69052217663E+03  0.69052217663E+03  0.00000000000E+00 0.  1.
         23    2    1    2    0    0 -0.21477880054E+03  0.71726185075E+02  0.94523217546E+03  0.97637759278E+03  0.92599996591E+02 0.  0.
         13    1    3    3    0    0 -0.49929524957E+02  0.22769350394E+02  0.42338379390E+03  0.42692533038E+03  0.00000000000E+00 0. -1.
        -13    1    3    3    0    0 -0.16484927558E+03  0.48956834681E+02  0.52184838156E+03  0.54945226240E+03  0.00000000000E+00 0.  1.
         22    1    1    2    0    0  0.21477880054E+03 -0.71726185075E+02 -0.65595746145E+03  0.69394147449E+03  0.00000000000E+00 0.  1.
<mgrwt>
<rscale>  0 0.16450793E+04</rscale>
<asrwt>0</asrwt>
<pdfrwt beam="1">  1        2 0.15073798E+00 0.16450793E+04</pdfrwt>
<pdfrwt beam="2">  1       -2 0.10623418E+00 0.16450793E+04</pdfrwt>
<totfact> 0.17731570E+01</totfact>
</mgrwt>
</event>
<event>
 6    1  0.1762360E-005  0.2966481E+04  0.7818608E-02  0.8253368E-01
         -2   -1    0    0    0  501 -0.00000000000E+00  0.00000000000E+00  0.10150842832E+04  0.10150842832E+04  0.00000000000E+00 0.  1.
          2   -1    0    0  501    0  0.00000000000E+00 -0.00000000000E+00 -0.21673093558E+04  0.21673093558E+04  0.00000000000E+00 0. -1.
         23    2    1    2    0    0 -0.59985662852E+03  0.47175464263E+03  0.78607838209E+03  0.10992708149E+04  0.89981576786E+02 0.  0.
         13    1    3    3    0    0 -0.40078129429E+03  0.29239985969E+03  0.56492670824E+03  0.75184141246E+03  0.00000000000E+00 0.  1.
        -13    1    3    3    0    0 -0.19907533422E+03  0.17935478294E+03  0.22115167385E+03  0.34742940248E+03  0.00000000000E+00 0. -1.
         22    1    1    2    0    0  0.59985662852E+03 -0.47175464263E+03 -0.19383034547E+04  0.20831228240E+04  0.00000000000E+00 0. -1.
<mgrwt>
<rscale>  0 0.29664805E+04</rscale>
<asrwt>0</asrwt>
<pdfrwt beam="1">  1        2 0.33343220E+00 0.29664805E+04</pdfrwt>
<pdfrwt beam="2">  1       -2 0.15616682E+00 0.29664805E+04</pdfrwt>
<totfact> 0.12440106E+00</totfact>
</mgrwt>
</event>
<event>
 6    1  0.1762360E-005  0.1489497E+04  0.7818608E-02  0.8891468E-01
         -2   -1    0    0    0  501 -0.00000000000E+00  0.00000000000E+00  0.73833135762E+03  0.73833135762E+03  0.00000000000E+00 0.  1.
          2   -1    0    0  501    0  0.00000000000E+00 -0.00000000000E+00 -0.75122129206E+03  0.75122129206E+03  0.00000000000E+00 0. -1.
         23    2    1    2    0    0  0.17048490084E+03 -0.54559832852E+03  0.46630642761E+03  0.74364931082E+03  0.93967949625E+02 0.  0.
         13    1    3    3    0    0  0.14163997774E+03 -0.52244683721E+03  0.44649352419E+03  0.70169013685E+03  0.00000000000E+00 0. -1.
        -13    1    3    3    0    0  0.28844923104E+02 -0.23151491311E+02  0.19812903419E+02  0.41959173975E+02  0.00000000000E+00 0.  1.
         22    1    1    2    0    0 -0.17048490084E+03  0.54559832852E+03 -0.47919636205E+03  0.74590333885E+03  0.00000000000E+00 0. -1.
<mgrwt>
<rscale>  0 0.14894969E+04</rscale>
<asrwt>0</asrwt>
<pdfrwt beam="1">  1        2 0.11557251E+00 0.14894969E+04</pdfrwt>
<pdfrwt beam="2">  1       -2 0.11358944E+00 0.14894969E+04</pdfrwt>
<totfact> 0.21988769E+01</totfact>
</mgrwt>
</event>
<event>
 6    1  0.1762360E-005  0.5141950E+04  0.7818608E-02  0.7806976E-01
         -2   -1    0    0    0  501 -0.00000000000E+00  0.00000000000E+00  0.25701027893E+04  0.25701027893E+04  0.00000000000E+00 0.  1.
          2   -1    0    0  501    0  0.00000000000E+00 -0.00000000000E+00 -0.25718476637E+04  0.25718476637E+04  0.00000000000E+00 0. -1.
         23    2    1    2    0    0  0.14649189307E+03 -0.15340114656E+04  0.20560902013E+04  0.25710875142E+04  0.91285477379E+02 0.  0.
         13    1    3    3    0    0  0.10706915721E+03 -0.71606712314E+03  0.10054290811E+04  0.12389929647E+04  0.00000000000E+00 0. -1.
        -13    1    3    3    0    0  0.39422735854E+02 -0.81794434242E+03  0.10506611202E+04  0.13320945495E+04  0.00000000000E+00 0.  1.
         22    1    1    2    0    0 -0.14649189307E+03  0.15340114656E+04 -0.20578350757E+04  0.25708629388E+04  0.00000000000E+00 0. -1.
<mgrwt>
<rscale>  0 0.51419502E+04</rscale>
<asrwt>0</asrwt>
<pdfrwt beam="1">  1        2 0.39566887E+00 0.51419502E+04</pdfrwt>
<pdfrwt beam="2">  1       -2 0.39540043E+00 0.51419502E+04</pdfrwt>
<totfact> 0.18113783E-02</totfact>
</mgrwt>
</event>
<event>
 6    1  0.1762360E-005  0.2974503E+04  0.7818608E-02  0.8251050E-01
         -2   -1    0    0    0  501 -0.00000000000E+00  0.00000000000E+00  0.10490969389E+04  0.10490969389E+04  0.00000000000E+00 0.  1.
          2   -1    0    0  501    0  0.00000000000E+00 -0.00000000000E+00 -0.21084003897E+04  0.21084003897E+04  0.00000000000E+00 0. -1.
         23    2    1    2    0    0 -0.13946212880E+04 -0.48897482868E+02  0.11615810398E+02  0.13984556677E+04  0.90464505131E+02 0.  0.
         13    1    3    3    0    0 -0.85889025377E+03  0.63805281854E+01  0.31797462723E+02  0.85950233146E+03  0.00000000000E+00 0. -1.
        -13    1    3    3    0    0 -0.53573103427E+03 -0.55278011054E+02 -0.20181652325E+02  0.53895333627E+03  0.00000000000E+00 0.  1.
         22    1    1    2    0    0  0.13946212880E+04  0.48897482868E+02 -0.10709192611E+04  0.17590416609E+04  0.00000000000E+00 0. -1.
<mgrwt>
<rscale>  0 0.29745026E+04</rscale>
<asrwt>0</asrwt>
<pdfrwt beam="1">  1        2 0.32436928E+00 0.29745026E+04</pdfrwt>
<pdfrwt beam="2">  1       -2 0.16139953E+00 0.29745026E+04</pdfrwt>
<totfact> 0.12264953E+00</totfact>
</mgrwt>
</event>
<event>
 6    1  0.1762360E-005  0.3293813E+04  0.7818608E-02  0.8164471E-01
         -2   -1    0    0    0  501 -0.00000000000E+00  0.00000000000E+00  0.13589242483E+04  0.13589242483E+04  0.00000000000E+00 0.  1.
          2   -1    0    0  501    0  0.00000000000E+00 -0.00000000000E+00 -0.19959179749E+04  0.19959179749E+04  0.00000000000E+00 0. -1.
         23    2    1    2    0    0 -0.80038872112E+03  0.12531566891E+04  0.39926495149E+03  0.15424250967E+04  0.92945601880E+02 0.  0.
         11    1    3    3    0    0 -0.59151046027E+03  0.99013912770E+03  0.29060976747E+03  0.11894175691E+04  0.00000000000E+00 0.  1.
        -11    1    3    3    0    0 -0.20887826086E+03  0.26301756143E+03  0.10865518401E+03  0.35300752753E+03  0.00000000000E+00 0. -1.
         22    1    1    2    0    0  0.80038872112E+03 -0.12531566891E+04 -0.10362586781E+04  0.18124171265E+04  0.00000000000E+00 0. -1.
<mgrwt>
<rscale>  0 0.32938132E+04</rscale>
<asrwt>0</asrwt>
<pdfrwt beam="1">  1        2 0.30706430E+00 0.32938132E+04</pdfrwt>
<pdfrwt beam="2">  1       -2 0.20906527E+00 0.32938132E+04</pdfrwt>
<totfact> 0.65168066E-01</totfact>
</mgrwt>
</event>
<event>
 6    1  0.1762360E-005  0.2300191E+04  0.7818608E-02  0.8477846E-01
         -3   -1    0    0    0  501 -0.00000000000E+00  0.00000000000E+00  0.32803777564E+04  0.32803777564E+04  0.00000000000E+00 0.  1.
          3   -1    0    0  501    0  0.00000000000E+00 -0.00000000000E+00 -0.40322160839E+03  0.40322160839E+03  0.00000000000E+00 0. -1.
         23    2    1    2    0    0 -0.85725777055E+03  0.96993546906E+01  0.26642324098E+04  0.28002412942E+04  0.90730422210E+02 0.  0.
         11    1    3    3    0    0 -0.20142368716E+03 -0.30332834811E+02  0.56604405612E+03  0.60157913535E+03  0.00000000000E+00 0.  1.
        -11    1    3    3    0    0 -0.65583408339E+03  0.40032189501E+02  0.20981883537E+04  0.21986621588E+04  0.00000000000E+00 0. -1.
         22    1    1    2    0    0  0.85725777055E+03 -0.96993546906E+01  0.21292373823E+03  0.88335807063E+03  0.00000000000E+00 0. -1.
<mgrwt>
<rscale>  0 0.23001906E+04</rscale>
<asrwt>0</asrwt>
<pdfrwt beam="1">  1        3 0.62034096E-01 0.23001906E+04</pdfrwt>
<pdfrwt beam="2">  1       -3 0.50467348E+00 0.23001906E+04</pdfrwt>
<totfact> 0.17201641E-02</totfact>
</mgrwt>
</event>
<event>
 6    1  0.1762360E-005  0.1464542E+04  0.7818608E-02  0.8908381E-01
          2   -1    0    0  501    0  0.00000000000E+00  0.00000000000E+00  0.13841235718E+04  0.13841235718E+04  0.00000000000E+00 0. -1.
         -2   -1    0    0    0  501 -0.00000000000E+00 -0.00000000000E+00 -0.38740816533E+03  0.38740816533E+03  0.00000000000E+00 0.  1.
         23    2    1    2    0    0 -0.17244128316E+03  0.62301668739E+02  0.13544669025E+04  0.13695322010E+04  0.86141544134E+02 0.  0.
         13    1    3    3    0    0 -0.11567292297E+03  0.30012615271E+01  0.93270647325E+03  0.93985669010E+03  0.00000000000E+00 0. -1.
        -13    1    3    3    0    0 -0.56768360182E+02  0.59300407212E+02  0.42176042926E+03  0.42967551094E+03  0.00000000000E+00 0.  1.
         22    1    1    2    0    0  0.17244128316E+03 -0.62301668739E+02 -0.35775149606E+03  0.40199953607E+03  0.00000000000E+00 0.  1.
<mgrwt>
<rscale>  0 0.14645419E+04</rscale>
<asrwt>0</asrwt>
<pdfrwt beam="1">  1        2 0.21294209E+00 0.14645419E+04</pdfrwt>
<pdfrwt beam="2">  1       -2 0.59601257E-01 0.14645419E+04</pdfrwt>
<totfact> 0.37599036E+01</totfact>
</mgrwt>
</event>
<event>
 6    1  0.1762360E-005  0.3900896E+04  0.7818608E-02  0.8024843E-01
         -1   -1    0    0    0  501 -0.00000000000E+00  0.00000000000E+00  0.15445274645E+04  0.15445274645E+04  0.00000000000E+00 0.  1.
          1   -1    0    0  501    0  0.00000000000E+00 -0.00000000000E+00 -0.24630487624E+04  0.24630487624E+04  0.00000000000E+00 0. -1.
         23    2    1    2    0    0 -0.12816368396E+04 -0.91411600141E+03  0.72244680446E+03  0.17335979144E+04  0.72327663486E+02 0.  0.
         11    1    3    3    0    0 -0.61942763579E+03 -0.42104722236E+03  0.30855167453E+03  0.81004660069E+03  0.00000000000E+00 0. -1.
        -11    1    3    3    0    0 -0.66220920385E+03 -0.49306877905E+03  0.41389512994E+03  0.92355131375E+03  0.00000000000E+00 0.  1.
         22    1    1    2    0    0  0.12816368396E+04  0.91411600141E+03 -0.16409681023E+04  0.22739783124E+04  0.00000000000E+00 0. -1.
<mgrwt>
<rscale>  0 0.39008955E+04</rscale>
<asrwt>0</asrwt>
<pdfrwt beam="1">  1        1 0.37893057E+00 0.39008955E+04</pdfrwt>
<pdfrwt beam="2">  1       -1 0.23761961E+00 0.39008955E+04</pdfrwt>
<totfact> 0.95305253E-02</totfact>
</mgrwt>
</event>
<event>
 6    1  0.1762360E-005  0.2939743E+04  0.7818608E-02  0.8261150E-01
         -1   -1    0    0    0  501 -0.00000000000E+00  0.00000000000E+00  0.74218033641E+03  0.74218033641E+03  0.00000000000E+00 0.  1.
          1   -1    0    0  501    0  0.00000000000E+00 -0.00000000000E+00 -0.29110477640E+04  0.29110477640E+04  0.00000000000E+00 0. -1.
         23    2    1    2    0    0  0.24475516586E+00 -0.12704695821E+03 -0.29035568339E+04  0.29076347038E+04  0.86926943079E+02 0.  0.
         11    1    3    3    0    0  0.86464990268E+01 -0.97449355171E+02 -0.12608655817E+04  0.12646553498E+04  0.00000000000E+00 0. -1.
        -11    1    3    3    0    0 -0.84017438609E+01 -0.29597603037E+02 -0.16426912522E+04  0.16429793540E+04  0.00000000000E+00 0.  1.
         22    1    1    2    0    0 -0.24475516586E+00  0.12704695821E+03  0.73468940627E+03  0.74559339668E+03  0.00000000000E+00 0.  1.
<mgrwt>
<rscale>  0 0.29397431E+04</rscale>
<asrwt>0</asrwt>
<pdfrwt beam="1">  1        1 0.44785351E+00 0.29397431E+04</pdfrwt>
<pdfrwt beam="2">  1       -1 0.11418159E+00 0.29397431E+04</pdfrwt>
<totfact> 0.41404648E-01</totfact>
</mgrwt>
</event>
<event>
 6    1  0.1762360E-005  0.4071739E+04  0.7818608E-02  0.7990229E-01
          1   -1    0    0  501    0  0.00000000000E+00  0.00000000000E+00  0.14315636911E+04  0.14315636911E+04  0.00000000000E+00 0. -1.
         -1   -1    0    0    0  501 -0.00000000000E+00 -0.00000000000E+00 -0.28952702662E+04  0.28952702662E+04  0.00000000000E+00 0.  1.
         23    2    1    2    0    0 -0.80903170161E+03 -0.14941058005E+04  0.45766305038E+03  0.17619663828E+04  0.90474465354E+02 0.  0.
         13    1    3    3    0    0 -0.52334397223E+03 -0.89768876491E+03  0.24903368197E+03  0.10685278689E+04  0.00000000000E+00 0. -1.
        -13    1    3    3    0    0 -0.28568772938E+03 -0.59641703562E+03  0.20862936841E+03  0.69343851383E+03  0.00000000000E+00 0.  1.
         22    1    1    2    0    0  0.80903170161E+03  0.14941058005E+04 -0.19213696255E+04  0.25648675746E+04  0.00000000000E+00 0.  1.
<mgrwt>
<rscale>  0 0.40717386E+04</rscale>
<asrwt>0</asrwt>
<pdfrwt beam="1">  1        1 0.22024057E+00 0.40717386E+04</pdfrwt>
<pdfrwt beam="2">  1       -1 0.44542619E+00 0.40717386E+04</pdfrwt>
<totfact> 0.19765341E-02</totfact>
</mgrwt>
</event>
<event>
 6    1  0.1762360E-005  0.2193810E+04  0.7818608E-02  0.8521009E-01
         -1   -1    0    0    0  501 -0.00000000000E+00  0.00000000000E+00  0.66410334703E+03  0.66410334703E+03  0.00000000000E+00 0.  1.
          1   -1    0    0  501    0  0.00000000000E+00 -0.00000000000E+00 -0.18117677593E+04  0.18117677593E+04  0.00000000000E+00 0. -1.
         23    2    1    2    0    0 -0.70162122916E+02  0.10702458601E+04 -0.82369455591E+03  0.13554669862E+04  0.92027738441E+02 0.  0.
         13    1    3    3    0    0 -0.35555944291E+02  0.80947027018E+03 -0.57580827010E+03  0.99401283060E+03  0.00000000000E+00 0. -1.
        -13    1    3    3    0    0 -0.34606178625E+02  0.26077558994E+03 -0.24788628581E+03  0.36145415560E+03  0.00000000000E+00 0.  1.
         22    1    1    2    0    0  0.70162122916E+02 -0.10702458601E+04 -0.32396985640E+03  0.11204041202E+04  0.00000000000E+00 0.  1.
<mgrwt>
<rscale>  0 0.21938104E+04</rscale>
<asrwt>0</asrwt>
<pdfrwt beam="1">  1        1 0.27873350E+00 0.21938104E+04</pdfrwt>
<pdfrwt beam="2">  1       -1 0.10216975E+00 0.21938104E+04</pdfrwt>
<totfact> 0.33092882E+00</totfact>
</mgrwt>
</event>
<event>
 6    1  0.1762360E-005  0.1176390E+04  0.7818608E-02  0.9133777E-01
          1   -1    0    0  501    0  0.00000000000E+00  0.00000000000E+00  0.19443173961E+04  0.19443173961E+04  0.00000000000E+00 0. -1.
         -1   -1    0    0    0  501 -0.00000000000E+00 -0.00000000000E+00 -0.17794079673E+03  0.17794079673E+03  0.00000000000E+00 0.  1.
         23    2    1    2    0    0  0.45366439537E+02 -0.24182379785E+03  0.18453258319E+04  0.18638595776E+04  0.90599315825E+02 0.  0.
         13    1    3    3    0    0  0.69043769914E+02 -0.19024019526E+03  0.13112292128E+04  0.13267556002E+04  0.00000000000E+00 0.  1.
        -13    1    3    3    0    0 -0.23677330377E+02 -0.51583602595E+02  0.53409661905E+03  0.53710397737E+03  0.00000000000E+00 0. -1.
         22    1    1    2    0    0 -0.45366439537E+02  0.24182379785E+03 -0.78949232525E+02  0.25839861525E+03  0.00000000000E+00 0.  1.
<mgrwt>
<rscale>  0 0.11763900E+04</rscale>
<asrwt>0</asrwt>
<pdfrwt beam="1">  1        1 0.29912574E+00 0.11763900E+04</pdfrwt>
<pdfrwt beam="2">  1       -1 0.27375509E-01 0.11763900E+04</pdfrwt>
<totfact> 0.38658241E+01</totfact>
</mgrwt>
</event>
<event>
 6    1  0.1762360E-005  0.2202842E+04  0.7818608E-02  0.8517246E-01
         -2   -1    0    0    0  501 -0.00000000000E+00  0.00000000000E+00  0.54014430659E+03  0.54014430659E+03  0.00000000000E+00 0.  1.
          2   -1    0    0  501    0  0.00000000000E+00 -0.00000000000E+00 -0.22459337339E+04  0.22459337339E+04  0.00000000000E+00 0. -1.
         23    2    1    2    0    0 -0.10967306879E+04 -0.46771204360E+02 -0.77382754934E+03  0.13460923846E+04  0.90276710216E+02 0.  0.
         11    1    3    3    0    0 -0.67954124885E+03  0.11013402233E+02 -0.45551632924E+03  0.81816424398E+03  0.00000000000E+00 0. -1.
        -11    1    3    3    0    0 -0.41718943902E+03 -0.57784606594E+02 -0.31831122011E+03  0.52792814060E+03  0.00000000000E+00 0.  1.
         22    1    1    2    0    0  0.10967306879E+04  0.46771204360E+02 -0.93196187802E+03  0.14399856560E+04  0.00000000000E+00 0. -1.
<mgrwt>
<rscale>  0 0.22028421E+04</rscale>
<asrwt>0</asrwt>
<pdfrwt beam="1">  1        2 0.34552827E+00 0.22028421E+04</pdfrwt>
<pdfrwt beam="2">  1       -2 0.83099124E-01 0.22028421E+04</pdfrwt>
<totfact> 0.56386062E+00</totfact>
</mgrwt>
</event>
<event>
 6    1  0.1762360E-005  0.3142738E+04  0.7818608E-02  0.8204106E-01
          1   -1    0    0  501    0  0.00000000000E+00  0.00000000000E+00  0.25297827187E+04  0.25297827187E+04  0.00000000000E+00 0. -1.
         -1   -1    0    0    0  501 -0.00000000000E+00 -0.00000000000E+00 -0.97605242726E+03  0.97605242726E+03  0.00000000000E+00 0.  1.
         23    2    1    2    0    0 -0.11725048775E+04 -0.93746226799E+03  0.26455901770E+03  0.15270562890E+04  0.91138599917E+02 0.  0.
         13    1    3    3    0    0 -0.47649603953E+03 -0.34430674669E+03  0.69030059059E+02  0.59191279811E+03  0.00000000000E+00 0.  1.
        -13    1    3    3    0    0 -0.69600883795E+03 -0.59315552130E+03  0.19552895864E+03  0.93514349092E+03  0.00000000000E+00 0. -1.
         22    1    1    2    0    0  0.11725048775E+04  0.93746226799E+03  0.12891712738E+04  0.19787788570E+04  0.00000000000E+00 0.  1.
<mgrwt>
<rscale>  0 0.31427380E+04</rscale>
<asrwt>0</asrwt>
<pdfrwt beam="1">  1        1 0.38919734E+00 0.31427380E+04</pdfrwt>
<pdfrwt beam="2">  1       -1 0.15016191E+00 0.31427380E+04</pdfrwt>
<totfact> 0.37765343E-01</totfact>
</mgrwt>
</event>
<event>
 6    1  0.1775557E-005  0.4022348E+04  0.7818608E-02  0.8000053E-01
          1   -1    0    0  501    0  0.00000000000E+00  0.00000000000E+00  0.24128971319E+04  0.24128971319E+04  0.00000000000E+00 0. -1.
         -1   -1    0    0    0  501 -0.00000000000E+00 -0.00000000000E+00 -0.16763334488E+04  0.16763334488E+04  0.00000000000E+00 0.  1.
         23    2    1    2    0    0 -0.49095243074E+03 -0.19437858755E+04  0.22258036482E+03  0.20195647453E+04  0.98802440895E+02 0.  0.
         11    1    3    3    0    0 -0.21608383413E+03 -0.10480049148E+04  0.13317381380E+03  0.10783050540E+04  0.00000000000E+00 0.  1.
        -11    1    3    3    0    0 -0.27486859661E+03 -0.89578096077E+03  0.89406551022E+02  0.94125969129E+03  0.00000000000E+00 0. -1.
         22    1    1    2    0    0  0.49095243074E+03  0.19437858755E+04  0.51398331827E+03  0.20696658355E+04  0.00000000000E+00 0.  1.
<mgrwt>
<rscale>  0 0.40223477E+04</rscale>
<asrwt>0</asrwt>
<pdfrwt beam="1">  1        1 0.37121494E+00 0.40223477E+04</pdfrwt>
<pdfrwt beam="2">  1       -1 0.25789745E+00 0.40223477E+04</pdfrwt>
<totfact> 0.75297178E-02</totfact>
</mgrwt>
</event>
<event>
 6    1  0.1762360E-005  0.4585611E+04  0.7818608E-02  0.7895818E-01
         -1   -1    0    0    0  501 -0.00000000000E+00  0.00000000000E+00  0.14875080209E+04  0.14875080209E+04  0.00000000000E+00 0.  1.
          1   -1    0    0  501    0  0.00000000000E+00 -0.00000000000E+00 -0.35340698182E+04  0.35340698182E+04  0.00000000000E+00 0. -1.
         23    2    1    2    0    0 -0.12462063450E+04 -0.14184077452E+04 -0.24463641429E+04  0.30916159997E+04  0.92093345942E+02 0.  0.
         13    1    3    3    0    0 -0.53774827959E+03 -0.54415108586E+03 -0.99968010880E+03  0.12588224404E+04  0.00000000000E+00 0.  1.
        -13    1    3    3    0    0 -0.70845806544E+03 -0.87425665931E+03 -0.14466840341E+04  0.18327935594E+04  0.00000000000E+00 0. -1.
         22    1    1    2    0    0  0.12462063450E+04  0.14184077452E+04  0.39980234548E+03  0.19299618394E+04  0.00000000000E+00 0.  1.
<mgrwt>
<rscale>  0 0.45856111E+04</rscale>
<asrwt>0</asrwt>
<pdfrwt beam="1">  1        1 0.54370305E+00 0.45856111E+04</pdfrwt>
<pdfrwt beam="2">  1       -1 0.22884739E+00 0.45856111E+04</pdfrwt>
<totfact> 0.16812630E-02</totfact>
</mgrwt>
</event>
<event>
 6    1  0.1762360E-005  0.1531563E+04  0.7818608E-02  0.8863731E-01
         -1   -1    0    0    0  501 -0.00000000000E+00  0.00000000000E+00  0.62799009291E+03  0.62799009291E+03  0.00000000000E+00 0.  1.
          1   -1    0    0  501    0  0.00000000000E+00 -0.00000000000E+00 -0.93380615264E+03  0.93380615264E+03  0.00000000000E+00 0. -1.
         23    2    1    2    0    0  0.48920579404E+03  0.51902588692E+03 -0.43105031984E+03  0.83764584673E+03  0.84474884453E+02 0.  0.
         13    1    3    3    0    0  0.25355735498E+03  0.21336381864E+03 -0.21992454850E+03  0.39772133260E+03  0.00000000000E+00 0. -1.
        -13    1    3    3    0    0  0.23564843906E+03  0.30566206828E+03 -0.21112577134E+03  0.43992451414E+03  0.00000000000E+00 0.  1.
         22    1    1    2    0    0 -0.48920579404E+03 -0.51902588692E+03  0.12523426011E+03  0.72415039883E+03  0.00000000000E+00 0.  1.
<mgrwt>
<rscale>  0 0.15315626E+04</rscale>
<asrwt>0</asrwt>
<pdfrwt beam="1">  1        1 0.14366248E+00 0.15315626E+04</pdfrwt>
<pdfrwt beam="2">  1       -1 0.96613861E-01 0.15315626E+04</pdfrwt>
<totfact> 0.16992486E+01</totfact>
</mgrwt>
</event>
<event>
 6    1  0.1762360E-005  0.1160627E+04  0.7818608E-02  0.9148035E-01
          1   -1    0    0  501    0  0.00000000000E+00  0.00000000000E+00  0.46631415017E+03  0.46631415017E+03  0.00000000000E+00 0. -1.
         -1   -1    0    0    0  501 -0.00000000000E+00 -0.00000000000E+00 -0.72218264895E+03  0.72218264895E+03  0.00000000000E+00 0.  1.
         23    2    1    2    0    0  0.26725885736E+03 -0.49394723245E+03  0.72048943094E+01  0.56832039242E+03  0.86746715542E+02 0.  0.
         13    1    3    3    0    0  0.10487453239E+03 -0.15242584782E+03  0.38092468888E+02  0.18890035154E+03  0.00000000000E+00 0. -1.
        -13    1    3    3    0    0  0.16238432497E+03 -0.34152138463E+03 -0.30887574579E+02  0.37942004088E+03  0.00000000000E+00 0.  1.
         22    1    1    2    0    0 -0.26725885736E+03  0.49394723245E+03 -0.26307339309E+03  0.62017640670E+03  0.00000000000E+00 0. -1.
<mgrwt>
<rscale>  0 0.11606274E+04</rscale>
<asrwt>0</asrwt>
<pdfrwt beam="1">  1        1 0.71740639E-01 0.11606274E+04</pdfrwt>
<pdfrwt beam="2">  1       -1 0.11110502E+00 0.11606274E+04</pdfrwt>
<totfact> 0.36099666E+01</totfact>
</mgrwt>
</event>
<event>
 6    1  0.1762360E-005  0.3509834E+04  0.7818608E-02  0.8111463E-01
          2   -1    0    0  501    0  0.00000000000E+00  0.00000000000E+00  0.23051650613E+04  0.23051650613E+04  0.00000000000E+00 0. -1.
         -2   -1    0    0    0  501 -0.00000000000E+00 -0.00000000000E+00 -0.13360146897E+04  0.13360146897E+04  0.00000000000E+00 0.  1.
         23    2    1    2    0    0  0.90447111894E+03 -0.55215756209E+03  0.19346117267E+04  0.22076311448E+04  0.89256707653E+02 0.  0.
         13    1    3    3    0    0  0.55893523317E+03 -0.39128533110E+03  0.12456539412E+04  0.14202698850E+04  0.00000000000E+00 0. -1.
        -13    1    3    3    0    0  0.34553588577E+03 -0.16087223099E+03  0.68895778551E+03  0.78736125970E+03  0.00000000000E+00 0.  1.
         22    1    1    2    0    0 -0.90447111894E+03  0.55215756209E+03 -0.96546135512E+03  0.14335486063E+04  0.00000000000E+00 0.  1.
<mgrwt>
<rscale>  0 0.35098344E+04</rscale>
<asrwt>0</asrwt>
<pdfrwt beam="1">  1        2 0.35464078E+00 0.35098344E+04</pdfrwt>
<pdfrwt beam="2">  1       -2 0.20554072E+00 0.35098344E+04</pdfrwt>
<totfact> 0.45242006E-01</totfact>
</mgrwt>
</event>
<event>
 6    1  0.1762360E-005  0.2113922E+04  0.7818608E-02  0.8555136E-01
         -1   -1    0    0    0  501 -0.00000000000E+00  0.00000000000E+00  0.48914432104E+03  0.48914432104E+03  0.00000000000E+00 0.  1.
          1   -1    0    0  501    0  0.00000000000E+00 -0.00000000000E+00 -0.22839190383E+04  0.22839190383E+04  0.00000000000E+00 0. -1.
         23    2    1    2    0    0  0.37888518564E+03  0.13999612488E+03 -0.21776159134E+04  0.22165381754E+04  0.88755380350E+02 0.  0.
         13    1    3    3    0    0  0.30454645203E+03  0.14833988251E+03 -0.17845837539E+04  0.18164505049E+04  0.00000000000E+00 0.  1.
        -13    1    3    3    0    0  0.74338733605E+02 -0.83437576262E+01 -0.39303215956E+03  0.40008767046E+03  0.00000000000E+00 0. -1.
         22    1    1    2    0    0 -0.37888518564E+03 -0.13999612488E+03  0.38284119619E+03  0.55652518396E+03  0.00000000000E+00 0.  1.
<mgrwt>
<rscale>  0 0.21139215E+04</rscale>
<asrwt>0</asrwt>
<pdfrwt beam="1">  1        1 0.35137217E+00 0.21139215E+04</pdfrwt>
<pdfrwt beam="2">  1       -1 0.75252971E-01 0.21139215E+04</pdfrwt>
<totfact> 0.31130481E+00</totfact>
</mgrwt>
</event>
<event>
 6    1  0.1762360E-005  0.2900955E+04  0.7818608E-02  0.8272593E-01
          2   -1    0    0  501    0  0.00000000000E+00  0.00000000000E+00  0.26689466454E+04  0.26689466454E+04  0.00000000000E+00 0. -1.
         -2   -1    0    0    0  501 -0.00000000000E+00 -0.00000000000E+00 -0.78828282261E+03  0.78828282261E+03  0.00000000000E+00 0.  1.
         23    2    1    2    0    0  0.62203377794E+03 -0.62435311748E+03  0.23120681179E+04  0.24759789893E+04  0.89833942418E+02 0.  0.
         11    1    3    3    0    0  0.13869791782E+03 -0.96901424041E+02  0.49679582679E+03  0.52481719856E+03  0.00000000000E+00 0. -1.
        -11    1    3    3    0    0  0.48333586012E+03 -0.52745169344E+03  0.18152722911E+04  0.19511617907E+04  0.00000000000E+00 0.  1.
         22    1    1    2    0    0 -0.62203377794E+03  0.62435311748E+03 -0.43140429512E+03  0.98125047875E+03  0.00000000000E+00 0.  1.
<mgrwt>
<rscale>  0 0.29009549E+04</rscale>
<asrwt>0</asrwt>
<pdfrwt beam="1">  1        2 0.41060717E+00 0.29009549E+04</pdfrwt>
<pdfrwt beam="2">  1       -2 0.12127428E+00 0.29009549E+04</pdfrwt>
<totfact> 0.12363770E+00</totfact>
</mgrwt>
</event>
<event>
 6    1  0.1762360E-005  0.1173116E+04  0.7818608E-02  0.9136719E-01
         -1   -1    0    0    0  501 -0.00000000000E+00  0.00000000000E+00  0.16403415842E+03  0.16403415842E+03  0.00000000000E+00 0.  1.
          1   -1    0    0  501    0  0.00000000000E+00 -0.00000000000E+00 -0.20974318450E+04  0.20974318450E+04  0.00000000000E+00 0. -1.
         23    2    1    2    0    0 -0.57630698485E+03 -0.65519864412E+02 -0.10831570006E+04  0.12322275386E+04  0.93450657886E+02 0.  0.
         11    1    3    3    0    0 -0.51945528519E+02  0.80791319231E+01 -0.57195284760E+02  0.77684688996E+02  0.00000000000E+00 0. -1.
        -11    1    3    3    0    0 -0.52436145633E+03 -0.73598996336E+02 -0.10259617159E+04  0.11545428496E+04  0.00000000000E+00 0.  1.
         22    1    1    2    0    0  0.57630698485E+03  0.65519864412E+02 -0.85024068599E+03  0.10292384649E+04  0.00000000000E+00 0. -1.
<mgrwt>
<rscale>  0 0.11731163E+04</rscale>
<asrwt>0</asrwt>
<pdfrwt beam="1">  1        1 0.32268182E+00 0.11731163E+04</pdfrwt>
<pdfrwt beam="2">  1       -1 0.25236025E-01 0.11731163E+04</pdfrwt>
<totfact> 0.35070455E+01</totfact>
</mgrwt>
</event>
<event>
 6    1  0.1762360E-005  0.7779816E+03  0.7818608E-02  0.9592446E-01
          2   -1    0    0  501    0  0.00000000000E+00  0.00000000000E+00  0.23935562904E+03  0.23935562904E+03  0.00000000000E+00 0. -1.
         -2   -1    0    0    0  501 -0.00000000000E+00 -0.00000000000E+00 -0.63217164113E+03  0.63217164113E+03  0.00000000000E+00 0.  1.
         23    2    1    2    0    0  0.35765131500E+03  0.26550521262E+01 -0.35376410180E+03  0.51174043868E+03  0.93849477559E+02 0.  0.
         11    1    3    3    0    0  0.65041790134E+02 -0.18014590441E+02 -0.11573840639E+03  0.13397887388E+03  0.00000000000E+00 0.  1.
        -11    1    3    3    0    0  0.29260952486E+03  0.20669642567E+02 -0.23802569541E+03  0.37776156480E+03  0.00000000000E+00 0. -1.
         22    1    1    2    0    0 -0.35765131500E+03 -0.26550521262E+01 -0.39051910291E+02  0.35978683150E+03  0.00000000000E+00 0. -1.
<mgrwt>
<rscale>  0 0.77798160E+03</rscale>
<asrwt>0</asrwt>
<pdfrwt beam="1">  1        2 0.36823943E-01 0.77798160E+03</pdfrwt>
<pdfrwt beam="2">  1       -2 0.97257176E-01 0.77798160E+03</pdfrwt>
<totfact> 0.12562571E+02</totfact>
</mgrwt>
</event>
<event>
 6    1  0.1762360E-005  0.1290843E+04  0.7818608E-02  0.9036858E-01
          1   -1    0    0  501    0  0.00000000000E+00  0.00000000000E+00  0.18250915207E+03  0.18250915207E+03  0.00000000000E+00 0. -1.
         -1   -1    0    0    0  501 -0.00000000000E+00 -0.00000000000E+00 -0.22824557689E+04  0.22824557689E+04  0.00000000000E+00 0.  1.
         23    2    1    2    0    0  0.51375729600E+03  0.13307415168E+03 -0.17453260301E+04  0.18266773294E+04  0.94508335226E+02 0.  0.
         13    1    3    3    0    0  0.29408910138E+03  0.11111053797E+03 -0.11313747923E+04  0.11742414027E+04  0.00000000000E+00 0. -1.
        -13    1    3    3    0    0  0.21966819462E+03  0.21963613708E+02 -0.61395123774E+03  0.65243592664E+03  0.00000000000E+00 0.  1.
         22    1    1    2    0    0 -0.51375729600E+03 -0.13307415168E+03 -0.35462058680E+03  0.63828759162E+03  0.00000000000E+00 0. -1.
<mgrwt>
<rscale>  0 0.12908432E+04</rscale>
<asrwt>0</asrwt>
<pdfrwt beam="1">  1        1 0.28078332E-01 0.12908432E+04</pdfrwt>
<pdfrwt beam="2">  1       -1 0.35114703E+00 0.12908432E+04</pdfrwt>
<totfact> 0.25400133E+00</totfact>
</mgrwt>
</event>
<event>
 6    1  0.1762360E-005  0.1806608E+04  0.7818608E-02  0.8702793E-01
          2   -1    0    0  501    0  0.00000000000E+00  0.00000000000E+00  0.22073448806E+04  0.22073448806E+04  0.00000000000E+00 0. -1.
         -2   -1    0    0    0  501 -0.00000000000E+00 -0.00000000000E+00 -0.36965590710E+03  0.36965590710E+03  0.00000000000E+00 0.  1.
         23    2    1    2    0    0  0.31718005364E+03  0.49005768675E+03  0.19001798234E+04  0.19899191673E+04  0.91297361518E+02 0.  0.
         11    1    3    3    0    0  0.27096751018E+03  0.41669027886E+03  0.14914488892E+04  0.15720922267E+04  0.00000000000E+00 0.  1.
        -11    1    3    3    0    0  0.46212543467E+02  0.73367407893E+02  0.40873093416E+03  0.41782694056E+03  0.00000000000E+00 0. -1.
         22    1    1    2    0    0 -0.31718005364E+03 -0.49005768675E+03 -0.62490849863E+02  0.58708162047E+03  0.00000000000E+00 0.  1.
<mgrwt>
<rscale>  0 0.18066080E+04</rscale>
<asrwt>0</asrwt>
<pdfrwt beam="1">  1        2 0.33959151E+00 0.18066080E+04</pdfrwt>
<pdfrwt beam="2">  1       -2 0.56870141E-01 0.18066080E+04</pdfrwt>
<totfact> 0.13996680E+01</totfact>
</mgrwt>
</event>
<event>
 6    1  0.1762360E-005  0.1255664E+04  0.7818608E-02  0.9065482E-01
          2   -1    0    0  501    0  0.00000000000E+00  0.00000000000E+00  0.10655246902E+04  0.10655246902E+04  0.00000000000E+00 0. -1.
         -2   -1    0    0    0  501 -0.00000000000E+00 -0.00000000000E+00 -0.36993323029E+03  0.36993323029E+03  0.00000000000E+00 0.  1.
         23    2    1    2    0    0 -0.26505542544E+03 -0.57868485847E+02 -0.29356026570E+03  0.40977557371E+03  0.90195626276E+02 0.  0.
         13    1    3    3    0    0 -0.21811842303E+03 -0.51102583080E+02 -0.18228406595E+03  0.28881586030E+03  0.00000000000E+00 0.  1.
        -13    1    3    3    0    0 -0.46937002406E+02 -0.67659027667E+01 -0.11127619976E+03  0.12095971340E+03  0.00000000000E+00 0. -1.
         22    1    1    2    0    0  0.26505542544E+03  0.57868485847E+02  0.98915172559E+03  0.10256823468E+04  0.00000000000E+00 0. -1.
<mgrwt>
<rscale>  0 0.12556640E+04</rscale>
<asrwt>0</asrwt>
<pdfrwt beam="1">  1        2 0.16392687E+00 0.12556640E+04</pdfrwt>
<pdfrwt beam="2">  1       -2 0.56912805E-01 0.12556640E+04</pdfrwt>
<totfact> 0.65138567E+01</totfact>
</mgrwt>
</event>
<event>
 6    1  0.1762360E-005  0.1230294E+04  0.7818608E-02  0.9086746E-01
          2   -1    0    0  501    0  0.00000000000E+00  0.00000000000E+00  0.81760400223E+03  0.81760400223E+03  0.00000000000E+00 0. -1.
         -2   -1    0    0    0  501 -0.00000000000E+00 -0.00000000000E+00 -0.46282269355E+03  0.46282269355E+03  0.00000000000E+00 0.  1.
         23    2    1    2    0    0  0.42868349646E+02  0.58539732501E+03 -0.95524074174E+00  0.59407677328E+03  0.91643747899E+02 0.  0.
         11    1    3    3    0    0 -0.17880012151E+02  0.36562368326E+03 -0.23586934703E+00  0.36606068927E+03  0.00000000000E+00 0.  1.
        -11    1    3    3    0    0  0.60748361797E+02  0.21977364175E+03 -0.71937139470E+00  0.22801608400E+03  0.00000000000E+00 0. -1.
         22    1    1    2    0    0 -0.42868349646E+02 -0.58539732501E+03  0.35573654942E+03  0.68634992251E+03  0.00000000000E+00 0. -1.
<mgrwt>
<rscale>  0 0.12302938E+04</rscale>
<asrwt>0</asrwt>
<pdfrwt beam="1">  1        2 0.12578523E+00 0.12302938E+04</pdfrwt>
<pdfrwt beam="2">  1       -2 0.71203491E-01 0.12302938E+04</pdfrwt>
<totfact> 0.59027303E+01</totfact>
</mgrwt>
</event>
<event>
 6    1  0.1762360E-005  0.1274750E+04  0.7818608E-02  0.9049831E-01
         -2   -1    0    0    0  501 -0.00000000000E+00  0.00000000000E+00  0.16756782672E+03  0.16756782672E+03  0.00000000000E+00 0.  1.
          2   -1    0    0  501    0  0.00000000000E+00 -0.00000000000E+00 -0.24243743194E+04  0.24243743194E+04  0.00000000000E+00 0. -1.
         23    2    1    2    0    0 -0.25900486673E+03  0.57162268306E+03 -0.13209791544E+04  0.14651729507E+04  0.88937259931E+02 0.  0.
         13    1    3    3    0    0 -0.67652160252E+02  0.25080230325E+03 -0.51296419263E+03  0.57498771554E+03  0.00000000000E+00 0.  1.
        -13    1    3    3    0    0 -0.19135270648E+03  0.32082037981E+03 -0.80801496178E+03  0.89018523513E+03  0.00000000000E+00 0. -1.
         22    1    1    2    0    0  0.25900486673E+03 -0.57162268306E+03 -0.93582733830E+03  0.11267691955E+04  0.00000000000E+00 0.  1.
<mgrwt>
<rscale>  0 0.12747504E+04</rscale>
<asrwt>0</asrwt>
<pdfrwt beam="1">  1        2 0.37298064E+00 0.12747504E+04</pdfrwt>
<pdfrwt beam="2">  1       -2 0.25779667E-01 0.12747504E+04</pdfrwt>
<totfact> 0.51496281E+01</totfact>
</mgrwt>
</event>
<event>
 6    1  0.1762360E-005  0.4370562E+04  0.7818608E-02  0.7933698E-01
         -2   -1    0    0    0  501 -0.00000000000E+00  0.00000000000E+00  0.13227391857E+04  0.13227391857E+04  0.00000000000E+00 0. -1.
          2   -1    0    0  501    0  0.00000000000E+00 -0.00000000000E+00 -0.36102763192E+04  0.36102763192E+04  0.00000000000E+00 0.  1.
         23    2    1    2    0    0 -0.19885780272E+04  0.69906060609E+03 -0.17909107673E+04  0.27674287370E+04  0.90399871138E+02 0.  0.
         11    1    3    3    0    0 -0.16501285900E+04  0.54359176404E+03 -0.14762319842E+04  0.22798414947E+04  0.00000000000E+00 0.  1.
        -11    1    3    3    0    0 -0.33844943721E+03  0.15546884204E+03 -0.31467878308E+03  0.48758724236E+03  0.00000000000E+00 0. -1.
         22    1    1    2    0    0  0.19885780272E+04 -0.69906060609E+03 -0.49662636614E+03  0.21655867678E+04  0.00000000000E+00 0. -1.
<mgrwt>
<rscale>  0 0.43705624E+04</rscale>
<asrwt>0</asrwt>
<pdfrwt beam="1">  1        2 0.55542713E+00 0.43705624E+04</pdfrwt>
<pdfrwt beam="2">  1       -2 0.20349834E+00 0.43705624E+04</pdfrwt>
<totfact> 0.65417139E-02</totfact>
</mgrwt>
</event>
<event>
 6    1  0.1762360E-005  0.4034334E+04  0.7818608E-02  0.7997656E-01
         -1   -1    0    0    0  501 -0.00000000000E+00  0.00000000000E+00  0.18393582157E+04  0.18393582157E+04  0.00000000000E+00 0.  1.
          1   -1    0    0  501    0  0.00000000000E+00 -0.00000000000E+00 -0.22121643487E+04  0.22121643487E+04  0.00000000000E+00 0. -1.
         23    2    1    2    0    0 -0.27413944432E+03  0.97570020064E+03  0.15638168999E+04  0.18657384745E+04  0.91178081639E+02 0.  0.
         13    1    3    3    0    0 -0.18613431125E+03  0.78694053770E+03  0.12159744789E+04  0.14603134339E+04  0.00000000000E+00 0. -1.
        -13    1    3    3    0    0 -0.88005133073E+02  0.18875966294E+03  0.34784242093E+03  0.40542504066E+03  0.00000000000E+00 0.  1.
         22    1    1    2    0    0  0.27413944432E+03 -0.97570020064E+03 -0.19366230329E+04  0.21857840900E+04  0.00000000000E+00 0. -1.
<mgrwt>
<rscale>  0 0.40343340E+04</rscale>
<asrwt>0</asrwt>
<pdfrwt beam="1">  1        1 0.34033298E+00 0.40343340E+04</pdfrwt>
<pdfrwt beam="2">  1       -1 0.28297819E+00 0.40343340E+04</pdfrwt>
<totfact> 0.71020367E-02</totfact>
</mgrwt>
</event>
<event>
 6    1  0.1762360E-005  0.4611186E+04  0.7818608E-02  0.7891455E-01
         -2   -1    0    0    0  501 -0.00000000000E+00  0.00000000000E+00  0.18417235749E+04  0.18417235749E+04  0.00000000000E+00 0.  1.
          2   -1    0    0  501    0  0.00000000000E+00 -0.00000000000E+00 -0.28862953303E+04  0.28862953303E+04  0.00000000000E+00 0. -1.
         23    2    1    2    0    0  0.65027458714E+03  0.16869805619E+04  0.94298690613E+03  0.20411713308E+04  0.91627733456E+02 0.  0.
         13    1    3    3    0    0  0.15109415465E+03  0.48720799096E+03  0.24012244704E+03  0.56379061680E+03  0.00000000000E+00 0.  1.
        -13    1    3    3    0    0  0.49918043249E+03  0.11997725709E+04  0.70286445909E+03  0.14773807140E+04  0.00000000000E+00 0. -1.
         22    1    1    2    0    0 -0.65027458714E+03 -0.16869805619E+04 -0.19875586615E+04  0.26868475744E+04  0.00000000000E+00 0. -1.
<mgrwt>
<rscale>  0 0.46111856E+04</rscale>
<asrwt>0</asrwt>
<pdfrwt beam="1">  1        2 0.44404543E+00 0.46111856E+04</pdfrwt>
<pdfrwt beam="2">  1       -2 0.28334209E+00 0.46111856E+04</pdfrwt>
<totfact> 0.61789162E-02</totfact>
</mgrwt>
</event>
<event>
 6    1  0.1762360E-005  0.2141397E+04  0.7818608E-02  0.8543224E-01
         -2   -1    0    0    0  501 -0.00000000000E+00  0.00000000000E+00  0.57441957079E+03  0.57441957079E+03  0.00000000000E+00 0.  1.
          2   -1    0    0  501    0  0.00000000000E+00 -0.00000000000E+00 -0.19957446976E+04  0.19957446976E+04  0.00000000000E+00 0. -1.
         23    2    1    2    0    0 -0.74305999154E+03  0.72706372322E+03 -0.10096133602E+04  0.14520111539E+04  0.90870486238E+02 0.  0.
         11    1    3    3    0    0 -0.49711003669E+03  0.44901690789E+03 -0.60113105898E+03  0.90005173308E+03  0.00000000000E+00 0.  1.
        -11    1    3    3    0    0 -0.24594995484E+03  0.27804681533E+03 -0.40848230126E+03  0.55195942084E+03  0.00000000000E+00 0. -1.
         22    1    1    2    0    0  0.74305999154E+03 -0.72706372322E+03 -0.41171176653E+03  0.11181531144E+04  0.00000000000E+00 0.  1.
<mgrwt>
<rscale>  0 0.21413966E+04</rscale>
<asrwt>0</asrwt>
<pdfrwt beam="1">  1        2 0.30703765E+00 0.21413966E+04</pdfrwt>
<pdfrwt beam="2">  1       -2 0.88372241E-01 0.21413966E+04</pdfrwt>
<totfact> 0.67998904E+00</totfact>
</mgrwt>
</event>
<event>
 6    1  0.1762360E-005  0.2568048E+04  0.7818608E-02  0.8379136E-01
          1   -1    0    0  501    0  0.00000000000E+00  0.00000000000E+00  0.18878687550E+04  0.18878687550E+04  0.00000000000E+00 0. -1.
         -1   -1    0    0    0  501 -0.00000000000E+00 -0.00000000000E+00 -0.87332184755E+03  0.87332184755E+03  0.00000000000E+00 0.  1.
         23    2    1    2    0    0 -0.79047783142E+03 -0.99713988003E+03  0.33636473133E+03  0.13192910893E+04  0.90799798700E+02 0.  0.
         11    1    3    3    0    0 -0.67634867391E+03 -0.89565604596E+03  0.28250550175E+03  0.11573489707E+04  0.00000000000E+00 0.  1.
        -11    1    3    3    0    0 -0.11412915750E+03 -0.10148383407E+03  0.53859229579E+02  0.16194211861E+03  0.00000000000E+00 0. -1.
         22    1    1    2    0    0  0.79047783142E+03  0.99713988003E+03  0.67818217610E+03  0.14418995132E+04  0.00000000000E+00 0. -1.
<mgrwt>
<rscale>  0 0.25680475E+04</rscale>
<asrwt>0</asrwt>
<pdfrwt beam="1">  1        1 0.29044135E+00 0.25680475E+04</pdfrwt>
<pdfrwt beam="2">  1       -1 0.13435721E+00 0.25680475E+04</pdfrwt>
<totfact> 0.14622229E+00</totfact>
</mgrwt>
</event>
<event>
 6    1  0.1762360E-005  0.3965341E+04  0.7818608E-02  0.8011575E-01
          2   -1    0    0  501    0  0.00000000000E+00  0.00000000000E+00  0.39035786033E+04  0.39035786033E+04  0.00000000000E+00 0. -1.
         -2   -1    0    0    0  501 -0.00000000000E+00 -0.00000000000E+00 -0.10070199252E+04  0.10070199252E+04  0.00000000000E+00 0.  1.
         23    2    1    2    0    0 -0.10002223776E+04 -0.15100272332E+04  0.45368685449E+03  0.18695050086E+04  0.92683147014E+02 0.  0.
         13    1    3    3    0    0 -0.72160719541E+03 -0.10605547127E+04  0.28081874859E+03  0.13131459983E+04  0.00000000000E+00 0. -1.
        -13    1    3    3    0    0 -0.27861518217E+03 -0.44947252047E+03  0.17286810591E+03  0.55635901038E+03  0.00000000000E+00 0.  1.
         22    1    1    2    0    0  0.10002223776E+04  0.15100272332E+04  0.24428718236E+04  0.30410935198E+04  0.00000000000E+00 0. -1.
<mgrwt>
<rscale>  0 0.39653406E+04</rscale>
<asrwt>0</asrwt>
<pdfrwt beam="1">  1        2 0.60055054E+00 0.39653406E+04</pdfrwt>
<pdfrwt beam="2">  1       -2 0.15492615E+00 0.39653406E+04</pdfrwt>
<totfact> 0.88525984E-02</totfact>
</mgrwt>
</event>
<event>
 6    1  0.1762360E-005  0.2309015E+04  0.7818608E-02  0.8474375E-01
          2   -1    0    0  501    0  0.00000000000E+00  0.00000000000E+00  0.10278739520E+04  0.10278739520E+04  0.00000000000E+00 0. -1.
         -2   -1    0    0    0  501 -0.00000000000E+00 -0.00000000000E+00 -0.12967423211E+04  0.12967423211E+04  0.00000000000E+00 0.  1.
         23    2    1    2    0    0 -0.86927430608E+03 -0.74881790638E+03 -0.23005787359E+02  0.11512388891E+04  0.91954539308E+02 0.  0.
         13    1    3    3    0    0 -0.23567556803E+03 -0.22785570827E+03 -0.43645788296E+02  0.33070553669E+03  0.00000000000E+00 0. -1.
        -13    1    3    3    0    0 -0.63359873805E+03 -0.52096219811E+03  0.20640000938E+02  0.82053335237E+03  0.00000000000E+00 0.  1.
         22    1    1    2    0    0  0.86927430608E+03  0.74881790638E+03 -0.24586258176E+03  0.11733773840E+04  0.00000000000E+00 0. -1.
<mgrwt>
<rscale>  0 0.23090151E+04</rscale>
<asrwt>0</asrwt>
<pdfrwt beam="1">  1        2 0.15813445E+00 0.23090151E+04</pdfrwt>
<pdfrwt beam="2">  1       -2 0.19949882E+00 0.23090151E+04</pdfrwt>
<totfact> 0.29345227E+00</totfact>
</mgrwt>
</event>
<event>
 6    1  0.1762360E-005  0.3323054E+04  0.7818608E-02  0.8157054E-01
          1   -1    0    0  501    0  0.00000000000E+00  0.00000000000E+00  0.24544847924E+04  0.24544847924E+04  0.00000000000E+00 0. -1.
         -1   -1    0    0    0  501 -0.00000000000E+00 -0.00000000000E+00 -0.11247460075E+04  0.11247460075E+04  0.00000000000E+00 0.  1.
         23    2    1    2    0    0  0.27292485907E+03  0.14214220826E+04 -0.21083404870E+03  0.14653969911E+04  0.89490947753E+02 0.  0.
         11    1    3    3    0    0  0.92193511330E+02  0.30370405005E+03 -0.62530099347E+02  0.32349004138E+03  0.00000000000E+00 0. -1.
        -11    1    3    3    0    0  0.18073134774E+03  0.11177180326E+04 -0.14830394936E+03  0.11419069497E+04  0.00000000000E+00 0.  1.
         22    1    1    2    0    0 -0.27292485907E+03 -0.14214220826E+04  0.15405728336E+04  0.21138338088E+04  0.00000000000E+00 0. -1.
<mgrwt>
<rscale>  0 0.33230540E+04</rscale>
<asrwt>0</asrwt>
<pdfrwt beam="1">  1        1 0.37761304E+00 0.33230540E+04</pdfrwt>
<pdfrwt beam="2">  1       -1 0.17303785E+00 0.33230540E+04</pdfrwt>
<totfact> 0.28192639E-01</totfact>
</mgrwt>
</event>
<event>
 6    1  0.1762360E-005  0.1277976E+04  0.7818608E-02  0.9047215E-01
         -2   -1    0    0    0  501 -0.00000000000E+00  0.00000000000E+00  0.45549515403E+03  0.45549515403E+03  0.00000000000E+00 0.  1.
          2   -1    0    0  501    0  0.00000000000E+00 -0.00000000000E+00 -0.89639965125E+03  0.89639965125E+03  0.00000000000E+00 0. -1.
         23    2    1    2    0    0 -0.26078983935E+03  0.57906944441E+03 -0.25087030046E+03  0.68898775471E+03  0.91844742580E+02 0.  0.
         13    1    3    3    0    0 -0.11204805417E+03  0.35880964763E+03 -0.14464876925E+03  0.40276841500E+03  0.00000000000E+00 0.  1.
        -13    1    3    3    0    0 -0.14874178517E+03  0.22025979678E+03 -0.10622153121E+03  0.28621933971E+03  0.00000000000E+00 0. -1.
         22    1    1    2    0    0  0.26078983935E+03 -0.57906944441E+03 -0.19003419676E+03  0.66290705057E+03  0.00000000000E+00 0. -1.
<mgrwt>
<rscale>  0 0.12779761E+04</rscale>
<asrwt>0</asrwt>
<pdfrwt beam="1">  1        2 0.13790764E+00 0.12779761E+04</pdfrwt>
<pdfrwt beam="2">  1       -2 0.70076177E-01 0.12779761E+04</pdfrwt>
<totfact> 0.53698239E+01</totfact>
</mgrwt>
</event>
<event>
 6    1  0.1762360E-005  0.8053497E+03  0.7818608E-02  0.9552306E-01
          2   -1    0    0  501    0  0.00000000000E+00  0.00000000000E+00  0.19579025201E+04  0.19579025201E+04  0.00000000000E+00 0. -1.
         -2   -1    0    0    0  501 -0.00000000000E+00 -0.00000000000E+00 -0.82816714505E+02  0.82816714505E+02  0.00000000000E+00 0.  1.
         23    2    1    2    0    0 -0.19662075736E+03 -0.28685843353E+03  0.46150814783E+03  0.58498942532E+03  0.90969083264E+02 0.  0.
         13    1    3    3    0    0 -0.52765910549E+01 -0.67794435298E+02  0.10133165079E+03  0.12203291082E+03  0.00000000000E+00 0. -1.
        -13    1    3    3    0    0 -0.19134416631E+03 -0.21906399823E+03  0.36017649704E+03  0.46295651451E+03  0.00000000000E+00 0.  1.
         22    1    1    2    0    0  0.19662075736E+03  0.28685843353E+03  0.14135776578E+04  0.14557298093E+04  0.00000000000E+00 0. -1.
<mgrwt>
<rscale>  0 0.80534975E+03</rscale>
<asrwt>0</asrwt>
<pdfrwt beam="1">  1        2 0.30121573E+00 0.80534975E+03</pdfrwt>
<pdfrwt beam="2">  1       -2 0.12741035E-01 0.80534975E+03</pdfrwt>
<totfact> 0.33087171E+02</totfact>
</mgrwt>
</event>
<event>
 6    1  0.1762360E-005  0.3850252E+04  0.7818608E-02  0.8035456E-01
          1   -1    0    0  501    0  0.00000000000E+00  0.00000000000E+00  0.30642142911E+04  0.30642142911E+04  0.00000000000E+00 0.  1.
         -1   -1    0    0    0  501 -0.00000000000E+00 -0.00000000000E+00 -0.12094814545E+04  0.12094814545E+04  0.00000000000E+00 0. -1.
         23    2    1    2    0    0  0.11705357077E+04  0.20771554314E+03 -0.75130621240E+03  0.14093041672E+04  0.91529344739E+02 0.  0.
         11    1    3    3    0    0  0.25689373370E+03  0.27937319896E+02 -0.20383240389E+03  0.32912388721E+03  0.00000000000E+00 0.  1.
        -11    1    3    3    0    0  0.91364197400E+03  0.17977822324E+03 -0.54747380851E+03  0.10801802800E+04  0.00000000000E+00 0. -1.
         22    1    1    2    0    0 -0.11705357077E+04 -0.20771554314E+03  0.26060390490E+04  0.28643915785E+04  0.00000000000E+00 0.  1.
<mgrwt>
<rscale>  0 0.38502521E+04</rscale>
<asrwt>0</asrwt>
<pdfrwt beam="1">  1        1 0.47141758E+00 0.38502521E+04</pdfrwt>
<pdfrwt beam="2">  1       -1 0.18607407E+00 0.38502521E+04</pdfrwt>
<totfact> 0.79977125E-02</totfact>
</mgrwt>
</event>
<event>
 6    1  0.1762360E-005  0.9068848E+03  0.7818608E-02  0.9417016E-01
         -1   -1    0    0    0  501 -0.00000000000E+00  0.00000000000E+00  0.14806299637E+03  0.14806299637E+03  0.00000000000E+00 0.  1.
          1   -1    0    0  501    0  0.00000000000E+00 -0.00000000000E+00 -0.13886658307E+04  0.13886658307E+04  0.00000000000E+00 0. -1.
         23    2    1    2    0    0  0.39944852068E+03  0.16356370192E+03 -0.41729283412E+03  0.60713130033E+03  0.90348775199E+02 0.  0.
         11    1    3    3    0    0  0.10792020586E+03  0.47303531571E+02 -0.17342767233E+03  0.20967010388E+03  0.00000000000E+00 0. -1.
        -11    1    3    3    0    0  0.29152831482E+03  0.11626017035E+03 -0.24386516179E+03  0.39746119645E+03  0.00000000000E+00 0.  1.
         22    1    1    2    0    0 -0.39944852068E+03 -0.16356370192E+03 -0.82331000016E+03  0.92959752669E+03  0.00000000000E+00 0. -1.
<mgrwt>
<rscale>  0 0.90688483E+03</rscale>
<asrwt>0</asrwt>
<pdfrwt beam="1">  1        1 0.21364090E+00 0.90688483E+03</pdfrwt>
<pdfrwt beam="2">  1       -1 0.22778923E-01 0.90688483E+03</pdfrwt>
<totfact> 0.12944681E+02</totfact>
</mgrwt>
</event>
<event>
 6    1  0.1762360E-005  0.2297901E+04  0.7818608E-02  0.8478749E-01
          1   -1    0    0  501    0  0.00000000000E+00  0.00000000000E+00  0.11310062124E+04  0.11310062124E+04  0.00000000000E+00 0. -1.
         -1   -1    0    0    0  501 -0.00000000000E+00 -0.00000000000E+00 -0.11671799280E+04  0.11671799280E+04  0.00000000000E+00 0.  1.
         23    2    1    2    0    0 -0.86265456497E+03 -0.74433430527E+03 -0.15259462181E+03  0.11528651008E+04  0.87214480256E+02 0.  0.
         13    1    3    3    0    0 -0.62351071812E+03 -0.54887126913E+03 -0.14928655276E+03  0.84398564000E+03  0.00000000000E+00 0. -1.
        -13    1    3    3    0    0 -0.23914384684E+03 -0.19546303615E+03 -0.33080690478E+01  0.30887946080E+03  0.00000000000E+00 0.  1.
         22    1    1    2    0    0  0.86265456497E+03  0.74433430527E+03  0.11642090622E+03  0.11453210397E+04  0.00000000000E+00 0.  1.
<mgrwt>
<rscale>  0 0.22979014E+04</rscale>
<asrwt>0</asrwt>
<pdfrwt beam="1">  1        1 0.17400096E+00 0.22979014E+04</pdfrwt>
<pdfrwt beam="2">  1       -1 0.17956614E+00 0.22979014E+04</pdfrwt>
<totfact> 0.22773791E+00</totfact>
</mgrwt>
</event>
<event>
 6    1  0.1762360E-005  0.2590542E+04  0.7818608E-02  0.8371421E-01
         -1   -1    0    0    0  501 -0.00000000000E+00  0.00000000000E+00  0.81507943416E+03  0.81507943416E+03  0.00000000000E+00 0.  1.
          1   -1    0    0  501    0  0.00000000000E+00 -0.00000000000E+00 -0.20583594477E+04  0.20583594477E+04  0.00000000000E+00 0. -1.
         23    2    1    2    0    0 -0.65759734515E+03 -0.10355684151E+04 -0.16678462248E+03  0.12413609004E+04  0.91233568879E+02 0.  0.
         11    1    3    3    0    0 -0.28038019645E+03 -0.51010001932E+03 -0.10616291967E+03  0.59168036116E+03  0.00000000000E+00 0. -1.
        -11    1    3    3    0    0 -0.37721714870E+03 -0.52546839576E+03 -0.60621702815E+02  0.64968053924E+03  0.00000000000E+00 0.  1.
         22    1    1    2    0    0  0.65759734515E+03  0.10355684151E+04 -0.10764953911E+04  0.16320779815E+04  0.00000000000E+00 0. -1.
<mgrwt>
<rscale>  0 0.25905416E+04</rscale>
<asrwt>0</asrwt>
<pdfrwt beam="1">  1        1 0.31667069E+00 0.25905416E+04</pdfrwt>
<pdfrwt beam="2">  1       -1 0.12539683E+00 0.25905416E+04</pdfrwt>
<totfact> 0.13309730E+00</totfact>
</mgrwt>
</event>
<event>
 6    1  0.1762360E-005  0.2340228E+04  0.7818608E-02  0.8462227E-01
          1   -1    0    0  501    0  0.00000000000E+00  0.00000000000E+00  0.24324451419E+04  0.24324451419E+04  0.00000000000E+00 0. -1.
         -1   -1    0    0    0  501 -0.00000000000E+00 -0.00000000000E+00 -0.56287670723E+03  0.56287670723E+03  0.00000000000E+00 0.  1.
         23    2    1    2    0    0 -0.47233111022E+03 -0.86124582161E+03  0.12649376560E+03  0.99453441793E+03  0.90867996493E+02 0.  0.
         13    1    3    3    0    0 -0.24273896584E+03 -0.44068245355E+03  0.11055965889E+03  0.51511811129E+03  0.00000000000E+00 0. -1.
        -13    1    3    3    0    0 -0.22959214438E+03 -0.42056336806E+03  0.15934106708E+02  0.47941630664E+03  0.00000000000E+00 0.  1.
         22    1    1    2    0    0  0.47233111022E+03  0.86124582161E+03  0.17430746691E+04  0.20007874312E+04  0.00000000000E+00 0. -1.
<mgrwt>
<rscale>  0 0.23402279E+04</rscale>
<asrwt>0</asrwt>
<pdfrwt beam="1">  1        1 0.37422232E+00 0.23402279E+04</pdfrwt>
<pdfrwt beam="2">  1       -1 0.86596418E-01 0.23402279E+04</pdfrwt>
<totfact> 0.17865022E+00</totfact>
</mgrwt>
</event>
<event>
 6    1  0.1762360E-005  0.2253710E+04  0.7818608E-02  0.8496399E-01
          1   -1    0    0  501    0  0.00000000000E+00  0.00000000000E+00  0.22247771728E+04  0.22247771728E+04  0.00000000000E+00 0. -1.
         -1   -1    0    0    0  501 -0.00000000000E+00 -0.00000000000E+00 -0.57075501519E+03  0.57075501519E+03  0.00000000000E+00 0.  1.
         23    2    1    2    0    0 -0.68586529310E+03 -0.63874468386E+03  0.16003548229E+04  0.18567637638E+04  0.89611070529E+02 0.  0.
         11    1    3    3    0    0 -0.34161300794E+03 -0.36175772118E+03  0.78562795112E+03  0.92993514484E+03  0.00000000000E+00 0.  1.
        -11    1    3    3    0    0 -0.34425228516E+03 -0.27698696268E+03  0.81472687177E+03  0.92682861895E+03  0.00000000000E+00 0. -1.
         22    1    1    2    0    0  0.68586529310E+03  0.63874468386E+03  0.53667334710E+02  0.93876842419E+03  0.00000000000E+00 0.  1.
<mgrwt>
<rscale>  0 0.22537105E+04</rscale>
<asrwt>0</asrwt>
<pdfrwt beam="1">  1        1 0.34227341E+00 0.22537105E+04</pdfrwt>
<pdfrwt beam="2">  1       -1 0.87808465E-01 0.22537105E+04</pdfrwt>
<totfact> 0.24245709E+00</totfact>
</mgrwt>
</event>
<event>
 6    1  0.1762360E-005  0.1590353E+04  0.7818608E-02  0.8826496E-01
         -2   -1    0    0    0  501 -0.00000000000E+00  0.00000000000E+00  0.64524837731E+03  0.64524837731E+03  0.00000000000E+00 0.  1.
          2   -1    0    0  501    0  0.00000000000E+00 -0.00000000000E+00 -0.97994163735E+03  0.97994163735E+03  0.00000000000E+00 0. -1.
         23    2    1    2    0    0  0.32668379863E+03 -0.16426657909E+03  0.55036259192E+03  0.66757335108E+03  0.95128246067E+02 0.  0.
         13    1    3    3    0    0  0.83438941949E+02 -0.56385187676E+01  0.16563793546E+03  0.18555262216E+03  0.00000000000E+00 0. -1.
        -13    1    3    3    0    0  0.24324485668E+03 -0.15862806032E+03  0.38472465645E+03  0.48202072892E+03  0.00000000000E+00 0.  1.
         22    1    1    2    0    0 -0.32668379863E+03  0.16426657909E+03 -0.88505585196E+03  0.95761666358E+03  0.00000000000E+00 0. -1.
<mgrwt>
<rscale>  0 0.15903531E+04</rscale>
<asrwt>0</asrwt>
<pdfrwt beam="1">  1        2 0.15076025E+00 0.15903531E+04</pdfrwt>
<pdfrwt beam="2">  1       -2 0.99268982E-01 0.15903531E+04</pdfrwt>
<totfact> 0.20936014E+01</totfact>
</mgrwt>
</event>
<event>
 6    1  0.1762360E-005  0.2929854E+04  0.7818608E-02  0.8264050E-01
          2   -1    0    0  501    0  0.00000000000E+00  0.00000000000E+00  0.17165910825E+04  0.17165910825E+04  0.00000000000E+00 0. -1.
         -2   -1    0    0    0  501 -0.00000000000E+00 -0.00000000000E+00 -0.12501588397E+04  0.12501588397E+04  0.00000000000E+00 0.  1.
         23    2    1    2    0    0  0.88526770950E+02  0.33030409222E+03  0.16743119315E+04  0.17113969340E+04  0.92850628748E+02 0.  0.
         13    1    3    3    0    0  0.71867573635E+02  0.31021861546E+03  0.16217119942E+04  0.16526797420E+04  0.00000000000E+00 0. -1.
        -13    1    3    3    0    0  0.16659197315E+02  0.20085476763E+02  0.52599937265E+02  0.58717191965E+02  0.00000000000E+00 0.  1.
         22    1    1    2    0    0 -0.88526770950E+02 -0.33030409222E+03 -0.12078796888E+04  0.12553529882E+04  0.00000000000E+00 0.  1.
<mgrwt>
<rscale>  0 0.29298543E+04</rscale>
<asrwt>0</asrwt>
<pdfrwt beam="1">  1        2 0.26409093E+00 0.29298543E+04</pdfrwt>
<pdfrwt beam="2">  1       -2 0.19233213E+00 0.29298543E+04</pdfrwt>
<totfact> 0.12360706E+00</totfact>
</mgrwt>
</event>
<event>
 6    1  0.1762360E-005  0.1490165E+04  0.7818608E-02  0.8891019E-01
          1   -1    0    0  501    0  0.00000000000E+00  0.00000000000E+00  0.32895112520E+03  0.32895112520E+03  0.00000000000E+00 0. -1.
         -1   -1    0    0    0  501 -0.00000000000E+00 -0.00000000000E+00 -0.16876311611E+04  0.16876311611E+04  0.00000000000E+00 0.  1.
         23    2    1    2    0    0 -0.22719746267E+03  0.21332215958E+03 -0.15936493077E+04  0.16262803653E+04  0.89132933410E+02 0.  0.
         11    1    3    3    0    0 -0.10063464810E+03  0.15451072318E+03 -0.93464836703E+03  0.95266387880E+03  0.00000000000E+00 0. -1.
        -11    1    3    3    0    0 -0.12656281457E+03  0.58811436397E+02 -0.65900094070E+03  0.67361648653E+03  0.00000000000E+00 0.  1.
         22    1    1    2    0    0  0.22719746267E+03 -0.21332215958E+03  0.23496927182E+03  0.39030192097E+03  0.00000000000E+00 0. -1.
<mgrwt>
<rscale>  0 0.14901653E+04</rscale>
<asrwt>0</asrwt>
<pdfrwt beam="1">  1        1 0.50607867E-01 0.14901653E+04</pdfrwt>
<pdfrwt beam="2">  1       -1 0.25963556E+00 0.14901653E+04</pdfrwt>
<totfact> 0.45430904E+00</totfact>
</mgrwt>
</event>
<event>
 6    1  0.1762360E-005  0.1092790E+04  0.7818608E-02  0.9212248E-01
         -1   -1    0    0    0  501 -0.00000000000E+00  0.00000000000E+00  0.17192487706E+03  0.17192487706E+03  0.00000000000E+00 0.  1.
          1   -1    0    0  501    0  0.00000000000E+00 -0.00000000000E+00 -0.17364986856E+04  0.17364986856E+04  0.00000000000E+00 0. -1.
         23    2    1    2    0    0  0.33221267121E+03  0.22252218962E+03 -0.14792460103E+03  0.43642615746E+03  0.93299086494E+02 0.  0.
         11    1    3    3    0    0  0.79023759455E+02  0.88474635208E+02 -0.11700553660E+02  0.11920326585E+03  0.00000000000E+00 0.  1.
        -11    1    3    3    0    0  0.25318891175E+03  0.13404755441E+03 -0.13622404737E+03  0.31722289161E+03  0.00000000000E+00 0. -1.
         22    1    1    2    0    0 -0.33221267121E+03 -0.22252218962E+03 -0.14166492076E+04  0.14719974052E+04  0.00000000000E+00 0. -1.
<mgrwt>
<rscale>  0 0.10927897E+04</rscale>
<asrwt>0</asrwt>
<pdfrwt beam="1">  1        1 0.26715365E+00 0.10927897E+04</pdfrwt>
<pdfrwt beam="2">  1       -1 0.26449981E-01 0.10927897E+04</pdfrwt>
<totfact> 0.57078644E+01</totfact>
</mgrwt>
</event>
<event>
 6    1  0.1762360E-005  0.9224494E+03  0.7818608E-02  0.9397946E-01
          2   -1    0    0  501    0  0.00000000000E+00  0.00000000000E+00  0.33610279648E+04  0.33610279648E+04  0.00000000000E+00 0. -1.
         -2   -1    0    0    0  501 -0.00000000000E+00 -0.00000000000E+00 -0.63292601165E+02  0.63292601165E+02  0.00000000000E+00 0.  1.
         23    2    1    2    0    0  0.23451291074E+03  0.75235184507E+02  0.30936793739E+04  0.31044839120E+04  0.79445910750E+02 0.  0.
         11    1    3    3    0    0  0.19236868616E+03  0.38291016838E+02  0.20701540443E+04  0.20794253246E+04  0.00000000000E+00 0.  1.
        -11    1    3    3    0    0  0.42144224583E+02  0.36944167670E+02  0.10235253297E+04  0.10250585874E+04  0.00000000000E+00 0. -1.
         22    1    1    2    0    0 -0.23451291074E+03 -0.75235184507E+02  0.20405598967E+03  0.31983665396E+03  0.00000000000E+00 0.  1.
<mgrwt>
<rscale>  0 0.92244935E+03</rscale>
<asrwt>0</asrwt>
<pdfrwt beam="1">  1        2 0.51708109E+00 0.92244935E+03</pdfrwt>
<pdfrwt beam="2">  1       -2 0.97373259E-02 0.92244935E+03</pdfrwt>
<totfact> 0.76018409E+01</totfact>
</mgrwt>
</event>
<event>
 6    1  0.1762360E-005  0.2024748E+04  0.7818608E-02  0.8595137E-01
          2   -1    0    0  501    0  0.00000000000E+00  0.00000000000E+00  0.25834171883E+04  0.25834171883E+04  0.00000000000E+00 0. -1.
         -2   -1    0    0    0  501 -0.00000000000E+00 -0.00000000000E+00 -0.39672320751E+03  0.39672320751E+03  0.00000000000E+00 0.  1.
         23    2    1    2    0    0  0.37273930236E+03 -0.20230909389E+03 -0.25467734432E+03  0.50220627561E+03  0.86527663537E+02 0.  0.
         11    1    3    3    0    0  0.17148891623E+03 -0.78493532119E+02 -0.65944497379E+02  0.19979579502E+03  0.00000000000E+00 0.  1.
        -11    1    3    3    0    0  0.20125038613E+03 -0.12381556177E+03 -0.18873284694E+03  0.30241048059E+03  0.00000000000E+00 0. -1.
         22    1    1    2    0    0 -0.37273930236E+03  0.20230909389E+03  0.24413713251E+04  0.24779341202E+04  0.00000000000E+00 0. -1.
<mgrwt>
<rscale>  0 0.20247484E+04</rscale>
<asrwt>0</asrwt>
<pdfrwt beam="1">  1        2 0.39744879E+00 0.20247484E+04</pdfrwt>
<pdfrwt beam="2">  1       -2 0.61034341E-01 0.20247484E+04</pdfrwt>
<totfact> 0.72126181E+00</totfact>
</mgrwt>
</event>
<event>
 6    1  0.1762360E-005  0.1164422E+04  0.7818608E-02  0.9144581E-01
         -1   -1    0    0    0  501 -0.00000000000E+00  0.00000000000E+00  0.10904699921E+03  0.10904699921E+03  0.00000000000E+00 0.  1.
          1   -1    0    0  501    0  0.00000000000E+00 -0.00000000000E+00 -0.31084728212E+04  0.31084728212E+04  0.00000000000E+00 0. -1.
         23    2    1    2    0    0  0.25643749465E+03  0.14576597923E+03 -0.28844964746E+04  0.29009496635E+04  0.90449592325E+02 0.  0.
         11    1    3    3    0    0  0.20390284881E+03  0.15272755898E+03 -0.23053546163E+04  0.23193882784E+04  0.00000000000E+00 0.  1.
        -11    1    3    3    0    0  0.52534645840E+02 -0.69615797457E+01 -0.57914185829E+03  0.58156138510E+03  0.00000000000E+00 0. -1.
         22    1    1    2    0    0 -0.25643749465E+03 -0.14576597923E+03 -0.11492934740E+03  0.31657015693E+03  0.00000000000E+00 0.  1.
<mgrwt>
<rscale>  0 0.11644220E+04</rscale>
<asrwt>0</asrwt>
<pdfrwt beam="1">  1        1 0.47822662E+00 0.11644220E+04</pdfrwt>
<pdfrwt beam="2">  1       -1 0.16776460E-01 0.11644220E+04</pdfrwt>
<totfact> 0.13742341E+01</totfact>
</mgrwt>
</event>
<event>
 6    1  0.1762360E-005  0.3978463E+04  0.7818608E-02  0.8008905E-01
         -2   -1    0    0    0  501 -0.00000000000E+00  0.00000000000E+00  0.11193902731E+04  0.11193902731E+04  0.00000000000E+00 0.  1.
          2   -1    0    0  501    0  0.00000000000E+00 -0.00000000000E+00 -0.35349984262E+04  0.35349984262E+04  0.00000000000E+00 0. -1.
         23    2    1    2    0    0  0.15167861907E+04 -0.24324024991E+03  0.26835817151E+03  0.15619008013E+04  0.87817068308E+02 0.  0.
         13    1    3    3    0    0  0.98890642516E+03 -0.11631125057E+03  0.16934930342E+03  0.10100214905E+04  0.00000000000E+00 0. -1.
        -13    1    3    3    0    0  0.52787976554E+03 -0.12692899933E+03  0.99008868085E+02  0.55187931080E+03  0.00000000000E+00 0.  1.
         22    1    1    2    0    0 -0.15167861907E+04  0.24324024991E+03 -0.26839663246E+04  0.30924878979E+04  0.00000000000E+00 0. -1.
<mgrwt>
<rscale>  0 0.39784634E+04</rscale>
<asrwt>0</asrwt>
<pdfrwt beam="1">  1        2 0.54384591E+00 0.39784634E+04</pdfrwt>
<pdfrwt beam="2">  1       -2 0.17221389E+00 0.39784634E+04</pdfrwt>
<totfact> 0.12454435E-01</totfact>
</mgrwt>
</event>
<event>
 6    1  0.1762360E-005  0.2003808E+04  0.7818608E-02  0.8604842E-01
         -1   -1    0    0    0  501 -0.00000000000E+00  0.00000000000E+00  0.41733940179E+03  0.41733940179E+03  0.00000000000E+00 0.  1.
          1   -1    0    0  501    0  0.00000000000E+00 -0.00000000000E+00 -0.24052650664E+04  0.24052650664E+04  0.00000000000E+00 0. -1.
         23    2    1    2    0    0 -0.31195924701E+03  0.44004744699E+03  0.19104409200E+03  0.57786182645E+03  0.80412175641E+02 0.  0.
         13    1    3    3    0    0 -0.20760558119E+03  0.23467959255E+03  0.13240758737E+03  0.34015637242E+03  0.00000000000E+00 0.  1.
        -13    1    3    3    0    0 -0.10435366582E+03  0.20536785443E+03  0.58636504626E+02  0.23770545404E+03  0.00000000000E+00 0. -1.
         22    1    1    2    0    0  0.31195924701E+03 -0.44004744699E+03 -0.21789697567E+04  0.22447426418E+04  0.00000000000E+00 0. -1.
<mgrwt>
<rscale>  0 0.20038083E+04</rscale>
<asrwt>0</asrwt>
<pdfrwt beam="1">  1        1 0.37004078E+00 0.20038083E+04</pdfrwt>
<pdfrwt beam="2">  1       -1 0.64206062E-01 0.20038083E+04</pdfrwt>
<totfact> 0.35950655E+00</totfact>
</mgrwt>
</event>
<event>
 6    1  0.1762360E-005  0.2090436E+04  0.7818608E-02  0.8565468E-01
          1   -1    0    0  501    0  0.00000000000E+00  0.00000000000E+00  0.15966265521E+04  0.15966265521E+04  0.00000000000E+00 0. -1.
         -1   -1    0    0    0  501 -0.00000000000E+00 -0.00000000000E+00 -0.68424284310E+03  0.68424284310E+03  0.00000000000E+00 0.  1.
         23    2    1    2    0    0  0.39079868678E+03  0.78870114140E+03 -0.15380645998E+03  0.89828681883E+03  0.92139447190E+02 0.  0.
         13    1    3    3    0    0  0.15146409809E+03  0.22055545445E+03 -0.65904684345E+02  0.27555309636E+03  0.00000000000E+00 0. -1.
        -13    1    3    3    0    0  0.23933458869E+03  0.56814568695E+03 -0.87901775634E+02  0.62273372247E+03  0.00000000000E+00 0.  1.
         22    1    1    2    0    0 -0.39079868678E+03 -0.78870114140E+03  0.10661901689E+04  0.13825825763E+04  0.00000000000E+00 0. -1.
<mgrwt>
<rscale>  0 0.20904356E+04</rscale>
<asrwt>0</asrwt>
<pdfrwt beam="1">  1        1 0.24563485E+00 0.20904356E+04</pdfrwt>
<pdfrwt beam="2">  1       -1 0.10526813E+00 0.20904356E+04</pdfrwt>
<totfact> 0.43697703E+00</totfact>
</mgrwt>
</event>
<event>
 6    1  0.1762360E-005  0.5349657E+04  0.7818608E-02  0.7776722E-01
          2   -1    0    0  501    0  0.00000000000E+00  0.00000000000E+00  0.26368435232E+04  0.26368435232E+04  0.00000000000E+00 0. -1.
         -2   -1    0    0    0  501 -0.00000000000E+00 -0.00000000000E+00 -0.27133603534E+04  0.27133603534E+04  0.00000000000E+00 0.  1.
         23    2    1    2    0    0  0.11643564694E+04  0.24021167583E+04 -0.19601749177E+03  0.26780939769E+04  0.88733215347E+02 0.  0.
         11    1    3    3    0    0  0.64181801923E+03  0.12958569864E+04 -0.63598168776E+02  0.14474876255E+04  0.00000000000E+00 0. -1.
        -11    1    3    3    0    0  0.52253845019E+03  0.11062597719E+04 -0.13241932299E+03  0.12306063513E+04  0.00000000000E+00 0.  1.
         22    1    1    2    0    0 -0.11643564694E+04 -0.24021167583E+04  0.11950066152E+03  0.26721098998E+04  0.00000000000E+00 0.  1.
<mgrwt>
<rscale>  0 0.53496567E+04</rscale>
<asrwt>0</asrwt>
<pdfrwt beam="1">  1        2 0.40566823E+00 0.53496567E+04</pdfrwt>
<pdfrwt beam="2">  1       -2 0.41744005E+00 0.53496567E+04</pdfrwt>
<totfact> 0.11704846E-02</totfact>
</mgrwt>
</event>
<event>
 6    1  0.1762360E-005  0.8977103E+03  0.7818608E-02  0.9428448E-01
          2   -1    0    0  501    0  0.00000000000E+00  0.00000000000E+00  0.47529999553E+03  0.47529999553E+03  0.00000000000E+00 0. -1.
         -2   -1    0    0    0  501 -0.00000000000E+00 -0.00000000000E+00 -0.42388165925E+03  0.42388165925E+03  0.00000000000E+00 0.  1.
         23    2    1    2    0    0  0.14052633303E+03  0.16782875047E+03  0.41311579429E+03  0.47640607496E+03  0.91563906666E+02 0.  0.
         13    1    3    3    0    0  0.10594489279E+03  0.11909677385E+03  0.36953117684E+03  0.40244459558E+03  0.00000000000E+00 0. -1.
        -13    1    3    3    0    0  0.34581440242E+02  0.48731976615E+02  0.43584617451E+02  0.73961479382E+02  0.00000000000E+00 0.  1.
         22    1    1    2    0    0 -0.14052633303E+03 -0.16782875047E+03 -0.36169745801E+03  0.42277557982E+03  0.00000000000E+00 0.  1.
<mgrwt>
<rscale>  0 0.89771031E+03</rscale>
<asrwt>0</asrwt>
<pdfrwt beam="1">  1        2 0.73123076E-01 0.89771031E+03</pdfrwt>
<pdfrwt beam="2">  1       -2 0.65212563E-01 0.89771031E+03</pdfrwt>
<totfact> 0.14215766E+02</totfact>
</mgrwt>
</event>
<event>
 6    1  0.1762360E-005  0.4586564E+04  0.7818608E-02  0.7895655E-01
          1   -1    0    0  501    0  0.00000000000E+00  0.00000000000E+00  0.29445340539E+04  0.29445340539E+04  0.00000000000E+00 0. -1.
         -1   -1    0    0    0  501 -0.00000000000E+00 -0.00000000000E+00 -0.17860698193E+04  0.17860698193E+04  0.00000000000E+00 0.  1.
         23    2    1    2    0    0 -0.66238158452E+03  0.19187368193E+04  0.16777923432E+04  0.26353707049E+04  0.99454814985E+02 0.  0.
         11    1    3    3    0    0 -0.23806901534E+03  0.55427082964E+03  0.51187204916E+03  0.79114221437E+03  0.00000000000E+00 0. -1.
        -11    1    3    3    0    0 -0.42431256918E+03  0.13644659896E+04  0.11659202941E+04  0.18442284905E+04  0.00000000000E+00 0.  1.
         22    1    1    2    0    0  0.66238158452E+03 -0.19187368193E+04 -0.51932810860E+03  0.20952331683E+04  0.00000000000E+00 0.  1.
<mgrwt>
<rscale>  0 0.45865645E+04</rscale>
<asrwt>0</asrwt>
<pdfrwt beam="1">  1        1 0.45300524E+00 0.45865645E+04</pdfrwt>
<pdfrwt beam="2">  1       -1 0.27477997E+00 0.45865645E+04</pdfrwt>
<totfact> 0.23544782E-02</totfact>
</mgrwt>
</event>
<event>
 6    1  0.1762360E-005  0.1634038E+04  0.7818608E-02  0.8799906E-01
          1   -1    0    0  501    0  0.00000000000E+00  0.00000000000E+00  0.11736430710E+04  0.11736430710E+04  0.00000000000E+00 0. -1.
         -1   -1    0    0    0  501 -0.00000000000E+00 -0.00000000000E+00 -0.56875904382E+03  0.56875904382E+03  0.00000000000E+00 0.  1.
         23    2    1    2    0    0 -0.66272870209E+03  0.44257517754E+03  0.12251695728E+03  0.81086569017E+03  0.86085087679E+02 0.  0.
         13    1    3    3    0    0 -0.58930324347E+03  0.35896563602E+03  0.98364361859E+02  0.69700085243E+03  0.00000000000E+00 0. -1.
        -13    1    3    3    0    0 -0.73425458625E+02  0.83609541524E+02  0.24152595425E+02  0.11386483774E+03  0.00000000000E+00 0.  1.
         22    1    1    2    0    0  0.66272870209E+03 -0.44257517754E+03  0.48236706991E+03  0.93153642467E+03  0.00000000000E+00 0. -1.
<mgrwt>
<rscale>  0 0.16340381E+04</rscale>
<asrwt>0</asrwt>
<pdfrwt beam="1">  1        1 0.18056047E+00 0.16340381E+04</pdfrwt>
<pdfrwt beam="2">  1       -1 0.87501392E-01 0.16340381E+04</pdfrwt>
<totfact> 0.13741093E+01</totfact>
</mgrwt>
</event>
<event>
 6    1  0.1762360E-005  0.1479521E+04  0.7818608E-02  0.8898187E-01
         -1   -1    0    0    0  501 -0.00000000000E+00  0.00000000000E+00  0.43237700986E+03  0.43237700986E+03  0.00000000000E+00 0.  1.
          1   -1    0    0  501    0  0.00000000000E+00 -0.00000000000E+00 -0.12656670431E+04  0.12656670431E+04  0.00000000000E+00 0. -1.
         23    2    1    2    0    0 -0.61246758207E+03 -0.28792558342E+03 -0.82886655499E+02  0.68753778876E+03  0.88432644622E+02 0.  0.
         11    1    3    3    0    0 -0.22098865570E+03 -0.10415755176E+03 -0.72928793312E+02  0.25495762478E+03  0.00000000000E+00 0.  1.
        -11    1    3    3    0    0 -0.39147892637E+03 -0.18376803166E+03 -0.99578621874E+01  0.43258016398E+03  0.00000000000E+00 0. -1.
         22    1    1    2    0    0  0.61246758207E+03  0.28792558342E+03 -0.75040337777E+03  0.10105062642E+04  0.00000000000E+00 0.  1.
<mgrwt>
<rscale>  0 0.14795206E+04</rscale>
<asrwt>0</asrwt>
<pdfrwt beam="1">  1        1 0.19471801E+00 0.14795206E+04</pdfrwt>
<pdfrwt beam="2">  1       -1 0.66519540E-01 0.14795206E+04</pdfrwt>
<totfact> 0.21243445E+01</totfact>
</mgrwt>
</event>
<event>
 6    1  0.1762360E-005  0.1403903E+04  0.7818608E-02  0.8950998E-01
         -2   -1    0    0    0  501 -0.00000000000E+00  0.00000000000E+00  0.19973191448E+03  0.19973191448E+03  0.00000000000E+00 0.  1.
          2   -1    0    0  501    0  0.00000000000E+00 -0.00000000000E+00 -0.24669854953E+04  0.24669854953E+04  0.00000000000E+00 0. -1.
         23    2    1    2    0    0 -0.27593011449E+03  0.28317536116E+03 -0.43189003618E+02  0.40778205062E+03  0.89973315628E+02 0.  0.
         13    1    3    3    0    0 -0.15252879422E+03  0.11101502361E+03  0.11550803321E+02  0.18900473430E+03  0.00000000000E+00 0.  1.
        -13    1    3    3    0    0 -0.12340132027E+03  0.17216033755E+03 -0.54739806939E+02  0.21877731632E+03  0.00000000000E+00 0. -1.
         22    1    1    2    0    0  0.27593011449E+03 -0.28317536116E+03 -0.22240645772E+04  0.22589353592E+04  0.00000000000E+00 0. -1.
<mgrwt>
<rscale>  0 0.14039028E+04</rscale>
<asrwt>0</asrwt>
<pdfrwt beam="1">  1        2 0.37953621E+00 0.14039028E+04</pdfrwt>
<pdfrwt beam="2">  1       -2 0.30727988E-01 0.14039028E+04</pdfrwt>
<totfact> 0.34821262E+01</totfact>
</mgrwt>
</event>
<event>
 6    1  0.1762360E-005  0.2230804E+04  0.7818608E-02  0.8505715E-01
         -2   -1    0    0    0  501 -0.00000000000E+00  0.00000000000E+00  0.49989777015E+03  0.49989777015E+03  0.00000000000E+00 0.  1.
          2   -1    0    0  501    0  0.00000000000E+00 -0.00000000000E+00 -0.24887515459E+04  0.24887515459E+04  0.00000000000E+00 0. -1.
         23    2    1    2    0    0  0.29348808031E+03  0.59993774942E+03  0.19760532538E+03  0.70245948198E+03  0.91328542855E+02 0.  0.
         11    1    3    3    0    0  0.18842848470E+03  0.47389167199E+03  0.14688952505E+03  0.53071192110E+03  0.00000000000E+00 0. -1.
        -11    1    3    3    0    0  0.10505959561E+03  0.12604607744E+03  0.50715800329E+02  0.17174756088E+03  0.00000000000E+00 0.  1.
         22    1    1    2    0    0 -0.29348808031E+03 -0.59993774942E+03 -0.21864591011E+04  0.22861898340E+04  0.00000000000E+00 0. -1.
<mgrwt>
<rscale>  0 0.22308038E+04</rscale>
<asrwt>0</asrwt>
<pdfrwt beam="1">  1        2 0.38288486E+00 0.22308038E+04</pdfrwt>
<pdfrwt beam="2">  1       -2 0.76907349E-01 0.22308038E+04</pdfrwt>
<totfact> 0.48652462E+00</totfact>
</mgrwt>
</event>
<event>
 6    1  0.1762360E-005  0.3421293E+04  0.7818608E-02  0.8132700E-01
          2   -1    0    0  501    0  0.00000000000E+00  0.00000000000E+00  0.12692533650E+04  0.12692533650E+04  0.00000000000E+00 0.  1.
         -2   -1    0    0    0  501 -0.00000000000E+00 -0.00000000000E+00 -0.23055370364E+04  0.23055370364E+04  0.00000000000E+00 0. -1.
         23    2    1    2    0    0 -0.76427960721E+03 -0.12663245535E+04 -0.14139489662E+04  0.20482478152E+04  0.91467156483E+02 0.  0.
         11    1    3    3    0    0 -0.58400592475E+02 -0.14447999464E+03 -0.16761224859E+03  0.22886450998E+03  0.00000000000E+00 0. -1.
        -11    1    3    3    0    0 -0.70587901474E+03 -0.11218445589E+04 -0.12463367176E+04  0.18193833052E+04  0.00000000000E+00 0.  1.
         22    1    1    2    0    0  0.76427960721E+03  0.12663245535E+04  0.37766529478E+03  0.15265425863E+04  0.00000000000E+00 0.  1.
<mgrwt>
<rscale>  0 0.34212925E+04</rscale>
<asrwt>0</asrwt>
<pdfrwt beam="1">  1        2 0.19526975E+00 0.34212925E+04</pdfrwt>
<pdfrwt beam="2">  1       -2 0.35469800E+00 0.34212925E+04</pdfrwt>
<totfact> 0.20696734E-01</totfact>
</mgrwt>
</event>
<event>
 6    1  0.1762360E-005  0.2662116E+04  0.7818608E-02  0.8347403E-01
         -2   -1    0    0    0  501 -0.00000000000E+00  0.00000000000E+00  0.68333562726E+03  0.68333562726E+03  0.00000000000E+00 0.  1.
          2   -1    0    0  501    0  0.00000000000E+00 -0.00000000000E+00 -0.25927453030E+04  0.25927453030E+04  0.00000000000E+00 0. -1.
         23    2    1    2    0    0 -0.88573422789E+03  0.49190008475E+03 -0.20151767642E+04  0.22574163668E+04  0.92197865146E+02 0.  0.
         11    1    3    3    0    0 -0.29896446472E+03  0.18182128222E+03 -0.79035305872E+03  0.86434755004E+03  0.00000000000E+00 0. -1.
        -11    1    3    3    0    0 -0.58676976317E+03  0.31007880253E+03 -0.12248237055E+04  0.13930688168E+04  0.00000000000E+00 0.  1.
         22    1    1    2    0    0  0.88573422789E+03 -0.49190008475E+03  0.10576708846E+03  0.10186645635E+04  0.00000000000E+00 0.  1.
<mgrwt>
<rscale>  0 0.26621159E+04</rscale>
<asrwt>0</asrwt>
<pdfrwt beam="1">  1        2 0.39888389E+00 0.26621159E+04</pdfrwt>
<pdfrwt beam="2">  1       -2 0.10512856E+00 0.26621159E+04</pdfrwt>
<totfact> 0.19817119E+00</totfact>
</mgrwt>
</event>
<event>
 6    1  0.1762360E-005  0.1942159E+04  0.7818608E-02  0.8634151E-01
          1   -1    0    0  501    0  0.00000000000E+00  0.00000000000E+00  0.84893873781E+03  0.84893873781E+03  0.00000000000E+00 0. -1.
         -1   -1    0    0    0  501 -0.00000000000E+00 -0.00000000000E+00 -0.11107927233E+04  0.11107927233E+04  0.00000000000E+00 0.  1.
         23    2    1    2    0    0 -0.84714140460E+03  0.18052280752E+03 -0.56950612148E+03  0.10405541767E+04  0.90436324718E+02 0.  0.
         11    1    3    3    0    0 -0.44461088651E+03  0.13498031886E+03 -0.27784551887E+03  0.54138402197E+03  0.00000000000E+00 0.  1.
        -11    1    3    3    0    0 -0.40253051808E+03  0.45542488665E+02 -0.29166060261E+03  0.49917015474E+03  0.00000000000E+00 0. -1.
         22    1    1    2    0    0  0.84714140460E+03 -0.18052280752E+03  0.30765213598E+03  0.91917728442E+03  0.00000000000E+00 0. -1.
<mgrwt>
<rscale>  0 0.19421586E+04</rscale>
<asrwt>0</asrwt>
<pdfrwt beam="1">  1        1 0.13060596E+00 0.19421586E+04</pdfrwt>
<pdfrwt beam="2">  1       -1 0.17089119E+00 0.19421586E+04</pdfrwt>
<totfact> 0.45348042E+00</totfact>
</mgrwt>
</event>
<event>
 6    1  0.1762360E-005  0.2286467E+04  0.7818608E-02  0.8483276E-01
          1   -1    0    0  501    0  0.00000000000E+00  0.00000000000E+00  0.18344407509E+04  0.18344407509E+04  0.00000000000E+00 0. -1.
         -1   -1    0    0    0  501 -0.00000000000E+00 -0.00000000000E+00 -0.71246937614E+03  0.71246937614E+03  0.00000000000E+00 0.  1.
         23    2    1    2    0    0  0.23468146120E+03  0.78877948907E+03  0.14427639796E+04  0.16636455201E+04  0.94340049829E+02 0.  0.
         11    1    3    3    0    0  0.72689677774E+02  0.24617829561E+03  0.54139484997E+03  0.59916268747E+03  0.00000000000E+00 0.  1.
        -11    1    3    3    0    0  0.16199178343E+03  0.54260119346E+03  0.90136912961E+03  0.10644828326E+04  0.00000000000E+00 0. -1.
         22    1    1    2    0    0 -0.23468146120E+03 -0.78877948907E+03 -0.32079260483E+03  0.88326460697E+03  0.00000000000E+00 0.  1.
<mgrwt>
<rscale>  0 0.22864670E+04</rscale>
<asrwt>0</asrwt>
<pdfrwt beam="1">  1        1 0.28222165E+00 0.22864670E+04</pdfrwt>
<pdfrwt beam="2">  1       -1 0.10961067E+00 0.22864670E+04</pdfrwt>
<totfact> 0.26880883E+00</totfact>
</mgrwt>
</event>
<event>
 6    1  0.1762360E-005  0.1912106E+04  0.7818608E-02  0.8648854E-01
         -2   -1    0    0    0  501 -0.00000000000E+00  0.00000000000E+00  0.78692046455E+03  0.78692046455E+03  0.00000000000E+00 0.  1.
          2   -1    0    0  501    0  0.00000000000E+00 -0.00000000000E+00 -0.11615370786E+04  0.11615370786E+04  0.00000000000E+00 0. -1.
         23    2    1    2    0    0 -0.59778004144E+03 -0.38938134383E+03 -0.83186443992E+03  0.11010884481E+04  0.10695099499E+03 0.  0.
         13    1    3    3    0    0 -0.29039968407E+03 -0.14787413835E+03 -0.44048045256E+03  0.54792496420E+03  0.00000000000E+00 0. -1.
        -13    1    3    3    0    0 -0.30738035737E+03 -0.24150720548E+03 -0.39138398737E+03  0.55316348393E+03  0.00000000000E+00 0.  1.
         22    1    1    2    0    0  0.59778004144E+03  0.38938134383E+03  0.45724782590E+03  0.84736909500E+03  0.00000000000E+00 0.  1.
<mgrwt>
<rscale>  0 0.19121060E+04</rscale>
<asrwt>0</asrwt>
<pdfrwt beam="1">  1        2 0.17869801E+00 0.19121060E+04</pdfrwt>
<pdfrwt beam="2">  1       -2 0.12106469E+00 0.19121060E+04</pdfrwt>
<totfact> 0.97111635E+00</totfact>
</mgrwt>
</event>
<event>
 6    1  0.1762360E-005  0.1443061E+04  0.7818608E-02  0.8923225E-01
         -1   -1    0    0    0  501 -0.00000000000E+00  0.00000000000E+00  0.10321357172E+04  0.10321357172E+04  0.00000000000E+00 0.  1.
          1   -1    0    0  501    0  0.00000000000E+00 -0.00000000000E+00 -0.50439712219E+03  0.50439712219E+03  0.00000000000E+00 0. -1.
         23    2    1    2    0    0 -0.60091827128E+03 -0.14857116207E+03  0.65377861773E+03  0.90481910174E+03  0.89972034035E+02 0.  0.
         11    1    3    3    0    0 -0.14855486039E+03 -0.76522811882E+02  0.18823911223E+03  0.25171064868E+03  0.00000000000E+00 0. -1.
        -11    1    3    3    0    0 -0.45236341090E+03 -0.72048350192E+02  0.46553950550E+03  0.65310845306E+03  0.00000000000E+00 0.  1.
         22    1    1    2    0    0  0.60091827128E+03  0.14857116207E+03 -0.12604002275E+03  0.63171373762E+03  0.00000000000E+00 0. -1.
<mgrwt>
<rscale>  0 0.14430610E+04</rscale>
<asrwt>0</asrwt>
<pdfrwt beam="1">  1        1 0.77599558E-01 0.14430610E+04</pdfrwt>
<pdfrwt beam="2">  1       -1 0.15879011E+00 0.14430610E+04</pdfrwt>
<totfact> 0.12701303E+01</totfact>
</mgrwt>
</event>
<event>
 6    1  0.1762360E-005  0.1256880E+04  0.7818608E-02  0.9064476E-01
         -1   -1    0    0    0  501 -0.00000000000E+00  0.00000000000E+00  0.25567688313E+03  0.25567688313E+03  0.00000000000E+00 0.  1.
          1   -1    0    0  501    0  0.00000000000E+00 -0.00000000000E+00 -0.15446723036E+04  0.15446723036E+04  0.00000000000E+00 0. -1.
         23    2    1    2    0    0  0.11473368135E+03 -0.28095701170E+03  0.13519026553E+03  0.34418795655E+03  0.89934873575E+02 0.  0.
         13    1    3    3    0    0  0.21409912048E+02 -0.13504736250E+03  0.25267290253E+02  0.13904894969E+03  0.00000000000E+00 0.  1.
        -13    1    3    3    0    0  0.93323769297E+02 -0.14590964920E+03  0.10992297527E+03  0.20513900687E+03  0.00000000000E+00 0. -1.
         22    1    1    2    0    0 -0.11473368135E+03  0.28095701170E+03 -0.14241856860E+04  0.14561612301E+04  0.00000000000E+00 0. -1.
<mgrwt>
<rscale>  0 0.12568803E+04</rscale>
<asrwt>0</asrwt>
<pdfrwt beam="1">  1        1 0.23764189E+00 0.12568803E+04</pdfrwt>
<pdfrwt beam="2">  1       -1 0.39334905E-01 0.12568803E+04</pdfrwt>
<totfact> 0.37709510E+01</totfact>
</mgrwt>
</event>
<event>
 6    1  0.1762360E-005  0.2791838E+04  0.7818608E-02  0.8305807E-01
         -2   -1    0    0    0  501 -0.00000000000E+00  0.00000000000E+00  0.14533405952E+04  0.14533405952E+04  0.00000000000E+00 0. -1.
          2   -1    0    0  501    0  0.00000000000E+00 -0.00000000000E+00 -0.13407662253E+04  0.13407662253E+04  0.00000000000E+00 0.  1.
         23    2    1    2    0    0  0.66980833869E+03 -0.31415174556E+03  0.12392926981E+04  0.14462089309E+04  0.91320042812E+02 0.  0.
         11    1    3    3    0    0  0.44339706975E+03 -0.23240955917E+03  0.76346936595E+03  0.91296256079E+03  0.00000000000E+00 0. -1.
        -11    1    3    3    0    0  0.22641126894E+03 -0.81742186390E+02  0.47582333219E+03  0.53324637007E+03  0.00000000000E+00 0.  1.
         22    1    1    2    0    0 -0.66980833869E+03  0.31415174556E+03 -0.11267183282E+04  0.13478978897E+04  0.00000000000E+00 0.  1.
<mgrwt>
<rscale>  0 0.27918381E+04</rscale>
<asrwt>0</asrwt>
<pdfrwt beam="1">  1        2 0.20627173E+00 0.27918381E+04</pdfrwt>
<pdfrwt beam="2">  1       -2 0.22359086E+00 0.27918381E+04</pdfrwt>
<totfact> 0.12785486E+00</totfact>
</mgrwt>
</event>
<event>
 6    1  0.1762360E-005  0.1193909E+04  0.7818608E-02  0.9118205E-01
         -2   -1    0    0    0  501 -0.00000000000E+00  0.00000000000E+00  0.37776491457E+03  0.37776491457E+03  0.00000000000E+00 0.  1.
          2   -1    0    0  501    0  0.00000000000E+00 -0.00000000000E+00 -0.94332318336E+03  0.94332318336E+03  0.00000000000E+00 0. -1.
         23    2    1    2    0    0  0.57496176650E+03 -0.35218689517E+01 -0.45394610993E+03  0.73538278763E+03  0.64244354881E+02 0.  0.
         11    1    3    3    0    0  0.24960887938E+03  0.22589057399E+02 -0.17089605488E+03  0.30334851203E+03  0.00000000000E+00 0. -1.
        -11    1    3    3    0    0  0.32535288712E+03 -0.26110926351E+02 -0.28305005505E+03  0.43203427561E+03  0.00000000000E+00 0.  1.
         22    1    1    2    0    0 -0.57496176650E+03  0.35218689517E+01 -0.11161215887E+03  0.58570531029E+03  0.00000000000E+00 0. -1.
<mgrwt>
<rscale>  0 0.11939085E+04</rscale>
<asrwt>0</asrwt>
<pdfrwt beam="1">  1        2 0.14512664E+00 0.11939085E+04</pdfrwt>
<pdfrwt beam="2">  1       -2 0.58117680E-01 0.11939085E+04</pdfrwt>
<totfact> 0.75009019E+01</totfact>
</mgrwt>
</event>
<event>
 6    1  0.1762360E-005  0.4542459E+04  0.7818608E-02  0.7903245E-01
          2   -1    0    0  501    0  0.00000000000E+00  0.00000000000E+00  0.33169924011E+04  0.33169924011E+04  0.00000000000E+00 0.  1.
         -2   -1    0    0    0  501 -0.00000000000E+00 -0.00000000000E+00 -0.15551686513E+04  0.15551686513E+04  0.00000000000E+00 0. -1.
         23    2    1    2    0    0 -0.10082424940E+04  0.17798259403E+04  0.19375943472E+04  0.28190588612E+04  0.92128735925E+02 0.  0.
         11    1    3    3    0    0 -0.59946437103E+03  0.10935747831E+04  0.11236924549E+04  0.16786744984E+04  0.00000000000E+00 0. -1.
        -11    1    3    3    0    0 -0.40877812296E+03  0.68625115720E+03  0.81390189230E+03  0.11403843628E+04  0.00000000000E+00 0.  1.
         22    1    1    2    0    0  0.10082424940E+04 -0.17798259403E+04 -0.17577059742E+03  0.20531021912E+04  0.00000000000E+00 0. -1.
<mgrwt>
<rscale>  0 0.45424586E+04</rscale>
<asrwt>0</asrwt>
<pdfrwt beam="1">  1        2 0.51030652E+00 0.45424586E+04</pdfrwt>
<pdfrwt beam="2">  1       -2 0.23925672E+00 0.45424586E+04</pdfrwt>
<totfact> 0.61261538E-02</totfact>
</mgrwt>
</event>
<event>
 6    1  0.1762360E-005  0.2604980E+04  0.7818608E-02  0.8366512E-01
         -2   -1    0    0    0  501 -0.00000000000E+00  0.00000000000E+00  0.11973401582E+04  0.11973401582E+04  0.00000000000E+00 0.  1.
          2   -1    0    0  501    0  0.00000000000E+00 -0.00000000000E+00 -0.14168735114E+04  0.14168735114E+04  0.00000000000E+00 0. -1.
         23    2    1    2    0    0 -0.81693061374E+03  0.26773075655E+03 -0.10897391147E+04  0.13909747506E+04  0.90686454967E+02 0.  0.
         13    1    3    3    0    0 -0.67974102995E+03  0.24520147081E+03 -0.95285981788E+03  0.11958735141E+04  0.00000000000E+00 0.  1.
        -13    1    3    3    0    0 -0.13718958379E+03  0.22529285748E+02 -0.13687929683E+03  0.19510123658E+03  0.00000000000E+00 0. -1.
         22    1    1    2    0    0  0.81693061374E+03 -0.26773075655E+03  0.87020576144E+03  0.12232389190E+04  0.00000000000E+00 0.  1.
<mgrwt>
<rscale>  0 0.26049795E+04</rscale>
<asrwt>0</asrwt>
<pdfrwt beam="1">  1        2 0.21798054E+00 0.26049795E+04</pdfrwt>
<pdfrwt beam="2">  1       -2 0.18420618E+00 0.26049795E+04</pdfrwt>
<totfact> 0.21232054E+00</totfact>
</mgrwt>
</event>
<event>
 6    1  0.1762360E-005  0.1697214E+04  0.7818608E-02  0.8762955E-01
         -2   -1    0    0    0  501 -0.00000000000E+00  0.00000000000E+00  0.19090888177E+03  0.19090888177E+03  0.00000000000E+00 0.  1.
          2   -1    0    0  501    0  0.00000000000E+00 -0.00000000000E+00 -0.37721330532E+04  0.37721330532E+04  0.00000000000E+00 0. -1.
         23    2    1    2    0    0  0.44163665737E+02 -0.31362554922E+03 -0.36278905387E+04  0.36429026460E+04  0.94013368783E+02 0.  0.
         13    1    3    3    0    0  0.43681940878E+01 -0.22410476735E+03 -0.28635523875E+04  0.28723116655E+04  0.00000000000E+00 0.  1.
        -13    1    3    3    0    0  0.39795471649E+02 -0.89520781871E+02 -0.76433815113E+03  0.77059098050E+03  0.00000000000E+00 0. -1.
         22    1    1    2    0    0 -0.44163665737E+02  0.31362554922E+03  0.46666367233E+02  0.32013928894E+03  0.00000000000E+00 0.  1.
<mgrwt>
<rscale>  0 0.16972138E+04</rscale>
<asrwt>0</asrwt>
<pdfrwt beam="1">  1        2 0.58032816E+00 0.16972138E+04</pdfrwt>
<pdfrwt beam="2">  1       -2 0.29370597E-01 0.16972138E+04</pdfrwt>
<totfact> 0.53073534E+00</totfact>
</mgrwt>
</event>
<event>
 6    1  0.1762360E-005  0.2386293E+04  0.7818608E-02  0.8444653E-01
         -2   -1    0    0    0  501 -0.00000000000E+00  0.00000000000E+00  0.96456490453E+03  0.96456490453E+03  0.00000000000E+00 0.  1.
          2   -1    0    0  501    0  0.00000000000E+00 -0.00000000000E+00 -0.14758974494E+04  0.14758974494E+04  0.00000000000E+00 0. -1.
         23    2    1    2    0    0 -0.32900980772E+03  0.45540966876E+03 -0.13305075196E+04  0.14471381072E+04  0.91175772851E+02 0.  0.
         11    1    3    3    0    0 -0.66286451983E+02  0.47919604822E+02 -0.24446220546E+03  0.25778276153E+03  0.00000000000E+00 0. -1.
        -11    1    3    3    0    0 -0.26272335573E+03  0.40749006394E+03 -0.10860453142E+04  0.11893553457E+04  0.00000000000E+00 0.  1.
         22    1    1    2    0    0  0.32900980772E+03 -0.45540966876E+03  0.81917497473E+03  0.99332424676E+03  0.00000000000E+00 0.  1.
<mgrwt>
<rscale>  0 0.23862933E+04</rscale>
<asrwt>0</asrwt>
<pdfrwt beam="1">  1        2 0.22706115E+00 0.23862933E+04</pdfrwt>
<pdfrwt beam="2">  1       -2 0.14839460E+00 0.23862933E+04</pdfrwt>
<totfact> 0.36359549E+00</totfact>
</mgrwt>
</event>
<event>
 6    1  0.1762360E-005  0.2265873E+04  0.7818608E-02  0.8491500E-01
         -1   -1    0    0    0  501 -0.00000000000E+00  0.00000000000E+00  0.13632882106E+04  0.13632882106E+04  0.00000000000E+00 0.  1.
          1   -1    0    0  501    0  0.00000000000E+00 -0.00000000000E+00 -0.94150688630E+03  0.94150688630E+03  0.00000000000E+00 0. -1.
         23    2    1    2    0    0 -0.88494770633E+03  0.70133954440E+03  0.27908007143E+03  0.11666504457E+04  0.90432166820E+02 0.  0.
         11    1    3    3    0    0 -0.54948561524E+03  0.48010178768E+03  0.20612650471E+03  0.75823499249E+03  0.00000000000E+00 0.  1.
        -11    1    3    3    0    0 -0.33546209109E+03  0.22123775672E+03  0.72953566715E+02  0.40841545325E+03  0.00000000000E+00 0. -1.
         22    1    1    2    0    0  0.88494770633E+03 -0.70133954440E+03  0.14270125292E+03  0.11381446512E+04  0.00000000000E+00 0.  1.
<mgrwt>
<rscale>  0 0.22658731E+04</rscale>
<asrwt>0</asrwt>
<pdfrwt beam="1">  1        1 0.14484721E+00 0.22658731E+04</pdfrwt>
<pdfrwt beam="2">  1       -1 0.20973665E+00 0.22658731E+04</pdfrwt>
<totfact> 0.19702533E+00</totfact>
</mgrwt>
</event>
<event>
 6    1  0.1762360E-005  0.2102603E+04  0.7818608E-02  0.8560098E-01
          2   -1    0    0  501    0  0.00000000000E+00  0.00000000000E+00  0.66081686951E+03  0.66081686951E+03  0.00000000000E+00 0. -1.
         -2   -1    0    0    0  501 -0.00000000000E+00 -0.00000000000E+00 -0.16725276476E+04  0.16725276476E+04  0.00000000000E+00 0.  1.
         23    2    1    2    0    0  0.66430754195E+03 -0.11361238971E+03  0.38547337727E+03  0.78210763986E+03  0.94288654429E+02 0.  0.
         13    1    3    3    0    0  0.35631590660E+03 -0.59330405369E+02  0.15232197451E+03  0.39202436942E+03  0.00000000000E+00 0.  1.
        -13    1    3    3    0    0  0.30799163534E+03 -0.54281984337E+02  0.23315140276E+03  0.39008327044E+03  0.00000000000E+00 0. -1.
         22    1    1    2    0    0 -0.66430754195E+03  0.11361238971E+03 -0.13971841554E+04  0.15512368773E+04  0.00000000000E+00 0.  1.
<mgrwt>
<rscale>  0 0.21026027E+04</rscale>
<asrwt>0</asrwt>
<pdfrwt beam="1">  1        2 0.10166414E+00 0.21026027E+04</pdfrwt>
<pdfrwt beam="2">  1       -2 0.25731194E+00 0.21026027E+04</pdfrwt>
<totfact> 0.23516402E+00</totfact>
</mgrwt>
</event>
<event>
 6    1  0.1762360E-005  0.3393172E+04  0.7818608E-02  0.8139584E-01
          2   -1    0    0  501    0  0.00000000000E+00  0.00000000000E+00  0.97688180314E+03  0.97688180314E+03  0.00000000000E+00 0. -1.
         -2   -1    0    0    0  501 -0.00000000000E+00 -0.00000000000E+00 -0.29465221120E+04  0.29465221120E+04  0.00000000000E+00 0.  1.
         23    2    1    2    0    0  0.26351289594E+03  0.44386281568E+03 -0.28527477374E+04  0.29005002170E+04  0.90986868232E+02 0.  0.
         11    1    3    3    0    0  0.20157140021E+03  0.39791561834E+03 -0.24910867860E+04  0.25307076568E+04  0.00000000000E+00 0.  1.
        -11    1    3    3    0    0  0.61941495735E+02  0.45947197339E+02 -0.36166095134E+03  0.36979256018E+03  0.00000000000E+00 0. -1.
         22    1    1    2    0    0 -0.26351289594E+03 -0.44386281568E+03  0.88310742849E+03  0.10229036982E+04  0.00000000000E+00 0. -1.
<mgrwt>
<rscale>  0 0.33931719E+04</rscale>
<asrwt>0</asrwt>
<pdfrwt beam="1">  1        2 0.15028951E+00 0.33931719E+04</pdfrwt>
<pdfrwt beam="2">  1       -2 0.45331109E+00 0.33931719E+04</pdfrwt>
<totfact> 0.71229733E-02</totfact>
</mgrwt>
</event>
<event>
 6    1  0.1762360E-005  0.1135529E+04  0.7818608E-02  0.9171238E-01
         -2   -1    0    0    0  501 -0.00000000000E+00  0.00000000000E+00  0.16520914697E+03  0.16520914697E+03  0.00000000000E+00 0.  1.
          2   -1    0    0  501    0  0.00000000000E+00 -0.00000000000E+00 -0.19512024211E+04  0.19512024211E+04  0.00000000000E+00 0. -1.
         23    2    1    2    0    0 -0.77094341040E+02 -0.55636438206E+03 -0.79551149699E+03  0.97775489731E+03  0.87642651247E+02 0.  0.
         11    1    3    3    0    0 -0.17629579494E+02 -0.84923560355E+02 -0.75010510016E+02  0.11467078874E+03  0.00000000000E+00 0.  1.
        -11    1    3    3    0    0 -0.59464761547E+02 -0.47144082171E+03 -0.72050098698E+03  0.86308410857E+03  0.00000000000E+00 0. -1.
         22    1    1    2    0    0  0.77094341040E+02  0.55636438206E+03 -0.99048177714E+03  0.11386566708E+04  0.00000000000E+00 0. -1.
<mgrwt>
<rscale>  0 0.11355289E+04</rscale>
<asrwt>0</asrwt>
<pdfrwt beam="1">  1        2 0.30018500E+00 0.11355289E+04</pdfrwt>
<pdfrwt beam="2">  1       -2 0.25416791E-01 0.11355289E+04</pdfrwt>
<totfact> 0.98234696E+01</totfact>
</mgrwt>
</event>
<event>
 6    1  0.1762360E-005  0.1576365E+04  0.7818608E-02  0.8835201E-01
          1   -1    0    0  501    0  0.00000000000E+00  0.00000000000E+00  0.12663036673E+04  0.12663036673E+04  0.00000000000E+00 0. -1.
         -1   -1    0    0    0  501 -0.00000000000E+00 -0.00000000000E+00 -0.49058638445E+03  0.49058638445E+03  0.00000000000E+00 0.  1.
         23    2    1    2    0    0  0.53112668355E+01  0.63088632717E+03  0.91119481581E+03  0.11115994743E+04  0.85624947275E+02 0.  0.
         13    1    3    3    0    0 -0.25087933611E+02  0.19753463602E+03  0.23671540453E+03  0.30932752801E+03  0.00000000000E+00 0. -1.
        -13    1    3    3    0    0  0.30399200447E+02  0.43335169115E+03  0.67447941128E+03  0.80227194632E+03  0.00000000000E+00 0.  1.
         22    1    1    2    0    0 -0.53112668355E+01 -0.63088632717E+03 -0.13547753297E+03  0.64529057741E+03  0.00000000000E+00 0.  1.
<mgrwt>
<rscale>  0 0.15763646E+04</rscale>
<asrwt>0</asrwt>
<pdfrwt beam="1">  1        1 0.19481595E+00 0.15763646E+04</pdfrwt>
<pdfrwt beam="2">  1       -1 0.75474829E-01 0.15763646E+04</pdfrwt>
<totfact> 0.16223818E+01</totfact>
</mgrwt>
</event>
<event>
 6    1  0.1762360E-005  0.1485760E+04  0.7818608E-02  0.8893978E-01
         -2   -1    0    0    0  501 -0.00000000000E+00  0.00000000000E+00  0.54827163757E+03  0.54827163757E+03  0.00000000000E+00 0.  1.
          2   -1    0    0  501    0  0.00000000000E+00 -0.00000000000E+00 -0.10065641552E+04  0.10065641552E+04  0.00000000000E+00 0. -1.
         23    2    1    2    0    0  0.16459932248E+03  0.71946014410E+02 -0.98131566281E+03  0.10018236986E+04  0.91657662164E+02 0.  0.
         11    1    3    3    0    0  0.29364428078E+02  0.53110540739E+02 -0.40703645857E+03  0.41153575517E+03  0.00000000000E+00 0.  1.
        -11    1    3    3    0    0  0.13523489440E+03  0.18835473671E+02 -0.57427920424E+03  0.59028794342E+03  0.00000000000E+00 0. -1.
         22    1    1    2    0    0 -0.16459932248E+03 -0.71946014410E+02  0.52302314516E+03  0.55301209420E+03  0.00000000000E+00 0.  1.
<mgrwt>
<rscale>  0 0.14857598E+04</rscale>
<asrwt>0</asrwt>
<pdfrwt beam="1">  1        2 0.15485602E+00 0.14857598E+04</pdfrwt>
<pdfrwt beam="2">  1       -2 0.84349484E-01 0.14857598E+04</pdfrwt>
<totfact> 0.29591569E+01</totfact>
</mgrwt>
</event>
<event>
 6    1  0.1762360E-005  0.2943042E+04  0.7818608E-02  0.8260185E-01
         -2   -1    0    0    0  501 -0.00000000000E+00  0.00000000000E+00  0.10575079563E+04  0.10575079563E+04  0.00000000000E+00 0.  1.
          2   -1    0    0  501    0  0.00000000000E+00 -0.00000000000E+00 -0.20476191652E+04  0.20476191652E+04  0.00000000000E+00 0. -1.
         23    2    1    2    0    0 -0.12493434560E+04 -0.66312395175E+03 -0.91851172860E+03  0.16888930547E+04  0.90019488303E+02 0.  0.
         11    1    3    3    0    0 -0.80698776765E+03 -0.43595704816E+03 -0.54447145746E+03  0.10666475392E+04  0.00000000000E+00 0. -1.
        -11    1    3    3    0    0 -0.44235568836E+03 -0.22716690359E+03 -0.37404027114E+03  0.62224551549E+03  0.00000000000E+00 0.  1.
         22    1    1    2    0    0  0.12493434560E+04  0.66312395175E+03 -0.71599480292E+02  0.14162340668E+04  0.00000000000E+00 0. -1.
<mgrwt>
<rscale>  0 0.29430417E+04</rscale>
<asrwt>0</asrwt>
<pdfrwt beam="1">  1        2 0.31501833E+00 0.29430417E+04</pdfrwt>
<pdfrwt beam="2">  1       -2 0.16269354E+00 0.29430417E+04</pdfrwt>
<totfact> 0.13009291E+00</totfact>
</mgrwt>
</event>
<event>
 6    1  0.1762360E-005  0.3595832E+04  0.7818608E-02  0.8091447E-01
          2   -1    0    0  501    0  0.00000000000E+00  0.00000000000E+00  0.25070587466E+04  0.25070587466E+04  0.00000000000E+00 0. -1.
         -2   -1    0    0    0  501 -0.00000000000E+00 -0.00000000000E+00 -0.12893602145E+04  0.12893602145E+04  0.00000000000E+00 0.  1.
         23    2    1    2    0    0  0.11127288017E+04  0.23232127699E+03 -0.85988320785E+03  0.14281950595E+04  0.90572815959E+02 0.  0.
         13    1    3    3    0    0  0.40537483327E+03  0.11025501660E+03 -0.36277495255E+03  0.55505908725E+03  0.00000000000E+00 0.  1.
        -13    1    3    3    0    0  0.70735396840E+03  0.12206626039E+03 -0.49710825530E+03  0.87313597224E+03  0.00000000000E+00 0. -1.
         22    1    1    2    0    0 -0.11127288017E+04 -0.23232127699E+03  0.20775817400E+04  0.23682239016E+04  0.00000000000E+00 0. -1.
<mgrwt>
<rscale>  0 0.35958319E+04</rscale>
<asrwt>0</asrwt>
<pdfrwt beam="1">  1        2 0.38570135E+00 0.35958319E+04</pdfrwt>
<pdfrwt beam="2">  1       -2 0.19836311E+00 0.35958319E+04</pdfrwt>
<totfact> 0.38329507E-01</totfact>
</mgrwt>
</event>
<event>
 6    1  0.1762360E-005  0.2065337E+04  0.7818608E-02  0.8576668E-01
         -2   -1    0    0    0  501 -0.00000000000E+00  0.00000000000E+00  0.38694124398E+03  0.38694124398E+03  0.00000000000E+00 0.  1.
          2   -1    0    0  501    0  0.00000000000E+00 -0.00000000000E+00 -0.27559846776E+04  0.27559846776E+04  0.00000000000E+00 0. -1.
         23    2    1    2    0    0  0.67092016454E+03  0.10667800890E+03 -0.23663435234E+04  0.24635722918E+04  0.89959442132E+02 0.  0.
         11    1    3    3    0    0  0.16492778616E+03  0.54708305506E+02 -0.50930282290E+03  0.53812966724E+03  0.00000000000E+00 0.  1.
        -11    1    3    3    0    0  0.50599237837E+03  0.51969703398E+02 -0.18570407005E+04  0.19254426245E+04  0.00000000000E+00 0. -1.
         22    1    1    2    0    0 -0.67092016454E+03 -0.10667800890E+03 -0.26999101763E+01  0.67935362977E+03  0.00000000000E+00 0.  1.
<mgrwt>
<rscale>  0 0.20653369E+04</rscale>
<asrwt>0</asrwt>
<pdfrwt beam="1">  1        2 0.42399766E+00 0.20653369E+04</pdfrwt>
<pdfrwt beam="2">  1       -2 0.59529420E-01 0.20653369E+04</pdfrwt>
<totfact> 0.59890211E+00</totfact>
</mgrwt>
</event>
<event>
 6    1  0.1762360E-005  0.2098567E+04  0.7818608E-02  0.8561875E-01
          1   -1    0    0  501    0  0.00000000000E+00  0.00000000000E+00  0.13955703296E+04  0.13955703296E+04  0.00000000000E+00 0. -1.
         -1   -1    0    0    0  501 -0.00000000000E+00 -0.00000000000E+00 -0.78892165615E+03  0.78892165615E+03  0.00000000000E+00 0.  1.
         23    2    1    2    0    0  0.96277785915E+03  0.88291757903E+02  0.72301485167E+03  0.12106964590E+04  0.91097746633E+02 0.  0.
         11    1    3    3    0    0  0.42719019908E+03 -0.40882773369E+01  0.30111581976E+03  0.52266520557E+03  0.00000000000E+00 0.  1.
        -11    1    3    3    0    0  0.53558766007E+03  0.92380035240E+02  0.42189903191E+03  0.68803125340E+03  0.00000000000E+00 0. -1.
         22    1    1    2    0    0 -0.96277785915E+03 -0.88291757903E+02 -0.11636617820E+03  0.97379552680E+03  0.00000000000E+00 0.  1.
<mgrwt>
<rscale>  0 0.20985668E+04</rscale>
<asrwt>0</asrwt>
<pdfrwt beam="1">  1        1 0.21470313E+00 0.20985668E+04</pdfrwt>
<pdfrwt beam="2">  1       -1 0.12137256E+00 0.20985668E+04</pdfrwt>
<totfact> 0.42849212E+00</totfact>
</mgrwt>
</event>
<event>
 6    1  0.1762360E-005  0.2813597E+04  0.7818608E-02  0.8299059E-01
          2   -1    0    0  501    0  0.00000000000E+00  0.00000000000E+00  0.12050565272E+04  0.12050565272E+04  0.00000000000E+00 0. -1.
         -2   -1    0    0    0  501 -0.00000000000E+00 -0.00000000000E+00 -0.16423146305E+04  0.16423146305E+04  0.00000000000E+00 0.  1.
         23    2    1    2    0    0  0.31422244268E+03 -0.12532301975E+04  0.34175342587E+03  0.13386695192E+04  0.76935077108E+02 0.  0.
         13    1    3    3    0    0  0.78050352824E+02 -0.41788746916E+03  0.86401694922E+02  0.43380531042E+03  0.00000000000E+00 0.  1.
        -13    1    3    3    0    0  0.23617208985E+03 -0.83534272833E+03  0.25535173095E+03  0.90486420876E+03  0.00000000000E+00 0. -1.
         22    1    1    2    0    0 -0.31422244268E+03  0.12532301975E+04 -0.77901152916E+03  0.15087016385E+04  0.00000000000E+00 0. -1.
<mgrwt>
<rscale>  0 0.28135970E+04</rscale>
<asrwt>0</asrwt>
<pdfrwt beam="1">  1        2 0.18539331E+00 0.28135970E+04</pdfrwt>
<pdfrwt beam="2">  1       -2 0.25266379E+00 0.28135970E+04</pdfrwt>
<totfact> 0.10116952E+00</totfact>
</mgrwt>
</event>
<event>
 6    1  0.1762360E-005  0.3015399E+04  0.7818608E-02  0.8239347E-01
          2   -1    0    0  501    0  0.00000000000E+00  0.00000000000E+00  0.29664939495E+04  0.29664939495E+04  0.00000000000E+00 0.  1.
         -2   -1    0    0    0  501 -0.00000000000E+00 -0.00000000000E+00 -0.76627778055E+03  0.76627778055E+03  0.00000000000E+00 0. -1.
         23    2    1    2    0    0  0.28124914259E+01  0.59211933734E+03 -0.61318897357E+03  0.85773056240E+03  0.95329851577E+02 0.  0.
         11    1    3    3    0    0  0.48821870494E+02  0.29683681244E+03 -0.31462404721E+03  0.43529755264E+03  0.00000000000E+00 0. -1.
        -11    1    3    3    0    0 -0.46009379068E+02  0.29528252491E+03 -0.29856492636E+03  0.42243300976E+03  0.00000000000E+00 0.  1.
         22    1    1    2    0    0 -0.28124914259E+01 -0.59211933734E+03  0.28134051425E+04  0.28750411677E+04  0.00000000000E+00 0.  1.
<mgrwt>
<rscale>  0 0.30153994E+04</rscale>
<asrwt>0</asrwt>
<pdfrwt beam="1">  1        2 0.45638368E+00 0.30153994E+04</pdfrwt>
<pdfrwt beam="2">  1       -2 0.11788889E+00 0.30153994E+04</pdfrwt>
<totfact> 0.86629839E-01</totfact>
</mgrwt>
</event>
<event>
 6    1  0.1762360E-005  0.2612338E+04  0.7818608E-02  0.8364022E-01
          1   -1    0    0  501    0  0.00000000000E+00  0.00000000000E+00  0.38254070253E+04  0.38254070253E+04  0.00000000000E+00 0. -1.
         -1   -1    0    0    0  501 -0.00000000000E+00 -0.00000000000E+00 -0.44598583947E+03  0.44598583947E+03  0.00000000000E+00 0.  1.
         23    2    1    2    0    0  0.47004651573E+03 -0.38076764662E+02  0.36799740284E+04  0.37121741436E+04  0.12503781686E+03 0.  0.
         11    1    3    3    0    0  0.34373646293E+03 -0.82907077865E+02  0.26137221984E+04  0.26375314349E+04  0.00000000000E+00 0.  1.
        -11    1    3    3    0    0  0.12631005280E+03  0.44830313203E+02  0.10662518300E+04  0.10746427087E+04  0.00000000000E+00 0. -1.
         22    1    1    2    0    0 -0.47004651573E+03  0.38076764662E+02 -0.30055284257E+03  0.55921872119E+03  0.00000000000E+00 0.  1.
<mgrwt>
<rscale>  0 0.26123379E+04</rscale>
<asrwt>0</asrwt>
<pdfrwt beam="1">  1        1 0.58852414E+00 0.26123379E+04</pdfrwt>
<pdfrwt beam="2">  1       -1 0.68613209E-01 0.26123379E+04</pdfrwt>
<totfact> 0.25690293E-01</totfact>
</mgrwt>
</event>
<event>
 6    1  0.1762360E-005  0.2181245E+04  0.7818608E-02  0.8526275E-01
          2   -1    0    0  501    0  0.00000000000E+00  0.00000000000E+00  0.16094873729E+04  0.16094873729E+04  0.00000000000E+00 0.  1.
         -2   -1    0    0    0  501 -0.00000000000E+00 -0.00000000000E+00 -0.73902865119E+03  0.73902865119E+03  0.00000000000E+00 0. -1.
         23    2    1    2    0    0  0.25901616888E+03 -0.10162359684E+04  0.12104586013E+03  0.10595456767E+04  0.90332837349E+02 0.  0.
         13    1    3    3    0    0  0.97752372649E+02 -0.45280620538E+03  0.95222647521E+02  0.47292318467E+03  0.00000000000E+00 0. -1.
        -13    1    3    3    0    0  0.16126379623E+03 -0.56342976305E+03  0.25823212607E+02  0.58662249205E+03  0.00000000000E+00 0.  1.
         22    1    1    2    0    0 -0.25901616888E+03  0.10162359684E+04  0.74941286157E+03  0.12889703474E+04  0.00000000000E+00 0. -1.
<mgrwt>
<rscale>  0 0.21812449E+04</rscale>
<asrwt>0</asrwt>
<pdfrwt beam="1">  1        2 0.24761344E+00 0.21812449E+04</pdfrwt>
<pdfrwt beam="2">  1       -2 0.11369672E+00 0.21812449E+04</pdfrwt>
<totfact> 0.61150957E+00</totfact>
</mgrwt>
</event>
<event>
 6    1  0.1762360E-005  0.2102971E+04  0.7818608E-02  0.8559936E-01
          2   -1    0    0  501    0  0.00000000000E+00  0.00000000000E+00  0.19149410002E+04  0.19149410002E+04  0.00000000000E+00 0. -1.
         -2   -1    0    0    0  501 -0.00000000000E+00 -0.00000000000E+00 -0.57736584699E+03  0.57736584699E+03  0.00000000000E+00 0.  1.
         23    2    1    2    0    0  0.19487776297E+02  0.83359674289E+03 -0.85206212065E+02  0.84319492966E+03  0.91947200257E+02 0.  0.
         11    1    3    3    0    0  0.36356518487E+02  0.33527734966E+03  0.70106806125E+00  0.33724351606E+03  0.00000000000E+00 0. -1.
        -11    1    3    3    0    0 -0.16868742190E+02  0.49831939324E+03 -0.85907280126E+02  0.50595141359E+03  0.00000000000E+00 0.  1.
         22    1    1    2    0    0 -0.19487776297E+02 -0.83359674289E+03  0.14227813653E+04  0.16491119175E+04  0.00000000000E+00 0. -1.
<mgrwt>
<rscale>  0 0.21029708E+04</rscale>
<asrwt>0</asrwt>
<pdfrwt beam="1">  1        2 0.29460631E+00 0.21029708E+04</pdfrwt>
<pdfrwt beam="2">  1       -2 0.88825515E-01 0.21029708E+04</pdfrwt>
<totfact> 0.74761571E+00</totfact>
</mgrwt>
</event>
<event>
 6    1  0.1762360E-005  0.1340943E+04  0.7818608E-02  0.8997713E-01
          2   -1    0    0  501    0  0.00000000000E+00  0.00000000000E+00  0.37720754942E+03  0.37720754942E+03  0.00000000000E+00 0. -1.
         -2   -1    0    0    0  501 -0.00000000000E+00 -0.00000000000E+00 -0.11917361316E+04  0.11917361316E+04  0.00000000000E+00 0.  1.
         23    2    1    2    0    0 -0.55059847590E+03  0.46179144798E+02 -0.84696944351E+03  0.10154605245E+04  0.92258568777E+02 0.  0.
         11    1    3    3    0    0 -0.23358020345E+03 -0.23751862297E+02 -0.38168738036E+03  0.44811730466E+03  0.00000000000E+00 0. -1.
        -11    1    3    3    0    0 -0.31701827245E+03  0.69931007095E+02 -0.46528206315E+03  0.56734321985E+03  0.00000000000E+00 0.  1.
         22    1    1    2    0    0  0.55059847590E+03 -0.46179144798E+02  0.32440861318E+02  0.55348315653E+03  0.00000000000E+00 0. -1.
<mgrwt>
<rscale>  0 0.13409428E+04</rscale>
<asrwt>0</asrwt>
<pdfrwt beam="1">  1        2 0.58031932E-01 0.13409428E+04</pdfrwt>
<pdfrwt beam="2">  1       -2 0.18334402E+00 0.13409428E+04</pdfrwt>
<totfact> 0.14263333E+01</totfact>
</mgrwt>
</event>
<event>
 6    1  0.1762360E-005  0.1867664E+03  0.7818608E-02  0.1161411E+00
          1   -1    0    0  501    0  0.00000000000E+00  0.00000000000E+00  0.33134854329E+03  0.33134854329E+03  0.00000000000E+00 0. -1.
         -1   -1    0    0    0  501 -0.00000000000E+00 -0.00000000000E+00 -0.26317980990E+02  0.26317980990E+02  0.00000000000E+00 0.  1.
         23    2    1    2    0    0  0.35127627748E+02  0.23466813250E+02  0.65801019475E+02  0.11473563757E+03  0.83963389702E+02 0.  0.
         13    1    3    3    0    0 -0.68067802363E+01 -0.18554813168E+02 -0.68470366210E+01  0.20916387341E+02  0.00000000000E+00 0.  1.
        -13    1    3    3    0    0  0.41934407984E+02  0.42021626418E+02  0.72648056096E+02  0.93819250234E+02  0.00000000000E+00 0. -1.
         22    1    1    2    0    0 -0.35127627748E+02 -0.23466813250E+02  0.23922954282E+03  0.24293088670E+03  0.00000000000E+00 0. -1.
<mgrwt>
<rscale>  0 0.18676643E+03</rscale>
<asrwt>0</asrwt>
<pdfrwt beam="1">  1        1 0.50976696E-01 0.18676643E+03</pdfrwt>
<pdfrwt beam="2">  1       -1 0.40489204E-02 0.18676643E+03</pdfrwt>
<totfact> 0.17957977E+04</totfact>
</mgrwt>
</event>
<event>
 6    1  0.1762360E-005  0.1735741E+04  0.7818608E-02  0.8741239E-01
          1   -1    0    0  501    0  0.00000000000E+00  0.00000000000E+00  0.95388452844E+03  0.95388452844E+03  0.00000000000E+00 0. -1.
         -1   -1    0    0    0  501 -0.00000000000E+00 -0.00000000000E+00 -0.78961212577E+03  0.78961212577E+03  0.00000000000E+00 0.  1.
         23    2    1    2    0    0 -0.49872770409E+03  0.67955878199E+03 -0.11495785016E+03  0.85552199516E+03  0.90405286859E+02 0.  0.
         13    1    3    3    0    0 -0.44575660393E+03  0.57258384776E+03 -0.12252834457E+03  0.73591059775E+03  0.00000000000E+00 0. -1.
        -13    1    3    3    0    0 -0.52971100167E+02  0.10697493423E+03  0.75704944086E+01  0.11961139741E+03  0.00000000000E+00 0.  1.
         22    1    1    2    0    0  0.49872770409E+03 -0.67955878199E+03  0.27923025283E+03  0.88797465904E+03  0.00000000000E+00 0.  1.
<mgrwt>
<rscale>  0 0.17357405E+04</rscale>
<asrwt>0</asrwt>
<pdfrwt beam="1">  1        1 0.14675147E+00 0.17357405E+04</pdfrwt>
<pdfrwt beam="2">  1       -1 0.12147879E+00 0.17357405E+04</pdfrwt>
<totfact> 0.93808682E+00</totfact>
</mgrwt>
</event>
<event>
 6    1  0.1762360E-005  0.3692852E+04  0.7818608E-02  0.8069548E-01
          2   -1    0    0  501    0  0.00000000000E+00  0.00000000000E+00  0.32090078523E+04  0.32090078523E+04  0.00000000000E+00 0.  1.
         -2   -1    0    0    0  501 -0.00000000000E+00 -0.00000000000E+00 -0.10624123234E+04  0.10624123234E+04  0.00000000000E+00 0. -1.
         23    2    1    2    0    0  0.17954967084E+03  0.18343865153E+04  0.97912371276E+03  0.20896313653E+04  0.10326677131E+03 0.  0.
         11    1    3    3    0    0  0.17806641038E+03  0.17552570670E+04  0.95859302199E+03  0.20078684219E+04  0.00000000000E+00 0. -1.
        -11    1    3    3    0    0  0.14832604552E+01  0.79129448335E+02  0.20530690769E+02  0.81762943433E+02  0.00000000000E+00 0.  1.
         22    1    1    2    0    0 -0.17954967084E+03 -0.18343865153E+04  0.11674718161E+04  0.21817888105E+04  0.00000000000E+00 0.  1.
<mgrwt>
<rscale>  0 0.36928523E+04</rscale>
<asrwt>0</asrwt>
<pdfrwt beam="1">  1        2 0.49369351E+00 0.36928523E+04</pdfrwt>
<pdfrwt beam="2">  1       -2 0.16344805E+00 0.36928523E+04</pdfrwt>
<totfact> 0.24562121E-01</totfact>
</mgrwt>
</event>
<event>
 6    1  0.1762360E-005  0.1982768E+04  0.7818608E-02  0.8614720E-01
         -1   -1    0    0    0  501 -0.00000000000E+00  0.00000000000E+00  0.67199090798E+03  0.67199090798E+03  0.00000000000E+00 0.  1.
          1   -1    0    0  501    0  0.00000000000E+00 -0.00000000000E+00 -0.14625833634E+04  0.14625833634E+04  0.00000000000E+00 0. -1.
         23    2    1    2    0    0  0.69641442850E+03 -0.64149112529E+03 -0.70756670925E+03  0.11841021810E+04  0.70309366453E+02 0.  0.
         11    1    3    3    0    0  0.64186146744E+03 -0.56813670175E+03 -0.65363526214E+03  0.10779631307E+04  0.00000000000E+00 0. -1.
        -11    1    3    3    0    0  0.54552961065E+02 -0.73354423541E+02 -0.53931447105E+02  0.10613905031E+03  0.00000000000E+00 0.  1.
         22    1    1    2    0    0 -0.69641442850E+03  0.64149112529E+03 -0.83025746188E+02  0.95047209038E+03  0.00000000000E+00 0.  1.
<mgrwt>
<rscale>  0 0.19827685E+04</rscale>
<asrwt>0</asrwt>
<pdfrwt beam="1">  1        1 0.22501282E+00 0.19827685E+04</pdfrwt>
<pdfrwt beam="2">  1       -1 0.10338322E+00 0.19827685E+04</pdfrwt>
<totfact> 0.56954156E+00</totfact>
</mgrwt>
</event>
<event>
 6    1  0.1762360E-005  0.2766610E+04  0.7818608E-02  0.8313710E-01
         -2   -1    0    0    0  501 -0.00000000000E+00  0.00000000000E+00  0.56112471163E+03  0.56112471163E+03  0.00000000000E+00 0.  1.
          2   -1    0    0  501    0  0.00000000000E+00 -0.00000000000E+00 -0.34101732108E+04  0.34101732108E+04  0.00000000000E+00 0. -1.
         23    2    1    2    0    0  0.98679821653E+03 -0.96229225370E+03 -0.15653049187E+04  0.20877441849E+04  0.93376610820E+02 0.  0.
         11    1    3    3    0    0  0.49707589357E+03 -0.52125433837E+03 -0.75891430401E+03  0.10462989296E+04  0.00000000000E+00 0. -1.
        -11    1    3    3    0    0  0.48972232296E+03 -0.44103791533E+03 -0.80639061469E+03  0.10414452553E+04  0.00000000000E+00 0.  1.
         22    1    1    2    0    0 -0.98679821653E+03  0.96229225370E+03 -0.12837435804E+04  0.18835537375E+04  0.00000000000E+00 0.  1.
<mgrwt>
<rscale>  0 0.27666098E+04</rscale>
<asrwt>0</asrwt>
<pdfrwt beam="1">  1        2 0.52464202E+00 0.27666098E+04</pdfrwt>
<pdfrwt beam="2">  1       -2 0.86326880E-01 0.27666098E+04</pdfrwt>
<totfact> 0.95197297E-01</totfact>
</mgrwt>
</event>
<event>
 6    1  0.1762360E-005  0.2789207E+04  0.7818608E-02  0.8306627E-01
          1   -1    0    0  501    0  0.00000000000E+00  0.00000000000E+00  0.29055524870E+04  0.29055524870E+04  0.00000000000E+00 0. -1.
         -1   -1    0    0    0  501 -0.00000000000E+00 -0.00000000000E+00 -0.66938029829E+03  0.66938029829E+03  0.00000000000E+00 0.  1.
         23    2    1    2    0    0  0.35176705315E+03 -0.52411664563E+03 -0.47242790375E+03  0.79375447768E+03  0.91759079499E+02 0.  0.
         11    1    3    3    0    0  0.15904519992E+03 -0.23092386628E+03 -0.26697674866E+03  0.38716636212E+03  0.00000000000E+00 0. -1.
        -11    1    3    3    0    0  0.19272185323E+03 -0.29319277936E+03 -0.20545115510E+03  0.40658811556E+03  0.00000000000E+00 0.  1.
         22    1    1    2    0    0 -0.35176705315E+03  0.52411664563E+03  0.27086000925E+04  0.27811783076E+04  0.00000000000E+00 0. -1.
<mgrwt>
<rscale>  0 0.27892075E+04</rscale>
<asrwt>0</asrwt>
<pdfrwt beam="1">  1        1 0.44700807E+00 0.27892075E+04</pdfrwt>
<pdfrwt beam="2">  1       -1 0.10298159E+00 0.27892075E+04</pdfrwt>
<totfact> 0.53993544E-01</totfact>
</mgrwt>
</event>
<event>
 6    1  0.1762360E-005  0.2916152E+04  0.7818608E-02  0.8268088E-01
          2   -1    0    0  501    0  0.00000000000E+00  0.00000000000E+00  0.10811773148E+04  0.10811773148E+04  0.00000000000E+00 0.  1.
         -2   -1    0    0    0  501 -0.00000000000E+00 -0.00000000000E+00 -0.19663617515E+04  0.19663617515E+04  0.00000000000E+00 0. -1.
         23    2    1    2    0    0 -0.25670496897E+03  0.36644194292E+03  0.10060711468E+04  0.11040821410E+04  0.81492839365E+02 0.  0.
         13    1    3    3    0    0 -0.10353920719E+03  0.18092868464E+03  0.38074502211E+03  0.43407640826E+03  0.00000000000E+00 0.  1.
        -13    1    3    3    0    0 -0.15316576179E+03  0.18551325828E+03  0.62532612473E+03  0.67000573270E+03  0.00000000000E+00 0. -1.
         22    1    1    2    0    0  0.25670496897E+03 -0.36644194292E+03 -0.18912555835E+04  0.19434569254E+04  0.00000000000E+00 0. -1.
<mgrwt>
<rscale>  0 0.29161521E+04</rscale>
<asrwt>0</asrwt>
<pdfrwt beam="1">  1        2 0.16633497E+00 0.29161521E+04</pdfrwt>
<pdfrwt beam="2">  1       -2 0.30251719E+00 0.29161521E+04</pdfrwt>
<totfact> 0.59167331E-01</totfact>
</mgrwt>
</event>
<event>
 6    1  0.1762360E-005  0.8972489E+03  0.7818608E-02  0.9429027E-01
          2   -1    0    0  501    0  0.00000000000E+00  0.00000000000E+00  0.10038842945E+04  0.10038842945E+04  0.00000000000E+00 0. -1.
         -2   -1    0    0    0  501 -0.00000000000E+00 -0.00000000000E+00 -0.20048517143E+03  0.20048517143E+03  0.00000000000E+00 0.  1.
         23    2    1    2    0    0 -0.17328304637E+03 -0.20418362577E+03 -0.69989883586E+02  0.29084534246E+03  0.89299844546E+02 0.  0.
         13    1    3    3    0    0 -0.71344390841E+02 -0.11613596768E+03  0.55459024777E+01  0.13641239727E+03  0.00000000000E+00 0. -1.
        -13    1    3    3    0    0 -0.10193865553E+03 -0.88047658095E+02 -0.75535786064E+02  0.15443294520E+03  0.00000000000E+00 0.  1.
         22    1    1    2    0    0  0.17328304637E+03  0.20418362577E+03  0.87338900663E+03  0.91352412343E+03  0.00000000000E+00 0. -1.
<mgrwt>
<rscale>  0 0.89724894E+03</rscale>
<asrwt>0</asrwt>
<pdfrwt beam="1">  1        2 0.15444373E+00 0.89724894E+03</pdfrwt>
<pdfrwt beam="2">  1       -2 0.30843873E-01 0.89724894E+03</pdfrwt>
<totfact> 0.24412690E+02</totfact>
</mgrwt>
</event>
<event>
 6    1  0.1762360E-005  0.2783660E+04  0.7818608E-02  0.8308359E-01
          2   -1    0    0  501    0  0.00000000000E+00  0.00000000000E+00  0.30059196726E+04  0.30059196726E+04  0.00000000000E+00 0. -1.
         -2   -1    0    0    0  501 -0.00000000000E+00 -0.00000000000E+00 -0.64445856986E+03  0.64445856986E+03  0.00000000000E+00 0.  1.
         23    2    1    2    0    0  0.37652025099E+02 -0.99723904774E+03 -0.87383517746E+02  0.10059986614E+04  0.92163085217E+02 0.  0.
         11    1    3    3    0    0  0.11154788338E+02 -0.28417367497E+03 -0.66859579241E+02  0.29214604256E+03  0.00000000000E+00 0.  1.
        -11    1    3    3    0    0  0.26497236761E+02 -0.71306537277E+03 -0.20523938505E+02  0.71385261886E+03  0.00000000000E+00 0. -1.
         22    1    1    2    0    0 -0.37652025099E+02  0.99723904774E+03  0.24488446205E+04  0.26443795811E+04  0.00000000000E+00 0. -1.
<mgrwt>
<rscale>  0 0.27836600E+04</rscale>
<asrwt>0</asrwt>
<pdfrwt beam="1">  1        2 0.46244917E+00 0.27836600E+04</pdfrwt>
<pdfrwt beam="2">  1       -2 0.99147474E-01 0.27836600E+04</pdfrwt>
<totfact> 0.12674058E+00</totfact>
</mgrwt>
</event>
<event>
 6    1  0.1762360E-005  0.1655214E+04  0.7818608E-02  0.8787328E-01
         -2   -1    0    0    0  501 -0.00000000000E+00  0.00000000000E+00  0.17490082614E+03  0.17490082614E+03  0.00000000000E+00 0.  1.
          2   -1    0    0  501    0  0.00000000000E+00 -0.00000000000E+00 -0.39161233291E+04  0.39161233291E+04  0.00000000000E+00 0. -1.
         23    2    1    2    0    0 -0.29276621497E+03  0.44186624638E+03 -0.34388955588E+04  0.34808115550E+04  0.95334048464E+02 0.  0.
         13    1    3    3    0    0 -0.27941322145E+03  0.36050952734E+03 -0.29094346578E+04  0.29449701010E+04  0.00000000000E+00 0.  1.
        -13    1    3    3    0    0 -0.13352993519E+02  0.81356719039E+02 -0.52946090098E+03  0.53584145401E+03  0.00000000000E+00 0. -1.
         22    1    1    2    0    0  0.29276621497E+03 -0.44186624638E+03 -0.30232694415E+03  0.61021260023E+03  0.00000000000E+00 0.  1.
<mgrwt>
<rscale>  0 0.16552138E+04</rscale>
<asrwt>0</asrwt>
<pdfrwt beam="1">  1        2 0.60248053E+00 0.16552138E+04</pdfrwt>
<pdfrwt beam="2">  1       -2 0.26907818E-01 0.16552138E+04</pdfrwt>
<totfact> 0.48642399E+00</totfact>
</mgrwt>
</event>
<event>
 6    1  0.1762360E-005  0.4621355E+04  0.7818608E-02  0.7889729E-01
          2   -1    0    0  501    0  0.00000000000E+00  0.00000000000E+00  0.32153353576E+04  0.32153353576E+04  0.00000000000E+00 0. -1.
         -2   -1    0    0    0  501 -0.00000000000E+00 -0.00000000000E+00 -0.16605514319E+04  0.16605514319E+04  0.00000000000E+00 0.  1.
         23    2    1    2    0    0  0.10473123368E+04  0.82205091792E+03 -0.12137153080E+04  0.18038811174E+04  0.90837186113E+02 0.  0.
         13    1    3    3    0    0  0.80863734016E+03  0.64967619929E+03 -0.99242252820E+03  0.14355751413E+04  0.00000000000E+00 0. -1.
        -13    1    3    3    0    0  0.23867499663E+03  0.17237471864E+03 -0.22129277977E+03  0.36830597608E+03  0.00000000000E+00 0.  1.
         22    1    1    2    0    0 -0.10473123368E+04 -0.82205091792E+03  0.27684992337E+04  0.30720056721E+04  0.00000000000E+00 0. -1.
<mgrwt>
<rscale>  0 0.46213547E+04</rscale>
<asrwt>0</asrwt>
<pdfrwt beam="1">  1        2 0.49466698E+00 0.46213547E+04</pdfrwt>
<pdfrwt beam="2">  1       -2 0.25546945E+00 0.46213547E+04</pdfrwt>
<totfact> 0.56490627E-02</totfact>
</mgrwt>
</event>
<event>
 6    1  0.1762360E-005  0.1311063E+04  0.7818608E-02  0.9020838E-01
          1   -1    0    0  501    0  0.00000000000E+00  0.00000000000E+00  0.22251745085E+03  0.22251745085E+03  0.00000000000E+00 0. -1.
         -1   -1    0    0    0  501 -0.00000000000E+00 -0.00000000000E+00 -0.19311821435E+04  0.19311821435E+04  0.00000000000E+00 0.  1.
         23    2    1    2    0    0 -0.45654231425E+02  0.47434339659E+03 -0.15900047655E+04  0.16626128962E+04  0.95291771474E+02 0.  0.
         11    1    3    3    0    0  0.32185261472E+01  0.34724192017E+03 -0.10620698442E+04  0.11173986146E+04  0.00000000000E+00 0. -1.
        -11    1    3    3    0    0 -0.48872757572E+02  0.12710147642E+03 -0.52793492127E+03  0.54521428158E+03  0.00000000000E+00 0.  1.
         22    1    1    2    0    0  0.45654231425E+02 -0.47434339659E+03 -0.11865992715E+03  0.49108669809E+03  0.00000000000E+00 0. -1.
<mgrwt>
<rscale>  0 0.13110633E+04</rscale>
<asrwt>0</asrwt>
<pdfrwt beam="1">  1        1 0.34233452E-01 0.13110633E+04</pdfrwt>
<pdfrwt beam="2">  1       -1 0.29710496E+00 0.13110633E+04</pdfrwt>
<totfact> 0.44010800E+00</totfact>
</mgrwt>
</event>
<event>
 6    1  0.1762360E-005  0.7178321E+03  0.7818608E-02  0.9687214E-01
          1   -1    0    0  501    0  0.00000000000E+00  0.00000000000E+00  0.16568124266E+03  0.16568124266E+03  0.00000000000E+00 0. -1.
         -1   -1    0    0    0  501 -0.00000000000E+00 -0.00000000000E+00 -0.77752159225E+03  0.77752159225E+03  0.00000000000E+00 0.  1.
         23    2    1    2    0    0 -0.31753214024E+03  0.31712562773E+01 -0.10937694329E+03  0.34880718248E+03  0.94161658200E+02 0.  0.
         13    1    3    3    0    0 -0.98974729144E+02 -0.19338439231E+01  0.10382840375E+02  0.99536627107E+02  0.00000000000E+00 0. -1.
        -13    1    3    3    0    0 -0.21855741109E+03  0.51051002004E+01 -0.11975978367E+03  0.24927055537E+03  0.00000000000E+00 0.  1.
         22    1    1    2    0    0  0.31753214024E+03 -0.31712562773E+01 -0.50246340630E+03  0.59439565242E+03  0.00000000000E+00 0.  1.
<mgrwt>
<rscale>  0 0.71783214E+03</rscale>
<asrwt>0</asrwt>
<pdfrwt beam="1">  1        1 0.25489422E-01 0.71783214E+03</pdfrwt>
<pdfrwt beam="2">  1       -1 0.11961871E+00 0.71783214E+03</pdfrwt>
<totfact> 0.12072457E+02</totfact>
</mgrwt>
</event>
<event>
 6    1  0.1762360E-005  0.1699349E+04  0.7818608E-02  0.8761736E-01
          2   -1    0    0  501    0  0.00000000000E+00  0.00000000000E+00  0.35655360729E+04  0.35655360729E+04  0.00000000000E+00 0. -1.
         -2   -1    0    0    0  501 -0.00000000000E+00 -0.00000000000E+00 -0.20247918334E+03  0.20247918334E+03  0.00000000000E+00 0.  1.
         23    2    1    2    0    0 -0.43256006425E+03  0.52854841008E+03  0.57472800126E+03  0.89725758267E+03  0.91034406958E+02 0.  0.
         11    1    3    3    0    0 -0.58830407617E+02  0.11945253515E+03  0.13767949138E+03  0.19153476802E+03  0.00000000000E+00 0. -1.
        -11    1    3    3    0    0 -0.37372965664E+03  0.40909587493E+03  0.43704850988E+03  0.70572281465E+03  0.00000000000E+00 0.  1.
         22    1    1    2    0    0  0.43256006425E+03 -0.52854841008E+03  0.27883288883E+04  0.28707576735E+04  0.00000000000E+00 0. -1.
<mgrwt>
<rscale>  0 0.16993491E+04</rscale>
<asrwt>0</asrwt>
<pdfrwt beam="1">  1        2 0.54854397E+00 0.16993491E+04</pdfrwt>
<pdfrwt beam="2">  1       -2 0.31150646E-01 0.16993491E+04</pdfrwt>
<totfact> 0.67173256E+00</totfact>
</mgrwt>
</event>
<event>
 6    1  0.1762360E-005  0.2932440E+04  0.7818608E-02  0.8263290E-01
          4   -1    0    0  501    0  0.00000000000E+00  0.00000000000E+00  0.16652087891E+04  0.16652087891E+04  0.00000000000E+00 0. -1.
         -4   -1    0    0    0  501 -0.00000000000E+00 -0.00000000000E+00 -0.12910102640E+04  0.12910102640E+04  0.00000000000E+00 0.  1.
         23    2    1    2    0    0 -0.21545143371E+03  0.54217771818E+03  0.15418093759E+04  0.16509638683E+04  0.90163986005E+02 0.  0.
         11    1    3    3    0    0 -0.78384961228E+02  0.15585645294E+03  0.57391891861E+03  0.59984861524E+03  0.00000000000E+00 0.  1.
        -11    1    3    3    0    0 -0.13706647248E+03  0.38632126524E+03  0.96789045733E+03  0.10511152531E+04  0.00000000000E+00 0. -1.
         22    1    1    2    0    0  0.21545143371E+03 -0.54217771818E+03 -0.11676108508E+04  0.13052551848E+04  0.00000000000E+00 0.  1.
<mgrwt>
<rscale>  0 0.29324404E+04</rscale>
<asrwt>0</asrwt>
<pdfrwt beam="1">  1        4 0.25618597E+00 0.29324404E+04</pdfrwt>
<pdfrwt beam="2">  1       -4 0.19861696E+00 0.29324404E+04</pdfrwt>
<totfact> 0.13277533E-02</totfact>
</mgrwt>
</event>
<event>
 6    1  0.1762360E-005  0.2367466E+04  0.7818608E-02  0.8451785E-01
          2   -1    0    0  501    0  0.00000000000E+00  0.00000000000E+00  0.20065552707E+04  0.20065552707E+04  0.00000000000E+00 0. -1.
         -2   -1    0    0    0  501 -0.00000000000E+00 -0.00000000000E+00 -0.69832328348E+03  0.69832328348E+03  0.00000000000E+00 0.  1.
         23    2    1    2    0    0 -0.57395726615E+03 -0.49248410897E+03 -0.38251093113E+03  0.85269628537E+03  0.93855216679E+02 0.  0.
         13    1    3    3    0    0 -0.31561112118E+03 -0.25429695631E+03 -0.15422833384E+03  0.43366311898E+03  0.00000000000E+00 0.  1.
        -13    1    3    3    0    0 -0.25834614496E+03 -0.23818715265E+03 -0.22828259729E+03  0.41903316639E+03  0.00000000000E+00 0. -1.
         22    1    1    2    0    0  0.57395726615E+03  0.49248410897E+03  0.16907429183E+04  0.18521822688E+04  0.00000000000E+00 0. -1.
<mgrwt>
<rscale>  0 0.23674664E+04</rscale>
<asrwt>0</asrwt>
<pdfrwt beam="1">  1        2 0.30870081E+00 0.23674664E+04</pdfrwt>
<pdfrwt beam="2">  1       -2 0.10743435E+00 0.23674664E+04</pdfrwt>
<totfact> 0.41551023E+00</totfact>
</mgrwt>
</event>
<event>
 6    1  0.1762360E-005  0.2356640E+04  0.7818608E-02  0.8455918E-01
         -1   -1    0    0    0  501 -0.00000000000E+00  0.00000000000E+00  0.90362717040E+03  0.90362717040E+03  0.00000000000E+00 0.  1.
          1   -1    0    0  501    0  0.00000000000E+00 -0.00000000000E+00 -0.15365166354E+04  0.15365166354E+04  0.00000000000E+00 0. -1.
         23    2    1    2    0    0  0.10675983213E+03 -0.26876641403E+03 -0.14978188822E+04  0.15281482226E+04  0.90236019894E+02 0.  0.
         13    1    3    3    0    0  0.10572557061E+03 -0.14659306597E+03 -0.90345855475E+03  0.92136028969E+03  0.00000000000E+00 0.  1.
        -13    1    3    3    0    0  0.10342615221E+01 -0.12217334806E+03 -0.59436032746E+03  0.60678793292E+03  0.00000000000E+00 0. -1.
         22    1    1    2    0    0 -0.10675983213E+03  0.26876641403E+03  0.86492941720E+03  0.91199558321E+03  0.00000000000E+00 0.  1.
<mgrwt>
<rscale>  0 0.23566401E+04</rscale>
<asrwt>0</asrwt>
<pdfrwt beam="1">  1        1 0.23638717E+00 0.23566401E+04</pdfrwt>
<pdfrwt beam="2">  1       -1 0.13901957E+00 0.23566401E+04</pdfrwt>
<totfact> 0.23700634E+00</totfact>
</mgrwt>
</event>
<event>
 6    1  0.1762360E-005  0.1022692E+04  0.7818608E-02  0.9284001E-01
          1   -1    0    0  501    0  0.00000000000E+00  0.00000000000E+00  0.89271890115E+03  0.89271890115E+03  0.00000000000E+00 0. -1.
         -1   -1    0    0    0  501 -0.00000000000E+00 -0.00000000000E+00 -0.29289715784E+03  0.29289715784E+03  0.00000000000E+00 0.  1.
         23    2    1    2    0    0 -0.47083680306E+03 -0.80084281832E+02  0.50070791249E+03  0.69784117365E+03  0.90405213914E+02 0.  0.
         13    1    3    3    0    0 -0.10204218026E+03  0.10532793100E+02  0.14413721351E+03  0.17691546739E+03  0.00000000000E+00 0. -1.
        -13    1    3    3    0    0 -0.36879462280E+03 -0.90617074932E+02  0.35657069897E+03  0.52092570626E+03  0.00000000000E+00 0.  1.
         22    1    1    2    0    0  0.47083680306E+03  0.80084281832E+02  0.99113830820E+02  0.48777488534E+03  0.00000000000E+00 0.  1.
<mgrwt>
<rscale>  0 0.10226922E+04</rscale>
<asrwt>0</asrwt>
<pdfrwt beam="1">  1        1 0.13734137E+00 0.10226922E+04</pdfrwt>
<pdfrwt beam="2">  1       -1 0.45061102E-01 0.10226922E+04</pdfrwt>
<totfact> 0.90184377E+01</totfact>
</mgrwt>
</event>
<event>
 6    1  0.1762360E-005  0.1573108E+04  0.7818608E-02  0.8837241E-01
          2   -1    0    0  501    0  0.00000000000E+00  0.00000000000E+00  0.14217256229E+04  0.14217256229E+04  0.00000000000E+00 0. -1.
         -2   -1    0    0    0  501 -0.00000000000E+00 -0.00000000000E+00 -0.43515254595E+03  0.43515254595E+03  0.00000000000E+00 0.  1.
         23    2    1    2    0    0  0.49712665467E+03 -0.57678493275E+03  0.27525016707E+03  0.81486278915E+03  0.91776583252E+02 0.  0.
         11    1    3    3    0    0  0.30754369917E+03 -0.31881669259E+03  0.19981411672E+03  0.48595564778E+03  0.00000000000E+00 0.  1.
        -11    1    3    3    0    0  0.18958295550E+03 -0.25796824016E+03  0.75436050356E+02  0.32890714136E+03  0.00000000000E+00 0. -1.
         22    1    1    2    0    0 -0.49712665467E+03  0.57678493275E+03  0.71132290991E+03  0.10420153797E+04  0.00000000000E+00 0. -1.
<mgrwt>
<rscale>  0 0.15731084E+04</rscale>
<asrwt>0</asrwt>
<pdfrwt beam="1">  1        2 0.21872702E+00 0.15731084E+04</pdfrwt>
<pdfrwt beam="2">  1       -2 0.66946546E-01 0.15731084E+04</pdfrwt>
<totfact> 0.27677260E+01</totfact>
</mgrwt>
</event>
<event>
 6    1  0.1762360E-005  0.1210808E+04  0.7818608E-02  0.9103448E-01
         -1   -1    0    0    0  501 -0.00000000000E+00  0.00000000000E+00  0.30176797489E+03  0.30176797489E+03  0.00000000000E+00 0.  1.
          1   -1    0    0  501    0  0.00000000000E+00 -0.00000000000E+00 -0.12145566206E+04  0.12145566206E+04  0.00000000000E+00 0. -1.
         23    2    1    2    0    0  0.34042009731E+03  0.26915311753E+03 -0.98142853557E+03  0.10769606486E+04  0.91175790906E+02 0.  0.
         11    1    3    3    0    0  0.25548637474E+03  0.24580137623E+03 -0.81130460079E+03  0.88538509107E+03  0.00000000000E+00 0.  1.
        -11    1    3    3    0    0  0.84933722571E+02  0.23351741299E+02 -0.17012393478E+03  0.19157555751E+03  0.00000000000E+00 0. -1.
         22    1    1    2    0    0 -0.34042009731E+03 -0.26915311753E+03  0.68639889893E+02  0.43936394687E+03  0.00000000000E+00 0.  1.
<mgrwt>
<rscale>  0 0.12108085E+04</rscale>
<asrwt>0</asrwt>
<pdfrwt beam="1">  1        1 0.18685486E+00 0.12108085E+04</pdfrwt>
<pdfrwt beam="2">  1       -1 0.46425843E-01 0.12108085E+04</pdfrwt>
<totfact> 0.47614796E+01</totfact>
</mgrwt>
</event>
<event>
 6    1  0.1762360E-005  0.2984698E+04  0.7818608E-02  0.8248114E-01
          2   -1    0    0  501    0  0.00000000000E+00  0.00000000000E+00  0.24973970752E+04  0.24973970752E+04  0.00000000000E+00 0. -1.
         -2   -1    0    0    0  501 -0.00000000000E+00 -0.00000000000E+00 -0.89177086341E+03  0.89177086341E+03  0.00000000000E+00 0.  1.
         23    2    1    2    0    0  0.41539915919E+03  0.73361363675E+03 -0.59276525100E+03  0.10346678955E+04  0.91769175845E+02 0.  0.
         13    1    3    3    0    0  0.37778440492E+03  0.59831655870E+03 -0.49584308416E+03  0.86403942337E+03  0.00000000000E+00 0. -1.
        -13    1    3    3    0    0  0.37614754269E+02  0.13529707805E+03 -0.96922166835E+02  0.17062847210E+03  0.00000000000E+00 0.  1.
         22    1    1    2    0    0 -0.41539915919E+03 -0.73361363675E+03  0.21983914628E+04  0.23545000432E+04  0.00000000000E+00 0. -1.
<mgrwt>
<rscale>  0 0.29846983E+04</rscale>
<asrwt>0</asrwt>
<pdfrwt beam="1">  1        2 0.38421493E+00 0.29846983E+04</pdfrwt>
<pdfrwt beam="2">  1       -2 0.13719552E+00 0.29846983E+04</pdfrwt>
<totfact> 0.11330397E+00</totfact>
</mgrwt>
</event>
<event>
 6    1  0.1762360E-005  0.1220357E+04  0.7818608E-02  0.9095223E-01
          2   -1    0    0  501    0  0.00000000000E+00  0.00000000000E+00  0.22469952739E+03  0.22469952739E+03  0.00000000000E+00 0. -1.
         -2   -1    0    0    0  501 -0.00000000000E+00 -0.00000000000E+00 -0.16569580182E+04  0.16569580182E+04  0.00000000000E+00 0.  1.
         23    2    1    2    0    0 -0.20336942561E+03  0.50464414308E+03 -0.11337204271E+04  0.12610531548E+04  0.94383355985E+02 0.  0.
         13    1    3    3    0    0 -0.65683151468E+02  0.20504153320E+03 -0.55005220418E+03  0.59068920258E+03  0.00000000000E+00 0. -1.
        -13    1    3    3    0    0 -0.13768627414E+03  0.29960260988E+03 -0.58366822295E+03  0.67036395220E+03  0.00000000000E+00 0.  1.
         22    1    1    2    0    0  0.20336942561E+03 -0.50464414308E+03 -0.29853806367E+03  0.62060439080E+03  0.00000000000E+00 0.  1.
<mgrwt>
<rscale>  0 0.12203568E+04</rscale>
<asrwt>0</asrwt>
<pdfrwt beam="1">  1        2 0.34569157E-01 0.12203568E+04</pdfrwt>
<pdfrwt beam="2">  1       -2 0.25491663E+00 0.12203568E+04</pdfrwt>
<totfact> 0.89894335E+00</totfact>
</mgrwt>
</event>
<event>
 6    1  0.1762360E-005  0.2726148E+04  0.7818608E-02  0.8326571E-01
          2   -1    0    0  501    0  0.00000000000E+00  0.00000000000E+00  0.10097873819E+04  0.10097873819E+04  0.00000000000E+00 0.  1.
         -2   -1    0    0    0  501 -0.00000000000E+00 -0.00000000000E+00 -0.18399618821E+04  0.18399618821E+04  0.00000000000E+00 0. -1.
         23    2    1    2    0    0  0.99380031347E+03  0.39402753110E+03  0.46580590166E+03  0.11697308235E+04  0.91642256402E+02 0.  0.
         11    1    3    3    0    0  0.52224927727E+03  0.15864275529E+03  0.22767731957E+03  0.59139563176E+03  0.00000000000E+00 0. -1.
        -11    1    3    3    0    0  0.47155103619E+03  0.23538477582E+03  0.23812858209E+03  0.57833519176E+03  0.00000000000E+00 0.  1.
         22    1    1    2    0    0 -0.99380031347E+03 -0.39402753110E+03 -0.12959804019E+04  0.16800184405E+04  0.00000000000E+00 0. -1.
<mgrwt>
<rscale>  0 0.27261477E+04</rscale>
<asrwt>0</asrwt>
<pdfrwt beam="1">  1        2 0.15535191E+00 0.27261477E+04</pdfrwt>
<pdfrwt beam="2">  1       -2 0.28307105E+00 0.27261477E+04</pdfrwt>
<totfact> 0.87660592E-01</totfact>
</mgrwt>
</event>
<event>
 6    1  0.1762360E-005  0.3255068E+04  0.7818608E-02  0.8174423E-01
          1   -1    0    0  501    0  0.00000000000E+00  0.00000000000E+00  0.14741041416E+04  0.14741041416E+04  0.00000000000E+00 0. -1.
         -1   -1    0    0    0  501 -0.00000000000E+00 -0.00000000000E+00 -0.17969328340E+04  0.17969328340E+04  0.00000000000E+00 0.  1.
         23    2    1    2    0    0  0.10484998909E+04  0.38893141027E+03 -0.13481106607E+04  0.17538610539E+04  0.89479495348E+02 0.  0.
         13    1    3    3    0    0  0.13931764649E+03  0.20193677073E+02 -0.16901417029E+03  0.21996131700E+03  0.00000000000E+00 0.  1.
        -13    1    3    3    0    0  0.90918224437E+03  0.36873773319E+03 -0.11790964904E+04  0.15338997369E+04  0.00000000000E+00 0. -1.
         22    1    1    2    0    0 -0.10484998909E+04 -0.38893141027E+03  0.10252819682E+04  0.15171759217E+04  0.00000000000E+00 0. -1.
<mgrwt>
<rscale>  0 0.32550675E+04</rscale>
<asrwt>0</asrwt>
<pdfrwt beam="1">  1        1 0.22678525E+00 0.32550675E+04</pdfrwt>
<pdfrwt beam="2">  1       -1 0.27645121E+00 0.32550675E+04</pdfrwt>
<totfact> 0.26643024E-01</totfact>
</mgrwt>
</event>
<event>
 6    1  0.1762360E-005  0.1180760E+04  0.7818608E-02  0.9129866E-01
          2   -1    0    0  501    0  0.00000000000E+00  0.00000000000E+00  0.16060705001E+04  0.16060705001E+04  0.00000000000E+00 0.  1.
         -2   -1    0    0    0  501 -0.00000000000E+00 -0.00000000000E+00 -0.21701932283E+03  0.21701932283E+03  0.00000000000E+00 0. -1.
         23    2    1    2    0    0  0.13415669333E+03 -0.56628204609E+03  0.80803863729E+03  0.10007462538E+04  0.99464823129E+02 0.  0.
         13    1    3    3    0    0  0.69409763355E+02 -0.27542810582E+03  0.31062376955E+03  0.42091030272E+03  0.00000000000E+00 0. -1.
        -13    1    3    3    0    0  0.64746929975E+02 -0.29085394027E+03  0.49741486774E+03  0.57983595108E+03  0.00000000000E+00 0.  1.
         22    1    1    2    0    0 -0.13415669333E+03  0.56628204609E+03  0.58101253996E+03  0.82234356913E+03  0.00000000000E+00 0.  1.
<mgrwt>
<rscale>  0 0.11807596E+04</rscale>
<asrwt>0</asrwt>
<pdfrwt beam="1">  1        2 0.24708776E+00 0.11807596E+04</pdfrwt>
<pdfrwt beam="2">  1       -2 0.33387589E-01 0.11807596E+04</pdfrwt>
<totfact> 0.91594385E+01</totfact>
</mgrwt>
</event>
<event>
 6    1  0.1762360E-005  0.2571784E+04  0.7818608E-02  0.8377849E-01
         -1   -1    0    0    0  501 -0.00000000000E+00  0.00000000000E+00  0.13502020798E+04  0.13502020798E+04  0.00000000000E+00 0.  1.
          1   -1    0    0  501    0  0.00000000000E+00 -0.00000000000E+00 -0.12246453087E+04  0.12246453087E+04  0.00000000000E+00 0. -1.
         23    2    1    2    0    0 -0.19527417799E+03  0.64148319612E+03 -0.10337309988E+04  0.12356010225E+04  0.92072870574E+02 0.  0.
         11    1    3    3    0    0 -0.10692735023E+03  0.48133033074E+03 -0.72558965592E+03  0.87726432408E+03  0.00000000000E+00 0. -1.
        -11    1    3    3    0    0 -0.88346827767E+02  0.16015286538E+03 -0.30814134288E+03  0.35833669845E+03  0.00000000000E+00 0.  1.
         22    1    1    2    0    0  0.19527417799E+03 -0.64148319612E+03  0.11592877699E+04  0.13392463660E+04  0.00000000000E+00 0.  1.
<mgrwt>
<rscale>  0 0.25717843E+04</rscale>
<asrwt>0</asrwt>
<pdfrwt beam="1">  1        1 0.18840697E+00 0.25717843E+04</pdfrwt>
<pdfrwt beam="2">  1       -1 0.20772340E+00 0.25717843E+04</pdfrwt>
<totfact> 0.12059095E+00</totfact>
</mgrwt>
</event>
<event>
 6    1  0.1762360E-005  0.2566993E+04  0.7818608E-02  0.8379500E-01
          2   -1    0    0  501    0  0.00000000000E+00  0.00000000000E+00  0.35391571864E+04  0.35391571864E+04  0.00000000000E+00 0.  1.
         -2   -1    0    0    0  501 -0.00000000000E+00 -0.00000000000E+00 -0.46546767980E+03  0.46546767980E+03  0.00000000000E+00 0. -1.
         23    2    1    2    0    0 -0.91731126680E+03 -0.12712925426E+03  0.29213826218E+04  0.30661051836E+04  0.94354471528E+02 0.  0.
         13    1    3    3    0    0 -0.28519350574E+03 -0.28882449596E+02  0.76985776425E+03  0.82149285377E+03  0.00000000000E+00 0. -1.
        -13    1    3    3    0    0 -0.63211776106E+03 -0.98246804664E+02  0.21515248575E+04  0.22446123298E+04  0.00000000000E+00 0.  1.
         22    1    1    2    0    0  0.91731126680E+03  0.12712925426E+03  0.15230688479E+03  0.93851968261E+03  0.00000000000E+00 0. -1.
<mgrwt>
<rscale>  0 0.25669930E+04</rscale>
<asrwt>0</asrwt>
<pdfrwt beam="1">  1        2 0.54448570E+00 0.25669930E+04</pdfrwt>
<pdfrwt beam="2">  1       -2 0.71610415E-01 0.25669930E+04</pdfrwt>
<totfact> 0.11980161E+00</totfact>
</mgrwt>
</event>
<event>
 6    1  0.1762360E-005  0.4871378E+03  0.7818608E-02  0.1017192E+00
         -1   -1    0    0    0  501 -0.00000000000E+00  0.00000000000E+00  0.14354749498E+03  0.14354749498E+03  0.00000000000E+00 0.  1.
          1   -1    0    0  501    0  0.00000000000E+00 -0.00000000000E+00 -0.41328343273E+03  0.41328343273E+03  0.00000000000E+00 0. -1.
         23    2    1    2    0    0  0.22190033346E+03  0.22932015007E+01 -0.22895265374E+03  0.33120226593E+03  0.89613651533E+02 0.  0.
         13    1    3    3    0    0  0.39367964650E+02 -0.31422556098E+02 -0.27963202601E+02  0.57612102653E+02  0.00000000000E+00 0. -1.
        -13    1    3    3    0    0  0.18253236881E+03  0.33715757599E+02 -0.20098945114E+03  0.27359016327E+03  0.00000000000E+00 0.  1.
         22    1    1    2    0    0 -0.22190033346E+03 -0.22932015007E+01 -0.40783284010E+02  0.22562866178E+03  0.00000000000E+00 0. -1.
<mgrwt>
<rscale>  0 0.48713777E+03</rscale>
<asrwt>0</asrwt>
<pdfrwt beam="1">  1        1 0.63582066E-01 0.48713777E+03</pdfrwt>
<pdfrwt beam="2">  1       -1 0.22084230E-01 0.48713777E+03</pdfrwt>
<totfact> 0.99673464E+02</totfact>
</mgrwt>
</event>
<event>
 6    1  0.1762360E-005  0.1723719E+04  0.7818608E-02  0.8747951E-01
          1   -1    0    0  501    0  0.00000000000E+00  0.00000000000E+00  0.52813708073E+03  0.52813708073E+03  0.00000000000E+00 0. -1.
         -1   -1    0    0    0  501 -0.00000000000E+00 -0.00000000000E+00 -0.14064557334E+04  0.14064557334E+04  0.00000000000E+00 0.  1.
         23    2    1    2    0    0  0.57901154777E+03 -0.30617045430E+03  0.18404659064E+03  0.68654849211E+03  0.92092154726E+02 0.  0.
         13    1    3    3    0    0  0.47844903091E+03 -0.28706841527E+03  0.14098206598E+03  0.57549777858E+03  0.00000000000E+00 0. -1.
        -13    1    3    3    0    0  0.10056251686E+03 -0.19102039031E+02  0.43064524654E+02  0.11105071353E+03  0.00000000000E+00 0.  1.
         22    1    1    2    0    0 -0.57901154777E+03  0.30617045430E+03 -0.10623652434E+04  0.12480443221E+04  0.00000000000E+00 0. -1.
<mgrwt>
<rscale>  0 0.17237186E+04</rscale>
<asrwt>0</asrwt>
<pdfrwt beam="1">  1        1 0.81251859E-01 0.17237186E+04</pdfrwt>
<pdfrwt beam="2">  1       -1 0.21637780E+00 0.17237186E+04</pdfrwt>
<totfact> 0.45393737E+00</totfact>
</mgrwt>
</event>
<event>
 6    1  0.1762360E-005  0.1712760E+04  0.7818608E-02  0.8754120E-01
          1   -1    0    0  501    0  0.00000000000E+00  0.00000000000E+00  0.16332662244E+04  0.16332662244E+04  0.00000000000E+00 0. -1.
         -1   -1    0    0    0  501 -0.00000000000E+00 -0.00000000000E+00 -0.44903045591E+03  0.44903045591E+03  0.00000000000E+00 0.  1.
         23    2    1    2    0    0  0.43261717853E+03 -0.48662971413E+03 -0.75754076881E+02  0.66400879970E+03  0.10584377206E+03 0.  0.
         11    1    3    3    0    0  0.10556129548E+03 -0.16270830201E+03  0.16097636851E+02  0.19461837673E+03  0.00000000000E+00 0.  1.
        -11    1    3    3    0    0  0.32705588305E+03 -0.32392141212E+03 -0.91851713732E+02  0.46939042298E+03  0.00000000000E+00 0. -1.
         22    1    1    2    0    0 -0.43261717853E+03  0.48662971413E+03  0.12599898454E+04  0.14182878807E+04  0.00000000000E+00 0. -1.
<mgrwt>
<rscale>  0 0.17127595E+04</rscale>
<asrwt>0</asrwt>
<pdfrwt beam="1">  1        1 0.25127172E+00 0.17127595E+04</pdfrwt>
<pdfrwt beam="2">  1       -1 0.69081609E-01 0.17127595E+04</pdfrwt>
<totfact> 0.10668716E+01</totfact>
</mgrwt>
</event>
<event>
 6    1  0.2986118E-005  0.2326531E+04  0.7818608E-02  0.8467533E-01
         -1   -1    0    0    0  501 -0.00000000000E+00  0.00000000000E+00  0.91046381152E+03  0.91046381152E+03  0.00000000000E+00 0. -1.
          1   -1    0    0  501    0  0.00000000000E+00 -0.00000000000E+00 -0.14862604543E+04  0.14862604543E+04  0.00000000000E+00 0.  1.
         23    2    1    2    0    0  0.44580275271E+03 -0.29026287664E+03 -0.13519767982E+04  0.14557416594E+04  0.91377700387E+02 0.  0.
         11    1    3    3    0    0  0.12037527047E+03 -0.86135931524E+02 -0.49382223730E+03  0.51552886097E+03  0.00000000000E+00 0.  1.
        -11    1    3    3    0    0  0.32542748223E+03 -0.20412694511E+03 -0.85815456093E+03  0.94021279844E+03  0.00000000000E+00 0. -1.
         22    1    1    2    0    0 -0.44580275271E+03  0.29026287664E+03  0.77618015544E+03  0.94098260641E+03  0.00000000000E+00 0. -1.
<mgrwt>
<rscale>  0 0.23265308E+04</rscale>
<asrwt>0</asrwt>
<pdfrwt beam="1">  1        1 0.22865545E+00 0.23265308E+04</pdfrwt>
<pdfrwt beam="2">  1       -1 0.14007136E+00 0.23265308E+04</pdfrwt>
<totfact> 0.25244393E+00</totfact>
</mgrwt>
</event>
<event>
 6    1  0.1762360E-005  0.3766482E+03  0.7818608E-02  0.1052180E+00
         -3   -1    0    0    0  501 -0.00000000000E+00  0.00000000000E+00  0.12685273261E+03  0.12685273261E+03  0.00000000000E+00 0.  1.
          3   -1    0    0  501    0  0.00000000000E+00 -0.00000000000E+00 -0.27958384197E+03  0.27958384197E+03  0.00000000000E+00 0. -1.
         23    2    1    2    0    0 -0.35206060440E+01 -0.62986026960E+02 -0.25896634461E+03  0.28288270184E+03  0.94759807420E+02 0.  0.
         11    1    3    3    0    0 -0.37976813839E+02 -0.64179422474E+02 -0.13518760258E+03  0.15439211298E+03  0.00000000000E+00 0. -1.
        -11    1    3    3    0    0  0.34456207795E+02  0.11933955142E+01 -0.12377874203E+03  0.12849058886E+03  0.00000000000E+00 0.  1.
         22    1    1    2    0    0  0.35206060440E+01  0.62986026960E+02  0.10623523525E+03  0.12355387273E+03  0.00000000000E+00 0.  1.
<mgrwt>
<rscale>  0 0.37664824E+03</rscale>
<asrwt>0</asrwt>
<pdfrwt beam="1">  1        3 0.43012898E-01 0.37664824E+03</pdfrwt>
<pdfrwt beam="2">  1       -3 0.19515805E-01 0.37664824E+03</pdfrwt>
<totfact> 0.32847099E+02</totfact>
</mgrwt>
</event>
<event>
 6    1  0.1762360E-005  0.1255952E+04  0.7818608E-02  0.9065244E-01
         -2   -1    0    0    0  501 -0.00000000000E+00  0.00000000000E+00  0.17214358302E+03  0.17214358302E+03  0.00000000000E+00 0.  1.
          2   -1    0    0  501    0  0.00000000000E+00 -0.00000000000E+00 -0.22908428513E+04  0.22908428513E+04  0.00000000000E+00 0. -1.
         23    2    1    2    0    0  0.26393975438E+03 -0.20459074145E+03 -0.21000515432E+04  0.21285177465E+04  0.94073099116E+02 0.  0.
         11    1    3    3    0    0  0.15048770459E+03 -0.63966637042E+02 -0.11319055098E+04  0.11436557012E+04  0.00000000000E+00 0. -1.
        -11    1    3    3    0    0  0.11345204980E+03 -0.14062410440E+03 -0.96814603341E+03  0.98486204534E+03  0.00000000000E+00 0.  1.
         22    1    1    2    0    0 -0.26393975438E+03  0.20459074145E+03 -0.18647725070E+02  0.33446868774E+03  0.00000000000E+00 0.  1.
<mgrwt>
<rscale>  0 0.12559521E+04</rscale>
<asrwt>0</asrwt>
<pdfrwt beam="1">  1        2 0.35243734E+00 0.12559521E+04</pdfrwt>
<pdfrwt beam="2">  1       -2 0.26483630E-01 0.12559521E+04</pdfrwt>
<totfact> 0.58440714E+01</totfact>
</mgrwt>
</event>
<event>
 6    1  0.1762360E-005  0.6927946E+04  0.7818608E-02  0.7584912E-01
         -2   -1    0    0    0  501 -0.00000000000E+00  0.00000000000E+00  0.29646587444E+04  0.29646587444E+04  0.00000000000E+00 0.  1.
          2   -1    0    0  501    0  0.00000000000E+00 -0.00000000000E+00 -0.40473829925E+04  0.40473829925E+04  0.00000000000E+00 0. -1.
         23    2    1    2    0    0 -0.32129074945E+04  0.12406099546E+04 -0.17517701271E+03  0.34503666237E+04  0.11160297647E+03 0.  0.
         13    1    3    3    0    0 -0.21120031691E+04  0.82802139267E+03 -0.63667262974E+02  0.22694118915E+04  0.00000000000E+00 0. -1.
        -13    1    3    3    0    0 -0.11009043254E+04  0.41258856195E+03 -0.11150974974E+03  0.11809547322E+04  0.00000000000E+00 0.  1.
         22    1    1    2    0    0  0.32129074945E+04 -0.12406099546E+04 -0.90754723531E+03  0.35616751132E+04  0.00000000000E+00 0.  1.
<mgrwt>
<rscale>  0 0.69279461E+04</rscale>
<asrwt>0</asrwt>
<pdfrwt beam="1">  1        2 0.62267430E+00 0.69279461E+04</pdfrwt>
<pdfrwt beam="2">  1       -2 0.45610135E+00 0.69279461E+04</pdfrwt>
<totfact> 0.62103231E-04</totfact>
</mgrwt>
</event>
<event>
 6    1  0.1762360E-005  0.6338626E+03  0.7818608E-02  0.9837540E-01
         -1   -1    0    0    0  501 -0.00000000000E+00  0.00000000000E+00  0.68009531709E+02  0.68009531709E+02  0.00000000000E+00 0. -1.
          1   -1    0    0  501    0  0.00000000000E+00 -0.00000000000E+00 -0.14769319436E+04  0.14769319436E+04  0.00000000000E+00 0.  1.
         23    2    1    2    0    0  0.53161900067E+02  0.20049915318E+03 -0.12824623747E+04  0.13020047777E+04  0.86490464981E+02 0.  0.
         13    1    3    3    0    0  0.52382351237E+02  0.50991725006E+02 -0.50926506244E+03  0.51448515096E+03  0.00000000000E+00 0. -1.
        -13    1    3    3    0    0  0.77954882937E+00  0.14950742817E+03 -0.77319731228E+03  0.78751962674E+03  0.00000000000E+00 0.  1.
         22    1    1    2    0    0 -0.53161900067E+02 -0.20049915318E+03 -0.12646003716E+03  0.24293669760E+03  0.00000000000E+00 0. -1.
<mgrwt>
<rscale>  0 0.63386260E+03</rscale>
<asrwt>0</asrwt>
<pdfrwt beam="1">  1        1 0.22722028E+00 0.63386260E+03</pdfrwt>
<pdfrwt beam="2">  1       -1 0.10463006E-01 0.63386260E+03</pdfrwt>
<totfact> 0.40833832E+02</totfact>
</mgrwt>
</event>
<event>
 6    1  0.1762360E-005  0.1483660E+04  0.7818608E-02  0.8895392E-01
         -1   -1    0    0    0  501 -0.00000000000E+00  0.00000000000E+00  0.10781696400E+04  0.10781696400E+04  0.00000000000E+00 0.  1.
          1   -1    0    0  501    0  0.00000000000E+00 -0.00000000000E+00 -0.51041284905E+03  0.51041284905E+03  0.00000000000E+00 0. -1.
         23    2    1    2    0    0 -0.47877311881E+03  0.42124093710E+03  0.68480060612E+03  0.94022542611E+03  0.91675271369E+02 0.  0.
         13    1    3    3    0    0 -0.16787660592E+03  0.20612696595E+03  0.26733717229E+03  0.37701464772E+03  0.00000000000E+00 0.  1.
        -13    1    3    3    0    0 -0.31089651289E+03  0.21511397114E+03  0.41746343383E+03  0.56321077839E+03  0.00000000000E+00 0. -1.
         22    1    1    2    0    0  0.47877311881E+03 -0.42124093710E+03 -0.11704381519E+03  0.64835706293E+03  0.00000000000E+00 0.  1.
<mgrwt>
<rscale>  0 0.14836599E+04</rscale>
<asrwt>0</asrwt>
<pdfrwt beam="1">  1        1 0.78525054E-01 0.14836599E+04</pdfrwt>
<pdfrwt beam="2">  1       -1 0.16587225E+00 0.14836599E+04</pdfrwt>
<totfact> 0.11014005E+01</totfact>
</mgrwt>
</event>
<event>
 6    1  0.1762360E-005  0.9882188E+03  0.7818608E-02  0.9321561E-01
          2   -1    0    0  501    0  0.00000000000E+00  0.00000000000E+00  0.14441813084E+03  0.14441813084E+03  0.00000000000E+00 0. -1.
         -2   -1    0    0    0  501 -0.00000000000E+00 -0.00000000000E+00 -0.16905362502E+04  0.16905362502E+04  0.00000000000E+00 0.  1.
         23    2    1    2    0    0 -0.16375978640E+03  0.38701253971E+03 -0.31061053186E+03  0.52993523469E+03  0.88070863156E+02 0.  0.
         11    1    3    3    0    0 -0.10765646324E+03  0.14360499863E+03 -0.12436788189E+03  0.21835677172E+03  0.00000000000E+00 0.  1.
        -11    1    3    3    0    0 -0.56103323152E+02  0.24340754108E+03 -0.18624264996E+03  0.31157846297E+03  0.00000000000E+00 0. -1.
         22    1    1    2    0    0  0.16375978640E+03 -0.38701253971E+03 -0.12355075875E+04  0.13050191463E+04  0.00000000000E+00 0.  1.
<mgrwt>
<rscale>  0 0.98821877E+03</rscale>
<asrwt>0</asrwt>
<pdfrwt beam="1">  1        2 0.22218175E-01 0.98821877E+03</pdfrwt>
<pdfrwt beam="2">  1       -2 0.26008249E+00 0.98821877E+03</pdfrwt>
<totfact> 0.14126199E+01</totfact>
</mgrwt>
</event>
<event>
 6    1  0.1762360E-005  0.4065337E+04  0.7818608E-02  0.7991494E-01
         -2   -1    0    0    0  501 -0.00000000000E+00  0.00000000000E+00  0.14803766383E+04  0.14803766383E+04  0.00000000000E+00 0.  1.
          2   -1    0    0  501    0  0.00000000000E+00 -0.00000000000E+00 -0.27910064678E+04  0.27910064678E+04  0.00000000000E+00 0. -1.
         23    2    1    2    0    0  0.84715109723E+03  0.32817659356E+03 -0.25650168912E+04  0.27225604052E+04  0.87513713573E+02 0.  0.
         11    1    3    3    0    0  0.71368010102E+03  0.25639636354E+03 -0.22123132290E+04  0.23386765927E+04  0.00000000000E+00 0.  1.
        -11    1    3    3    0    0  0.13347099620E+03  0.71780230018E+02 -0.35270366213E+03  0.38388381254E+03  0.00000000000E+00 0. -1.
         22    1    1    2    0    0 -0.84715109723E+03 -0.32817659356E+03  0.12543870617E+04  0.15488227009E+04  0.00000000000E+00 0.  1.
<mgrwt>
<rscale>  0 0.40653368E+04</rscale>
<asrwt>0</asrwt>
<pdfrwt beam="1">  1        2 0.42938561E+00 0.40653368E+04</pdfrwt>
<pdfrwt beam="2">  1       -2 0.22775025E+00 0.40653368E+04</pdfrwt>
<totfact> 0.16224893E-01</totfact>
</mgrwt>
</event>
<event>
 6    1  0.1762360E-005  0.1142275E+04  0.7818608E-02  0.9164940E-01
          1   -1    0    0  501    0  0.00000000000E+00  0.00000000000E+00  0.41107947368E+03  0.41107947368E+03  0.00000000000E+00 0. -1.
         -1   -1    0    0    0  501 -0.00000000000E+00 -0.00000000000E+00 -0.79351578619E+03  0.79351578619E+03  0.00000000000E+00 0.  1.
         23    2    1    2    0    0 -0.15619382123E+03  0.26365893616E+03  0.31137555632E+03  0.44611819777E+03  0.90300414755E+02 0.  0.
         13    1    3    3    0    0 -0.26406375293E+02  0.12978939071E+03  0.11623878602E+03  0.17622155932E+03  0.00000000000E+00 0.  1.
        -13    1    3    3    0    0 -0.12978744594E+03  0.13386954546E+03  0.19513677030E+03  0.26989663845E+03  0.00000000000E+00 0. -1.
         22    1    1    2    0    0  0.15619382123E+03 -0.26365893616E+03 -0.69381186882E+03  0.75847706210E+03  0.00000000000E+00 0.  1.
<mgrwt>
<rscale>  0 0.11422750E+04</rscale>
<asrwt>0</asrwt>
<pdfrwt beam="1">  1        1 0.63242996E-01 0.11422750E+04</pdfrwt>
<pdfrwt beam="2">  1       -1 0.12207935E+00 0.11422750E+04</pdfrwt>
<totfact> 0.34122810E+01</totfact>
</mgrwt>
</event>
<event>
 6    1  0.1762360E-005  0.1003940E+04  0.7818608E-02  0.9304234E-01
          2   -1    0    0  501    0  0.00000000000E+00  0.00000000000E+00  0.80214080518E+03  0.80214080518E+03  0.00000000000E+00 0. -1.
         -2   -1    0    0    0  501 -0.00000000000E+00 -0.00000000000E+00 -0.31412683490E+03  0.31412683490E+03  0.00000000000E+00 0.  1.
         23    2    1    2    0    0 -0.22880477927E+03 -0.51603690748E+02  0.73428885432E+03  0.77617076208E+03  0.90809484111E+02 0.  0.
         11    1    3    3    0    0 -0.53265176292E+02 -0.14540625670E+02  0.76436965511E+02  0.94293257961E+02  0.00000000000E+00 0.  1.
        -11    1    3    3    0    0 -0.17553960298E+03 -0.37063065078E+02  0.65785188881E+03  0.68187750412E+03  0.00000000000E+00 0. -1.
         22    1    1    2    0    0  0.22880477927E+03  0.51603690748E+02 -0.24627488405E+03  0.34009687801E+03  0.00000000000E+00 0.  1.
<mgrwt>
<rscale>  0 0.10039401E+04</rscale>
<asrwt>0</asrwt>
<pdfrwt beam="1">  1        2 0.12340628E+00 0.10039401E+04</pdfrwt>
<pdfrwt beam="2">  1       -2 0.48327206E-01 0.10039401E+04</pdfrwt>
<totfact> 0.13894117E+02</totfact>
</mgrwt>
</event>
<event>
 6    1  0.1762360E-005  0.3569839E+04  0.7818608E-02  0.8097436E-01
         -1   -1    0    0    0  501 -0.00000000000E+00  0.00000000000E+00  0.14343673079E+04  0.14343673079E+04  0.00000000000E+00 0.  1.
          1   -1    0    0  501    0  0.00000000000E+00 -0.00000000000E+00 -0.22211447840E+04  0.22211447840E+04  0.00000000000E+00 0. -1.
         23    2    1    2    0    0 -0.98529027835E+03  0.10916267380E+04  0.64018956936E+03  0.16064438118E+04  0.91505015411E+02 0.  0.
         11    1    3    3    0    0 -0.36145834929E+03  0.46008603857E+03  0.23232528448E+03  0.62952866413E+03  0.00000000000E+00 0.  1.
        -11    1    3    3    0    0 -0.62383192905E+03  0.63154069948E+03  0.40786428488E+03  0.97691514764E+03  0.00000000000E+00 0. -1.
         22    1    1    2    0    0  0.98529027835E+03 -0.10916267380E+04 -0.14269670454E+04  0.20490682801E+04  0.00000000000E+00 0. -1.
<mgrwt>
<rscale>  0 0.35698389E+04</rscale>
<asrwt>0</asrwt>
<pdfrwt beam="1">  1        1 0.34171458E+00 0.35698389E+04</pdfrwt>
<pdfrwt beam="2">  1       -1 0.22067190E+00 0.35698389E+04</pdfrwt>
<totfact> 0.18617078E-01</totfact>
</mgrwt>
</event>
<event>
 6    1  0.1762360E-005  0.1871020E+04  0.7818608E-02  0.8669418E-01
         -1   -1    0    0    0  501 -0.00000000000E+00  0.00000000000E+00  0.99652503470E+03  0.99652503470E+03  0.00000000000E+00 0.  1.
          1   -1    0    0  501    0  0.00000000000E+00 -0.00000000000E+00 -0.87823049851E+03  0.87823049851E+03  0.00000000000E+00 0. -1.
         23    2    1    2    0    0 -0.37219934567E+03 -0.85004143798E+03 -0.40223912680E+02  0.93335715960E+03  0.91841303410E+02 0.  0.
         13    1    3    3    0    0 -0.13873000847E+03 -0.38896929226E+03  0.17443967319E+02  0.41333692984E+03  0.00000000000E+00 0. -1.
        -13    1    3    3    0    0 -0.23346933721E+03 -0.46107214572E+03 -0.57667879999E+02  0.52002022976E+03  0.00000000000E+00 0.  1.
         22    1    1    2    0    0  0.37219934567E+03  0.85004143798E+03  0.15851844888E+03  0.94139837361E+03  0.00000000000E+00 0.  1.
<mgrwt>
<rscale>  0 0.18710197E+04</rscale>
<asrwt>0</asrwt>
<pdfrwt beam="1">  1        1 0.13511238E+00 0.18710197E+04</pdfrwt>
<pdfrwt beam="2">  1       -1 0.15331154E+00 0.18710197E+04</pdfrwt>
<totfact> 0.58498090E+00</totfact>
</mgrwt>
</event>
<event>
 6    1  0.1762360E-005  0.1015529E+04  0.7818608E-02  0.9291675E-01
          1   -1    0    0  501    0  0.00000000000E+00  0.00000000000E+00  0.94081954042E+03  0.94081954042E+03  0.00000000000E+00 0.  1.
         -1   -1    0    0    0  501 -0.00000000000E+00 -0.00000000000E+00 -0.27404273875E+03  0.27404273875E+03  0.00000000000E+00 0. -1.
         23    2    1    2    0    0  0.35037749482E+02 -0.49706081367E+03  0.42393021675E+03  0.66054146937E+03  0.91110414934E+02 0.  0.
         13    1    3    3    0    0  0.11827000550E+02 -0.24067159039E+03  0.14618733105E+03  0.28183936582E+03  0.00000000000E+00 0. -1.
        -13    1    3    3    0    0  0.23210748931E+02 -0.25638922327E+03  0.27774288570E+03  0.37870210355E+03  0.00000000000E+00 0.  1.
         22    1    1    2    0    0 -0.35037749482E+02  0.49706081367E+03  0.24284658492E+03  0.55432080980E+03  0.00000000000E+00 0. -1.
<mgrwt>
<rscale>  0 0.10155290E+04</rscale>
<asrwt>0</asrwt>
<pdfrwt beam="1">  1        1 0.14474147E+00 0.10155290E+04</pdfrwt>
<pdfrwt beam="2">  1       -1 0.42160422E-01 0.10155290E+04</pdfrwt>
<totfact> 0.93287022E+01</totfact>
</mgrwt>
</event>
<event>
 6    1  0.1762360E-005  0.1487869E+04  0.7818608E-02  0.8892560E-01
          2   -1    0    0  501    0  0.00000000000E+00  0.00000000000E+00  0.14573575507E+04  0.14573575507E+04  0.00000000000E+00 0. -1.
         -2   -1    0    0    0  501 -0.00000000000E+00 -0.00000000000E+00 -0.37975469708E+03  0.37975469708E+03  0.00000000000E+00 0.  1.
         23    2    1    2    0    0 -0.59053323277E+03 -0.34339415280E+00  0.10937900304E+04  0.12463571026E+04  0.91103126403E+02 0.  0.
         11    1    3    3    0    0 -0.47033437444E+03 -0.34227750628E+02  0.83346967367E+03  0.95763127540E+03  0.00000000000E+00 0. -1.
        -11    1    3    3    0    0 -0.12019885832E+03  0.33884356475E+02  0.26032035672E+03  0.28872582718E+03  0.00000000000E+00 0.  1.
         22    1    1    2    0    0  0.59053323277E+03  0.34339415280E+00 -0.16187176736E+02  0.59075514523E+03  0.00000000000E+00 0.  1.
<mgrwt>
<rscale>  0 0.14878688E+04</rscale>
<asrwt>0</asrwt>
<pdfrwt beam="1">  1        2 0.22420885E+00 0.14878688E+04</pdfrwt>
<pdfrwt beam="2">  1       -2 0.58423800E-01 0.14878688E+04</pdfrwt>
<totfact> 0.35551571E+01</totfact>
</mgrwt>
</event>
<event>
 6    1  0.1762360E-005  0.5925767E+03  0.7818608E-02  0.9920928E-01
         -1   -1    0    0    0  501 -0.00000000000E+00  0.00000000000E+00  0.47283770769E+03  0.47283770769E+03  0.00000000000E+00 0.  1.
          1   -1    0    0  501    0  0.00000000000E+00 -0.00000000000E+00 -0.18565943136E+03  0.18565943136E+03  0.00000000000E+00 0. -1.
         23    2    1    2    0    0  0.49846654083E+02 -0.20748388222E+03  0.36408374635E+03  0.43167407668E+03  0.90836577524E+02 0.  0.
         11    1    3    3    0    0  0.16931718575E+02 -0.11610284228E+03  0.11486231859E+03  0.16419471768E+03  0.00000000000E+00 0. -1.
        -11    1    3    3    0    0  0.32914935508E+02 -0.91381039934E+02  0.24922142775E+03  0.26747935900E+03  0.00000000000E+00 0.  1.
         22    1    1    2    0    0 -0.49846654083E+02  0.20748388222E+03 -0.76905470019E+02  0.22682306237E+03  0.00000000000E+00 0. -1.
<mgrwt>
<rscale>  0 0.59257668E+03</rscale>
<asrwt>0</asrwt>
<pdfrwt beam="1">  1        1 0.28562990E-01 0.59257668E+03</pdfrwt>
<pdfrwt beam="2">  1       -1 0.72744262E-01 0.59257668E+03</pdfrwt>
<totfact> 0.31708626E+02</totfact>
</mgrwt>
</event>
<event>
 6    1  0.1762360E-005  0.2771127E+04  0.7818608E-02  0.8312289E-01
          2   -1    0    0  501    0  0.00000000000E+00  0.00000000000E+00  0.20031093147E+04  0.20031093147E+04  0.00000000000E+00 0. -1.
         -2   -1    0    0    0  501 -0.00000000000E+00 -0.00000000000E+00 -0.95840314638E+03  0.95840314638E+03  0.00000000000E+00 0.  1.
         23    2    1    2    0    0 -0.88161601707E+03 -0.62284294537E+03  0.14487921050E+04  0.18089216489E+04  0.89547933570E+02 0.  0.
         13    1    3    3    0    0 -0.11033485288E+03 -0.10142722201E+03  0.16246501426E+03  0.22103425523E+03  0.00000000000E+00 0.  1.
        -13    1    3    3    0    0 -0.77128116418E+03 -0.52141572335E+03  0.12863270907E+04  0.15878873937E+04  0.00000000000E+00 0. -1.
         22    1    1    2    0    0  0.88161601707E+03  0.62284294537E+03 -0.40408593662E+03  0.11525908122E+04  0.00000000000E+00 0.  1.
<mgrwt>
<rscale>  0 0.27711270E+04</rscale>
<asrwt>0</asrwt>
<pdfrwt beam="1">  1        2 0.30817066E+00 0.27711270E+04</pdfrwt>
<pdfrwt beam="2">  1       -2 0.14744664E+00 0.27711270E+04</pdfrwt>
<totfact> 0.18200425E+00</totfact>
</mgrwt>
</event>
<event>
 6    1  0.1762360E-005  0.1724956E+04  0.7818608E-02  0.8747258E-01
         -1   -1    0    0    0  501 -0.00000000000E+00  0.00000000000E+00  0.14662093013E+04  0.14662093013E+04  0.00000000000E+00 0.  1.
          1   -1    0    0  501    0  0.00000000000E+00 -0.00000000000E+00 -0.50734090317E+03  0.50734090317E+03  0.00000000000E+00 0. -1.
         23    2    1    2    0    0  0.36718882253E+03 -0.19277781347E+03 -0.38116159775E+03  0.57081312767E+03  0.92479978137E+02 0.  0.
         13    1    3    3    0    0  0.15176891339E+03 -0.47717364881E+02 -0.19292713112E+03  0.25006324781E+03  0.00000000000E+00 0.  1.
        -13    1    3    3    0    0  0.21541990913E+03 -0.14506044859E+03 -0.18823446663E+03  0.32074987985E+03  0.00000000000E+00 0. -1.
         22    1    1    2    0    0 -0.36718882253E+03  0.19277781347E+03  0.13400299959E+04  0.14027370768E+04  0.00000000000E+00 0.  1.
<mgrwt>
<rscale>  0 0.17249556E+04</rscale>
<asrwt>0</asrwt>
<pdfrwt beam="1">  1        1 0.78052447E-01 0.17249556E+04</pdfrwt>
<pdfrwt beam="2">  1       -1 0.22557066E+00 0.17249556E+04</pdfrwt>
<totfact> 0.41661172E+00</totfact>
</mgrwt>
</event>
<event>
 6    1  0.1762360E-005  0.4264064E+04  0.7818608E-02  0.7953297E-01
         -2   -1    0    0    0  501 -0.00000000000E+00  0.00000000000E+00  0.19260181152E+04  0.19260181152E+04  0.00000000000E+00 0.  1.
          2   -1    0    0  501    0  0.00000000000E+00 -0.00000000000E+00 -0.23600815458E+04  0.23600815458E+04  0.00000000000E+00 0. -1.
         23    2    1    2    0    0 -0.14292780951E+04 -0.12661269879E+04 -0.11683608033E+04  0.22403464857E+04  0.90399043019E+02 0.  0.
         13    1    3    3    0    0 -0.65207033474E+03 -0.53344207858E+03 -0.55080701521E+03  0.10065508137E+04  0.00000000000E+00 0.  1.
        -13    1    3    3    0    0 -0.77720776031E+03 -0.73268490935E+03 -0.61755378806E+03  0.12337956720E+04  0.00000000000E+00 0. -1.
         22    1    1    2    0    0  0.14292780951E+04  0.12661269879E+04  0.73429737262E+03  0.20457531752E+04  0.00000000000E+00 0.  1.
<mgrwt>
<rscale>  0 0.42640637E+04</rscale>
<asrwt>0</asrwt>
<pdfrwt beam="1">  1        2 0.36308947E+00 0.42640637E+04</pdfrwt>
<pdfrwt beam="2">  1       -2 0.29631048E+00 0.42640637E+04</pdfrwt>
<totfact> 0.10834286E-01</totfact>
</mgrwt>
</event>
<event>
 6    1  0.1762360E-005  0.4799390E+04  0.7818608E-02  0.7860221E-01
          2   -1    0    0  501    0  0.00000000000E+00  0.00000000000E+00  0.13263222663E+04  0.13263222663E+04  0.00000000000E+00 0. -1.
         -2   -1    0    0    0  501 -0.00000000000E+00 -0.00000000000E+00 -0.43417322425E+04  0.43417322425E+04  0.00000000000E+00 0.  1.
         23    2    1    2    0    0  0.91420313955E+03 -0.22022470417E+04 -0.18179243064E+04  0.29997907771E+04  0.90755217304E+02 0.  0.
         13    1    3    3    0    0  0.36667077944E+03 -0.76985368477E+03 -0.64942930709E+03  0.10718584708E+04  0.00000000000E+00 0. -1.
        -13    1    3    3    0    0  0.54753236011E+03 -0.14323933569E+04 -0.11684949993E+04  0.19279323063E+04  0.00000000000E+00 0.  1.
         22    1    1    2    0    0 -0.91420313955E+03  0.22022470417E+04 -0.11974856698E+04  0.26682637318E+04  0.00000000000E+00 0. -1.
<mgrwt>
<rscale>  0 0.47993900E+04</rscale>
<asrwt>0</asrwt>
<pdfrwt beam="1">  1        2 0.20404958E+00 0.47993900E+04</pdfrwt>
<pdfrwt beam="2">  1       -2 0.66795880E+00 0.47993900E+04</pdfrwt>
<totfact> 0.34827480E-03</totfact>
</mgrwt>
</event>
<event>
 6    1  0.1762360E-005  0.6003792E+04  0.7818608E-02  0.7689932E-01
          1   -1    0    0  501    0  0.00000000000E+00  0.00000000000E+00  0.28917713277E+04  0.28917713277E+04  0.00000000000E+00 0. -1.
         -1   -1    0    0    0  501 -0.00000000000E+00 -0.00000000000E+00 -0.31162145310E+04  0.31162145310E+04  0.00000000000E+00 0.  1.
         23    2    1    2    0    0  0.27446287553E+04  0.11084969493E+04 -0.60858980990E+03  0.30231372684E+04  0.84999390351E+02 0.  0.
         11    1    3    3    0    0  0.17832300361E+04  0.71261166364E+03 -0.43554717660E+03  0.19691180990E+04  0.00000000000E+00 0. -1.
        -11    1    3    3    0    0  0.96139871912E+03  0.39588528566E+03 -0.17304263330E+03  0.10540191694E+04  0.00000000000E+00 0.  1.
         22    1    1    2    0    0 -0.27446287553E+04 -0.11084969493E+04  0.38414660660E+03  0.29848485902E+04  0.00000000000E+00 0. -1.
<mgrwt>
<rscale>  0 0.60037921E+04</rscale>
<asrwt>0</asrwt>
<pdfrwt beam="1">  1        1 0.44488790E+00 0.60037921E+04</pdfrwt>
<pdfrwt beam="2">  1       -1 0.47941762E+00 0.60037921E+04</pdfrwt>
<totfact> 0.98186118E-04</totfact>
</mgrwt>
</event>
<event>
 6    1  0.1861761E-005  0.3386377E+04  0.7818608E-02  0.8141258E-01
          2   -1    0    0  501    0  0.00000000000E+00  0.00000000000E+00  0.23912950382E+04  0.23912950382E+04  0.00000000000E+00 0. -1.
         -2   -1    0    0    0  501 -0.00000000000E+00 -0.00000000000E+00 -0.11988846250E+04  0.11988846250E+04  0.00000000000E+00 0.  1.
         23    2    1    2    0    0 -0.72990183783E+03  0.66024188589E+02  0.22134246099E+04  0.23333638946E+04  0.90678964767E+02 0.  0.
         13    1    3    3    0    0 -0.25182866278E+03 -0.26805597166E+01  0.65209646819E+03  0.69903838565E+03  0.00000000000E+00 0.  1.
        -13    1    3    3    0    0 -0.47807317505E+03  0.68704748306E+02  0.15613281417E+04  0.16343255090E+04  0.00000000000E+00 0. -1.
         22    1    1    2    0    0  0.72990183783E+03 -0.66024188589E+02 -0.10210141967E+04  0.12568157686E+04  0.00000000000E+00 0.  1.
<mgrwt>
<rscale>  0 0.33863767E+04</rscale>
<asrwt>0</asrwt>
<pdfrwt beam="1">  1        2 0.36789154E+00 0.33863767E+04</pdfrwt>
<pdfrwt beam="2">  1       -2 0.18444379E+00 0.33863767E+04</pdfrwt>
<totfact> 0.56368030E-01</totfact>
</mgrwt>
</event>
<event>
 6    1  0.1762360E-005  0.3693117E+04  0.7818608E-02  0.8069489E-01
         -2   -1    0    0    0  501 -0.00000000000E+00  0.00000000000E+00  0.10863776402E+04  0.10863776402E+04  0.00000000000E+00 0.  1.
          2   -1    0    0  501    0  0.00000000000E+00 -0.00000000000E+00 -0.31386677414E+04  0.31386677414E+04  0.00000000000E+00 0. -1.
         23    2    1    2    0    0  0.10837635731E+04 -0.57298486775E+03 -0.26051832542E+04  0.28802234679E+04  0.76500302130E+02 0.  0.
         11    1    3    3    0    0  0.48708619461E+03 -0.25832238581E+03 -0.12613999268E+04  0.13766311021E+04  0.00000000000E+00 0. -1.
        -11    1    3    3    0    0  0.59667737850E+03 -0.31466248194E+03 -0.13437833275E+04  0.15035923659E+04  0.00000000000E+00 0.  1.
         22    1    1    2    0    0 -0.10837635731E+04  0.57298486775E+03  0.55289315301E+03  0.13448219138E+04  0.00000000000E+00 0.  1.
<mgrwt>
<rscale>  0 0.36931171E+04</rscale>
<asrwt>0</asrwt>
<pdfrwt beam="1">  1        2 0.48287197E+00 0.36931171E+04</pdfrwt>
<pdfrwt beam="2">  1       -2 0.16713502E+00 0.36931171E+04</pdfrwt>
<totfact> 0.25661823E-01</totfact>
</mgrwt>
</event>
<event>
 6    1  0.1762360E-005  0.1566503E+04  0.7818608E-02  0.8841395E-01
         -2   -1    0    0    0  501 -0.00000000000E+00  0.00000000000E+00  0.20296846825E+03  0.20296846825E+03  0.00000000000E+00 0.  1.
          2   -1    0    0  501    0  0.00000000000E+00 -0.00000000000E+00 -0.30225528064E+04  0.30225528064E+04  0.00000000000E+00 0. -1.
         23    2    1    2    0    0  0.15631992155E+03 -0.22247832668E+03 -0.29212217890E+04  0.29352409013E+04  0.90387411775E+02 0.  0.
         13    1    3    3    0    0  0.13141320326E+03 -0.20681921476E+03 -0.27910526282E+04  0.28017884272E+04  0.00000000000E+00 0. -1.
        -13    1    3    3    0    0  0.24906718295E+02 -0.15659111924E+02 -0.13016916086E+03  0.13345247409E+03  0.00000000000E+00 0.  1.
         22    1    1    2    0    0 -0.15631992155E+03  0.22247832668E+03  0.10163745091E+03  0.29028037334E+03  0.00000000000E+00 0.  1.
<mgrwt>
<rscale>  0 0.15665030E+04</rscale>
<asrwt>0</asrwt>
<pdfrwt beam="1">  1        2 0.46500811E+00 0.15665030E+04</pdfrwt>
<pdfrwt beam="2">  1       -2 0.31225919E-01 0.15665030E+04</pdfrwt>
<totfact> 0.15514625E+01</totfact>
</mgrwt>
</event>
<event>
 6    1  0.1762360E-005  0.1225886E+04  0.7818608E-02  0.9090495E-01
         -1   -1    0    0    0  501 -0.00000000000E+00  0.00000000000E+00  0.59331228413E+03  0.59331228413E+03  0.00000000000E+00 0.  1.
          1   -1    0    0  501    0  0.00000000000E+00 -0.00000000000E+00 -0.63322349717E+03  0.63322349717E+03  0.00000000000E+00 0. -1.
         23    2    1    2    0    0  0.20678211995E+03 -0.16215819283E+03 -0.57042778487E+03  0.63450372338E+03  0.90293923332E+02 0.  0.
         13    1    3    3    0    0  0.54158840405E+02 -0.56018505432E+02 -0.88225108820E+02  0.11770693595E+03  0.00000000000E+00 0. -1.
        -13    1    3    3    0    0  0.15262327954E+03 -0.10613968740E+03 -0.48220267605E+03  0.51679678742E+03  0.00000000000E+00 0.  1.
         22    1    1    2    0    0 -0.20678211995E+03  0.16215819283E+03  0.53051657183E+03  0.59203205793E+03  0.00000000000E+00 0.  1.
<mgrwt>
<rscale>  0 0.12258863E+04</rscale>
<asrwt>0</asrwt>
<pdfrwt beam="1">  1        1 0.97419000E-01 0.12258863E+04</pdfrwt>
<pdfrwt beam="2">  1       -1 0.91278813E-01 0.12258863E+04</pdfrwt>
<totfact> 0.36634272E+01</totfact>
</mgrwt>
</event>
<event>
 6    1  0.1762360E-005  0.1040449E+04  0.7818608E-02  0.9265261E-01
         -1   -1    0    0    0  501 -0.00000000000E+00  0.00000000000E+00  0.39398915298E+03  0.39398915298E+03  0.00000000000E+00 0.  1.
          1   -1    0    0  501    0  0.00000000000E+00 -0.00000000000E+00 -0.68690609593E+03  0.68690609593E+03  0.00000000000E+00 0. -1.
         23    2    1    2    0    0 -0.25849805559E+03 -0.44571422806E+03 -0.12035411920E+03  0.53751660931E+03  0.94639174972E+02 0.  0.
         13    1    3    3    0    0 -0.25125811245E+03 -0.40327131562E+03 -0.13157658616E+03  0.49302210001E+03  0.00000000000E+00 0. -1.
        -13    1    3    3    0    0 -0.72399431355E+01 -0.42442912435E+02  0.11222466963E+02  0.44494509294E+02  0.00000000000E+00 0.  1.
         22    1    1    2    0    0  0.25849805559E+03  0.44571422806E+03 -0.17256282375E+03  0.54337863960E+03  0.00000000000E+00 0. -1.
<mgrwt>
<rscale>  0 0.10404490E+04</rscale>
<asrwt>0</asrwt>
<pdfrwt beam="1">  1        1 0.10567786E+00 0.10404490E+04</pdfrwt>
<pdfrwt beam="2">  1       -1 0.60613716E-01 0.10404490E+04</pdfrwt>
<totfact> 0.77415427E+01</totfact>
</mgrwt>
</event>
<event>
 6    1  0.1939011E-005  0.2875404E+04  0.7818608E-02  0.8280233E-01
          2   -1    0    0  501    0  0.00000000000E+00  0.00000000000E+00  0.14928968591E+04  0.14928968591E+04  0.00000000000E+00 0. -1.
         -2   -1    0    0    0  501 -0.00000000000E+00 -0.00000000000E+00 -0.13845478866E+04  0.13845478866E+04  0.00000000000E+00 0.  1.
         23    2    1    2    0    0  0.15045005450E+03 -0.11194542380E+04 -0.83358779990E+03  0.14067109516E+04  0.90299896483E+02 0.  0.
         11    1    3    3    0    0  0.70006322736E+02 -0.62739884686E+03 -0.51827268087E+03  0.81678440852E+03  0.00000000000E+00 0.  1.
        -11    1    3    3    0    0  0.80443731762E+02 -0.49205539112E+03 -0.31531511903E+03  0.58992654306E+03  0.00000000000E+00 0. -1.
         22    1    1    2    0    0 -0.15045005450E+03  0.11194542380E+04  0.94193677243E+03  0.14707337941E+04  0.00000000000E+00 0. -1.
<mgrwt>
<rscale>  0 0.28754041E+04</rscale>
<asrwt>0</asrwt>
<pdfrwt beam="1">  1        2 0.22967644E+00 0.28754041E+04</pdfrwt>
<pdfrwt beam="2">  1       -2 0.21300737E+00 0.28754041E+04</pdfrwt>
<totfact> 0.12135645E+00</totfact>
</mgrwt>
</event>
<event>
 6    1  0.1762360E-005  0.1871717E+04  0.7818608E-02  0.8669064E-01
         -2   -1    0    0    0  501 -0.00000000000E+00  0.00000000000E+00  0.64947688997E+03  0.64947688997E+03  0.00000000000E+00 0. -1.
          2   -1    0    0  501    0  0.00000000000E+00 -0.00000000000E+00 -0.13485180923E+04  0.13485180923E+04  0.00000000000E+00 0.  1.
         23    2    1    2    0    0 -0.61026685701E+03  0.51658109387E+03 -0.86521321633E+03  0.11813587097E+04  0.87936500040E+02 0.  0.
         13    1    3    3    0    0 -0.33853637377E+03  0.34112244437E+03 -0.50069101181E+03  0.69401937129E+03  0.00000000000E+00 0.  1.
        -13    1    3    3    0    0 -0.27173048324E+03  0.17545864951E+03 -0.36452220452E+03  0.48733933845E+03  0.00000000000E+00 0. -1.
         22    1    1    2    0    0  0.61026685701E+03 -0.51658109387E+03  0.16617201404E+03  0.81663627250E+03  0.00000000000E+00 0. -1.
<mgrwt>
<rscale>  0 0.18717172E+04</rscale>
<asrwt>0</asrwt>
<pdfrwt beam="1">  1        2 0.20746432E+00 0.18717172E+04</pdfrwt>
<pdfrwt beam="2">  1       -2 0.99919522E-01 0.18717172E+04</pdfrwt>
<totfact> 0.12037051E+01</totfact>
</mgrwt>
</event>
<event>
 6    1  0.1762360E-005  0.2369752E+04  0.7818608E-02  0.8450916E-01
         -2   -1    0    0    0  501 -0.00000000000E+00  0.00000000000E+00  0.20512587570E+04  0.20512587570E+04  0.00000000000E+00 0.  1.
          2   -1    0    0  501    0  0.00000000000E+00 -0.00000000000E+00 -0.68442414760E+03  0.68442414760E+03  0.00000000000E+00 0. -1.
         23    2    1    2    0    0 -0.99240779426E+03 -0.46485608926E+03  0.11989305451E+04  0.16270097388E+04  0.93604616601E+02 0.  0.
         11    1    3    3    0    0 -0.52938625466E+03 -0.22944177390E+03  0.69525494119E+03  0.90347814998E+03  0.00000000000E+00 0.  1.
        -11    1    3    3    0    0 -0.46302153959E+03 -0.23541431536E+03  0.50367560390E+03  0.72353158879E+03  0.00000000000E+00 0. -1.
         22    1    1    2    0    0  0.99240779426E+03  0.46485608926E+03  0.16790406429E+03  0.11086731658E+04  0.00000000000E+00 0.  1.
<mgrwt>
<rscale>  0 0.23697519E+04</rscale>
<asrwt>0</asrwt>
<pdfrwt beam="1">  1        2 0.10529602E+00 0.23697519E+04</pdfrwt>
<pdfrwt beam="2">  1       -2 0.31557827E+00 0.23697519E+04</pdfrwt>
<totfact> 0.96939786E-01</totfact>
</mgrwt>
</event>
<event>
 6    1  0.1762360E-005  0.2132905E+04  0.7818608E-02  0.8546886E-01
         -2   -1    0    0    0  501 -0.00000000000E+00  0.00000000000E+00  0.66442274329E+03  0.66442274329E+03  0.00000000000E+00 0.  1.
          2   -1    0    0  501    0  0.00000000000E+00 -0.00000000000E+00 -0.17117421987E+04  0.17117421987E+04  0.00000000000E+00 0. -1.
         23    2    1    2    0    0 -0.13741383244E+03  0.57502310890E+03  0.46147493373E+03  0.75567284209E+03  0.92456436767E+02 0.  0.
         11    1    3    3    0    0 -0.97372091228E+02  0.52566265503E+03  0.40576168329E+03  0.67115206523E+03  0.00000000000E+00 0. -1.
        -11    1    3    3    0    0 -0.40041741217E+02  0.49360453868E+02  0.55713250442E+02  0.84520776857E+02  0.00000000000E+00 0.  1.
         22    1    1    2    0    0  0.13741383244E+03 -0.57502310890E+03 -0.15087943892E+04  0.16204920999E+04  0.00000000000E+00 0. -1.
<mgrwt>
<rscale>  0 0.21329045E+04</rscale>
<asrwt>0</asrwt>
<pdfrwt beam="1">  1        2 0.26334496E+00 0.21329045E+04</pdfrwt>
<pdfrwt beam="2">  1       -2 0.10221888E+00 0.21329045E+04</pdfrwt>
<totfact> 0.69605029E+00</totfact>
</mgrwt>
</event>
<event>
 6    1  0.1762360E-005  0.3027427E+04  0.7818608E-02  0.8235942E-01
         -2   -1    0    0    0  501 -0.00000000000E+00  0.00000000000E+00  0.91811870323E+03  0.91811870323E+03  0.00000000000E+00 0.  1.
          2   -1    0    0  501    0  0.00000000000E+00 -0.00000000000E+00 -0.24956782207E+04  0.24956782207E+04  0.00000000000E+00 0. -1.
         23    2    1    2    0    0  0.10856846625E+04  0.48852648262E+03 -0.18411814121E+04  0.21944258509E+04  0.90479349170E+02 0.  0.
         13    1    3    3    0    0  0.79633281984E+03  0.34519769070E+03 -0.14103505543E+04  0.16560181435E+04  0.00000000000E+00 0.  1.
        -13    1    3    3    0    0  0.28935184261E+03  0.14332879191E+03 -0.43083085776E+03  0.53840770742E+03  0.00000000000E+00 0. -1.
         22    1    1    2    0    0 -0.10856846625E+04 -0.48852648262E+03  0.26362189454E+03  0.12193710730E+04  0.00000000000E+00 0.  1.
<mgrwt>
<rscale>  0 0.30274272E+04</rscale>
<asrwt>0</asrwt>
<pdfrwt beam="1">  1        2 0.38395049E+00 0.30274272E+04</pdfrwt>
<pdfrwt beam="2">  1       -2 0.14124903E+00 0.30274272E+04</pdfrwt>
<totfact> 0.10492587E+00</totfact>
</mgrwt>
</event>
<event>
 6    1  0.1762360E-005  0.1213751E+04  0.7818608E-02  0.9100904E-01
          1   -1    0    0  501    0  0.00000000000E+00  0.00000000000E+00  0.27805146283E+04  0.27805146283E+04  0.00000000000E+00 0.  1.
         -1   -1    0    0    0  501 -0.00000000000E+00 -0.00000000000E+00 -0.13245682884E+03  0.13245682884E+03  0.00000000000E+00 0. -1.
         23    2    1    2    0    0  0.10349866699E+03 -0.45700189744E+03  0.42006351403E+03  0.63623668027E+03  0.93707252444E+02 0.  0.
         11    1    3    3    0    0  0.37021658633E+02 -0.20773984923E+03  0.25047381835E+03  0.32751119347E+03  0.00000000000E+00 0.  1.
        -11    1    3    3    0    0  0.66477008354E+02 -0.24926204821E+03  0.16958969568E+03  0.30872548680E+03  0.00000000000E+00 0. -1.
         22    1    1    2    0    0 -0.10349866699E+03  0.45700189744E+03  0.22279942854E+04  0.22767347769E+04  0.00000000000E+00 0.  1.
<mgrwt>
<rscale>  0 0.12137515E+04</rscale>
<asrwt>0</asrwt>
<pdfrwt beam="1">  1        1 0.42777144E+00 0.12137515E+04</pdfrwt>
<pdfrwt beam="2">  1       -1 0.20377976E-01 0.12137515E+04</pdfrwt>
<totfact> 0.17025304E+01</totfact>
</mgrwt>
</event>
<event>
 6    1  0.1762360E-005  0.2729794E+04  0.7818608E-02  0.8325402E-01
         -1   -1    0    0    0  501 -0.00000000000E+00  0.00000000000E+00  0.15507587898E+04  0.15507587898E+04  0.00000000000E+00 0.  1.
          1   -1    0    0  501    0  0.00000000000E+00 -0.00000000000E+00 -0.12013108270E+04  0.12013108270E+04  0.00000000000E+00 0. -1.
         23    2    1    2    0    0  0.60370329318E+03  0.88935293582E+03  0.10210263677E+04  0.14846218408E+04  0.78745515088E+02 0.  0.
         11    1    3    3    0    0  0.17167312175E+03  0.30295864743E+03  0.29786858813E+03  0.45823716412E+03  0.00000000000E+00 0. -1.
        -11    1    3    3    0    0  0.43203017142E+03  0.58639428839E+03  0.72315777957E+03  0.10263846767E+04  0.00000000000E+00 0.  1.
         22    1    1    2    0    0 -0.60370329318E+03 -0.88935293582E+03 -0.67157840490E+03  0.12674477759E+04  0.00000000000E+00 0. -1.
<mgrwt>
<rscale>  0 0.27297936E+04</rscale>
<asrwt>0</asrwt>
<pdfrwt beam="1">  1        1 0.18481705E+00 0.27297936E+04</pdfrwt>
<pdfrwt beam="2">  1       -1 0.23857828E+00 0.27297936E+04</pdfrwt>
<totfact> 0.76922434E-01</totfact>
</mgrwt>
</event>
<event>
 6    1  0.1909160E-005  0.4432261E+04  0.7818608E-02  0.7922604E-01
         -2   -1    0    0    0  501 -0.00000000000E+00  0.00000000000E+00  0.19336907664E+04  0.19336907664E+04  0.00000000000E+00 0.  1.
          2   -1    0    0  501    0  0.00000000000E+00 -0.00000000000E+00 -0.25398243194E+04  0.25398243194E+04  0.00000000000E+00 0. -1.
         23    2    1    2    0    0 -0.92155838398E+03 -0.67963003759E+03 -0.22171263311E+04  0.24970372656E+04  0.91537394990E+02 0.  0.
         11    1    3    3    0    0 -0.70475182522E+03 -0.48810749043E+03 -0.15892705907E+04  0.18057422484E+04  0.00000000000E+00 0. -1.
        -11    1    3    3    0    0 -0.21680655876E+03 -0.19152254716E+03 -0.62785574042E+03  0.69129501717E+03  0.00000000000E+00 0.  1.
         22    1    1    2    0    0  0.92155838398E+03  0.67963003759E+03  0.16109927781E+04  0.19764778203E+04  0.00000000000E+00 0.  1.
<mgrwt>
<rscale>  0 0.44322612E+04</rscale>
<asrwt>0</asrwt>
<pdfrwt beam="1">  1        2 0.39074220E+00 0.44322612E+04</pdfrwt>
<pdfrwt beam="2">  1       -2 0.29749089E+00 0.44322612E+04</pdfrwt>
<totfact> 0.82792536E-02</totfact>
</mgrwt>
</event>
<event>
 6    1  0.1762360E-005  0.1274270E+04  0.7818608E-02  0.9050222E-01
         -2   -1    0    0    0  501 -0.00000000000E+00  0.00000000000E+00  0.28278755323E+03  0.28278755323E+03  0.00000000000E+00 0.  1.
          2   -1    0    0  501    0  0.00000000000E+00 -0.00000000000E+00 -0.14354980466E+04  0.14354980466E+04  0.00000000000E+00 0. -1.
         23    2    1    2    0    0  0.12647087279E+03 -0.60218304165E+03 -0.37280233170E+03  0.72486925310E+03  0.88513039965E+02 0.  0.
         11    1    3    3    0    0 -0.41973743206E+01 -0.14114905569E+03 -0.10453510901E+03  0.17569366207E+03  0.00000000000E+00 0. -1.
        -11    1    3    3    0    0  0.13066824711E+03 -0.46103398596E+03 -0.26826722269E+03  0.54917559103E+03  0.00000000000E+00 0.  1.
         22    1    1    2    0    0 -0.12647087279E+03  0.60218304165E+03 -0.77990816172E+03  0.99341634678E+03  0.00000000000E+00 0. -1.
<mgrwt>
<rscale>  0 0.12742700E+04</rscale>
<asrwt>0</asrwt>
<pdfrwt beam="1">  1        2 0.22084585E+00 0.12742700E+04</pdfrwt>
<pdfrwt beam="2">  1       -2 0.43505777E-01 0.12742700E+04</pdfrwt>
<totfact> 0.67905045E+01</totfact>
</mgrwt>
</event>
<event>
 6    1  0.1762360E-005  0.3179599E+04  0.7818608E-02  0.8194226E-01
          2   -1    0    0  501    0  0.00000000000E+00  0.00000000000E+00  0.15851541883E+04  0.15851541883E+04  0.00000000000E+00 0. -1.
         -2   -1    0    0    0  501 -0.00000000000E+00 -0.00000000000E+00 -0.15944579283E+04  0.15944579283E+04  0.00000000000E+00 0.  1.
         23    2    1    2    0    0 -0.35262706746E+03  0.85234261055E+03 -0.12976790396E+04  0.15950791611E+04  0.97328647694E+02 0.  0.
         11    1    3    3    0    0 -0.14997599178E+03  0.27311352965E+03 -0.38511349324E+03  0.49537480847E+03  0.00000000000E+00 0. -1.
        -11    1    3    3    0    0 -0.20265107568E+03  0.57922908090E+03 -0.91256554640E+03  0.10997043526E+04  0.00000000000E+00 0.  1.
         22    1    1    2    0    0  0.35262706746E+03 -0.85234261055E+03  0.12883752997E+04  0.15845329556E+04  0.00000000000E+00 0. -1.
<mgrwt>
<rscale>  0 0.31795985E+04</rscale>
<asrwt>0</asrwt>
<pdfrwt beam="1">  1        2 0.24386987E+00 0.31795985E+04</pdfrwt>
<pdfrwt beam="2">  1       -2 0.24530122E+00 0.31795985E+04</pdfrwt>
<totfact> 0.65866717E-01</totfact>
</mgrwt>
</event>
<event>
 6    1  0.1762360E-005  0.2532729E+04  0.7818608E-02  0.8391418E-01
         -2   -1    0    0    0  501 -0.00000000000E+00  0.00000000000E+00  0.43166333263E+03  0.43166333263E+03  0.00000000000E+00 0. -1.
          2   -1    0    0  501    0  0.00000000000E+00 -0.00000000000E+00 -0.37151148951E+04  0.37151148951E+04  0.00000000000E+00 0.  1.
         23    2    1    2    0    0 -0.49269435831E+03 -0.60419599958E+03 -0.32743270101E+04  0.33671091992E+04  0.91686713788E+02 0.  0.
         11    1    3    3    0    0 -0.82189591169E+02 -0.14671224630E+03 -0.81128031189E+03  0.82852601442E+03  0.00000000000E+00 0. -1.
        -11    1    3    3    0    0 -0.41050476714E+03 -0.45748375328E+03 -0.24630466982E+04  0.25385831848E+04  0.00000000000E+00 0.  1.
         22    1    1    2    0    0  0.49269435831E+03  0.60419599958E+03 -0.91245523622E+01  0.77966902854E+03  0.00000000000E+00 0. -1.
<mgrwt>
<rscale>  0 0.25327289E+04</rscale>
<asrwt>0</asrwt>
<pdfrwt beam="1">  1        2 0.57155612E+00 0.25327289E+04</pdfrwt>
<pdfrwt beam="2">  1       -2 0.66409745E-01 0.25327289E+04</pdfrwt>
<totfact> 0.10565941E+00</totfact>
</mgrwt>
</event>
<event>
 6    1  0.1762360E-005  0.1974805E+04  0.7818608E-02  0.8618492E-01
          2   -1    0    0  501    0  0.00000000000E+00  0.00000000000E+00  0.21917017337E+04  0.21917017337E+04  0.00000000000E+00 0.  1.
         -2   -1    0    0    0  501 -0.00000000000E+00 -0.00000000000E+00 -0.44484304448E+03  0.44484304448E+03  0.00000000000E+00 0. -1.
         23    2    1    2    0    0 -0.95965197602E+02 -0.75849159225E+02  0.21805019926E+04  0.21859796568E+04  0.94634593629E+02 0.  0.
         13    1    3    3    0    0 -0.52349452691E+02 -0.31670612980E+02  0.42512846009E+03  0.42950867337E+03  0.00000000000E+00 0. -1.
        -13    1    3    3    0    0 -0.43615744911E+02 -0.44178546244E+02  0.17553735325E+04  0.17564709834E+04  0.00000000000E+00 0.  1.
         22    1    1    2    0    0  0.95965197602E+02  0.75849159225E+02 -0.43364330331E+03  0.45056512139E+03  0.00000000000E+00 0. -1.
<mgrwt>
<rscale>  0 0.19748046E+04</rscale>
<asrwt>0</asrwt>
<pdfrwt beam="1">  1        2 0.33718488E+00 0.19748046E+04</pdfrwt>
<pdfrwt beam="2">  1       -2 0.68437392E-01 0.19748046E+04</pdfrwt>
<totfact> 0.94893210E+00</totfact>
</mgrwt>
</event>
<event>
 6    1  0.1762360E-005  0.6379768E+04  0.7818608E-02  0.7645019E-01
          2   -1    0    0  501    0  0.00000000000E+00  0.00000000000E+00  0.28962917806E+04  0.28962917806E+04  0.00000000000E+00 0. -1.
         -2   -1    0    0    0  501 -0.00000000000E+00 -0.00000000000E+00 -0.35132373425E+04  0.35132373425E+04  0.00000000000E+00 0.  1.
         23    2    1    2    0    0 -0.24865011683E+04 -0.33003716124E+03  0.16701663318E+04  0.30150492805E+04  0.97231683465E+02 0.  0.
         13    1    3    3    0    0 -0.14091614759E+04 -0.22719526652E+03  0.98241712230E+03  0.17327715246E+04  0.00000000000E+00 0. -1.
        -13    1    3    3    0    0 -0.10773396923E+04 -0.10284189472E+03  0.68774920954E+03  0.12822777559E+04  0.00000000000E+00 0.  1.
         22    1    1    2    0    0  0.24865011683E+04  0.33003716124E+03 -0.22871118938E+04  0.33944798427E+04  0.00000000000E+00 0.  1.
<mgrwt>
<rscale>  0 0.63797682E+04</rscale>
<asrwt>0</asrwt>
<pdfrwt beam="1">  1        2 0.44558335E+00 0.63797682E+04</pdfrwt>
<pdfrwt beam="2">  1       -2 0.54049805E+00 0.63797682E+04</pdfrwt>
<totfact> 0.12894032E-03</totfact>
</mgrwt>
</event>
<event>
 6    1  0.1762360E-005  0.1379870E+04  0.7818608E-02  0.8968520E-01
          1   -1    0    0  501    0  0.00000000000E+00  0.00000000000E+00  0.17959449998E+04  0.17959449998E+04  0.00000000000E+00 0. -1.
         -1   -1    0    0    0  501 -0.00000000000E+00 -0.00000000000E+00 -0.26504734481E+03  0.26504734481E+03  0.00000000000E+00 0.  1.
         23    2    1    2    0    0 -0.51215864751E+03  0.44296077425E+03  0.92990490248E+03  0.11556123049E+04  0.11043524702E+03 0.  0.
         13    1    3    3    0    0 -0.30974322915E+03  0.23308874039E+03  0.44870092078E+03  0.59296184128E+03  0.00000000000E+00 0. -1.
        -13    1    3    3    0    0 -0.20241541836E+03  0.20987203386E+03  0.48120398170E+03  0.56265046360E+03  0.00000000000E+00 0.  1.
         22    1    1    2    0    0  0.51215864751E+03 -0.44296077425E+03  0.60099275249E+03  0.90538003970E+03  0.00000000000E+00 0.  1.
<mgrwt>
<rscale>  0 0.13798702E+04</rscale>
<asrwt>0</asrwt>
<pdfrwt beam="1">  1        1 0.27629922E+00 0.13798702E+04</pdfrwt>
<pdfrwt beam="2">  1       -1 0.40776516E-01 0.13798702E+04</pdfrwt>
<totfact> 0.23550143E+01</totfact>
</mgrwt>
</event>
<event>
 6    1  0.1762360E-005  0.2786464E+04  0.7818608E-02  0.8307483E-01
         -2   -1    0    0    0  501 -0.00000000000E+00  0.00000000000E+00  0.11012202644E+04  0.11012202644E+04  0.00000000000E+00 0.  1.
          2   -1    0    0  501    0  0.00000000000E+00 -0.00000000000E+00 -0.17626772442E+04  0.17626772442E+04  0.00000000000E+00 0. -1.
         23    2    1    2    0    0  0.10324797078E+04 -0.59168464435E+03  0.41050882742E+03  0.12622684139E+04  0.93268354117E+02 0.  0.
         13    1    3    3    0    0  0.92657690260E+03 -0.55672606047E+03  0.38803255910E+03  0.11485024727E+04  0.00000000000E+00 0.  1.
        -13    1    3    3    0    0  0.10590280520E+03 -0.34958583885E+02  0.22476268319E+02  0.11376594119E+03  0.00000000000E+00 0. -1.
         22    1    1    2    0    0 -0.10324797078E+04  0.59168464435E+03 -0.10719658072E+04  0.16016290948E+04  0.00000000000E+00 0. -1.
<mgrwt>
<rscale>  0 0.27864644E+04</rscale>
<asrwt>0</asrwt>
<pdfrwt beam="1">  1        2 0.27118111E+00 0.27864644E+04</pdfrwt>
<pdfrwt beam="2">  1       -2 0.16941850E+00 0.27864644E+04</pdfrwt>
<totfact> 0.16967495E+00</totfact>
</mgrwt>
</event>
<event>
 6    1  0.1762360E-005  0.1630871E+04  0.7818608E-02  0.8801804E-01
         -2   -1    0    0    0  501 -0.00000000000E+00  0.00000000000E+00  0.38865746664E+03  0.38865746664E+03  0.00000000000E+00 0.  1.
          2   -1    0    0  501    0  0.00000000000E+00 -0.00000000000E+00 -0.17108518193E+04  0.17108518193E+04  0.00000000000E+00 0. -1.
         23    2    1    2    0    0 -0.72769964168E+03  0.41169056643E+02 -0.11267748280E+04  0.13449031302E+04  0.88889013956E+02 0.  0.
         11    1    3    3    0    0 -0.27779176967E+03  0.12286506154E+02 -0.35292098409E+03  0.44930217732E+03  0.00000000000E+00 0. -1.
        -11    1    3    3    0    0 -0.44990787201E+03  0.28882550489E+02 -0.77385384393E+03  0.89560095287E+03  0.00000000000E+00 0.  1.
         22    1    1    2    0    0  0.72769964168E+03 -0.41169056643E+02 -0.19541952468E+03  0.75460615579E+03  0.00000000000E+00 0.  1.
<mgrwt>
<rscale>  0 0.16308713E+04</rscale>
<asrwt>0</asrwt>
<pdfrwt beam="1">  1        2 0.26320798E+00 0.16308713E+04</pdfrwt>
<pdfrwt beam="2">  1       -2 0.59793454E-01 0.16308713E+04</pdfrwt>
<totfact> 0.24135891E+01</totfact>
</mgrwt>
</event>
<event>
 6    1  0.1762360E-005  0.2077157E+04  0.7818608E-02  0.8571373E-01
          1   -1    0    0  501    0  0.00000000000E+00  0.00000000000E+00  0.23597129719E+04  0.23597129719E+04  0.00000000000E+00 0. -1.
         -1   -1    0    0    0  501 -0.00000000000E+00 -0.00000000000E+00 -0.45710873297E+03  0.45710873297E+03  0.00000000000E+00 0.  1.
         23    2    1    2    0    0  0.70808474174E+02 -0.23014577976E+03  0.23203497968E+04  0.23346471815E+04  0.92592454374E+02 0.  0.
         13    1    3    3    0    0  0.30990075108E+02 -0.13753388881E+03  0.92744852764E+03  0.93810272719E+03  0.00000000000E+00 0.  1.
        -13    1    3    3    0    0  0.39818399066E+02 -0.92611890951E+02  0.13929012691E+04  0.13965444543E+04  0.00000000000E+00 0. -1.
         22    1    1    2    0    0 -0.70808474174E+02  0.23014577976E+03 -0.41774555782E+03  0.48217452342E+03  0.00000000000E+00 0.  1.
<mgrwt>
<rscale>  0 0.20771571E+04</rscale>
<asrwt>0</asrwt>
<pdfrwt beam="1">  1        1 0.36303276E+00 0.20771571E+04</pdfrwt>
<pdfrwt beam="2">  1       -1 0.70324422E-01 0.20771571E+04</pdfrwt>
<totfact> 0.31896323E+00</totfact>
</mgrwt>
</event>
<event>
 6    1  0.1762360E-005  0.4410162E+03  0.7818608E-02  0.1030435E+00
          1   -1    0    0  501    0  0.00000000000E+00  0.00000000000E+00  0.73796033703E+03  0.73796033703E+03  0.00000000000E+00 0. -1.
         -1   -1    0    0    0  501 -0.00000000000E+00 -0.00000000000E+00 -0.65889472157E+02  0.65889472157E+02  0.00000000000E+00 0.  1.
         23    2    1    2    0    0 -0.92038202945E+02 -0.17878264699E+03  0.46683111048E+03  0.51652138656E+03  0.91808449454E+02 0.  0.
         11    1    3    3    0    0 -0.72077101362E+02 -0.43502784546E+02  0.18612301520E+03  0.20427769724E+03  0.00000000000E+00 0. -1.
        -11    1    3    3    0    0 -0.19961101583E+02 -0.13527986245E+03  0.28070809528E+03  0.31224368932E+03  0.00000000000E+00 0.  1.
         22    1    1    2    0    0  0.92038202945E+02  0.17878264699E+03  0.20523975439E+03  0.28732842263E+03  0.00000000000E+00 0.  1.
<mgrwt>
<rscale>  0 0.44101618E+03</rscale>
<asrwt>0</asrwt>
<pdfrwt beam="1">  1        1 0.11353235E+00 0.44101618E+03</pdfrwt>
<pdfrwt beam="2">  1       -1 0.10136842E-01 0.44101618E+03</pdfrwt>
<totfact> 0.15577044E+03</totfact>
</mgrwt>
</event>
<event>
 6    1  0.1762360E-005  0.1820202E+04  0.7818608E-02  0.8695630E-01
          3   -1    0    0  501    0  0.00000000000E+00  0.00000000000E+00  0.12010132233E+04  0.12010132233E+04  0.00000000000E+00 0. -1.
         -3   -1    0    0    0  501 -0.00000000000E+00 -0.00000000000E+00 -0.68965395163E+03  0.68965395163E+03  0.00000000000E+00 0.  1.
         23    2    1    2    0    0 -0.59860603623E+03 -0.67069557734E+03  0.38893899692E+03  0.98339187616E+03  0.87317207402E+02 0.  0.
         13    1    3    3    0    0 -0.22095749097E+03 -0.30937134413E+03  0.14983522357E+03  0.40863606743E+03  0.00000000000E+00 0. -1.
        -13    1    3    3    0    0 -0.37764854526E+03 -0.36132423321E+03  0.23910377335E+03  0.57475580873E+03  0.00000000000E+00 0.  1.
         22    1    1    2    0    0  0.59860603623E+03  0.67069557734E+03  0.12242027475E+03  0.90727529876E+03  0.00000000000E+00 0. -1.
<mgrwt>
<rscale>  0 0.18202017E+04</rscale>
<asrwt>0</asrwt>
<pdfrwt beam="1">  1        3 0.18477127E+00 0.18202017E+04</pdfrwt>
<pdfrwt beam="2">  1       -3 0.10610061E+00 0.18202017E+04</pdfrwt>
<totfact> 0.34585706E-01</totfact>
</mgrwt>
</event>
<event>
 6    1  0.1762360E-005  0.2378308E+04  0.7818608E-02  0.8447670E-01
          2   -1    0    0  501    0  0.00000000000E+00  0.00000000000E+00  0.10189682025E+04  0.10189682025E+04  0.00000000000E+00 0. -1.
         -2   -1    0    0    0  501 -0.00000000000E+00 -0.00000000000E+00 -0.13877639118E+04  0.13877639118E+04  0.00000000000E+00 0.  1.
         23    2    1    2    0    0  0.37156853481E+03 -0.14863763684E+03 -0.13159978157E+04  0.13784577573E+04  0.90217595507E+02 0.  0.
         13    1    3    3    0    0  0.20261672629E+03 -0.58726443120E+02 -0.55435893933E+03  0.59314093309E+03  0.00000000000E+00 0.  1.
        -13    1    3    3    0    0  0.16895180852E+03 -0.89911193721E+02 -0.76163887636E+03  0.78531682418E+03  0.00000000000E+00 0. -1.
         22    1    1    2    0    0 -0.37156853481E+03  0.14863763684E+03  0.94720210634E+03  0.10282743571E+04  0.00000000000E+00 0. -1.
<mgrwt>
<rscale>  0 0.23783081E+04</rscale>
<asrwt>0</asrwt>
<pdfrwt beam="1">  1        2 0.15676434E+00 0.23783081E+04</pdfrwt>
<pdfrwt beam="2">  1       -2 0.21350214E+00 0.23783081E+04</pdfrwt>
<totfact> 0.23984555E+00</totfact>
</mgrwt>
</event>
<event>
 6    1  0.1762360E-005  0.1713624E+04  0.7818608E-02  0.8753632E-01
          1   -1    0    0  501    0  0.00000000000E+00  0.00000000000E+00  0.17054073368E+04  0.17054073368E+04  0.00000000000E+00 0. -1.
         -1   -1    0    0    0  501 -0.00000000000E+00 -0.00000000000E+00 -0.43047018038E+03  0.43047018038E+03  0.00000000000E+00 0.  1.
         23    2    1    2    0    0 -0.66472734431E+02 -0.45655889651E+03  0.15355561526E+04  0.16059842151E+04  0.91585756945E+02 0.  0.
         11    1    3    3    0    0 -0.87931183778E+02 -0.39198135581E+03  0.12830842788E+04  0.13445023402E+04  0.00000000000E+00 0.  1.
        -11    1    3    3    0    0  0.21458449347E+02 -0.64577540702E+02  0.25247187385E+03  0.26148187489E+03  0.00000000000E+00 0. -1.
         22    1    1    2    0    0  0.66472734431E+02  0.45655889651E+03 -0.26061899621E+03  0.52989330208E+03  0.00000000000E+00 0.  1.
<mgrwt>
<rscale>  0 0.17136242E+04</rscale>
<asrwt>0</asrwt>
<pdfrwt beam="1">  1        1 0.26237036E+00 0.17136242E+04</pdfrwt>
<pdfrwt beam="2">  1       -1 0.66226182E-01 0.17136242E+04</pdfrwt>
<totfact> 0.10378546E+01</totfact>
</mgrwt>
</event>
<event>
 6    1  0.1762360E-005  0.1161046E+04  0.7818608E-02  0.9147653E-01
         -1   -1    0    0    0  501 -0.00000000000E+00  0.00000000000E+00  0.29642081610E+03  0.29642081610E+03  0.00000000000E+00 0.  1.
          1   -1    0    0  501    0  0.00000000000E+00 -0.00000000000E+00 -0.11369215542E+04  0.11369215542E+04  0.00000000000E+00 0. -1.
         23    2    1    2    0    0 -0.29925041535E+03  0.34573454425E+03  0.11773707947E+02  0.46615318634E+03  0.89872057751E+02 0.  0.
         11    1    3    3    0    0 -0.17924184869E+03  0.14688067269E+03  0.27494236613E+02  0.23336131938E+03  0.00000000000E+00 0. -1.
        -11    1    3    3    0    0 -0.12000856665E+03  0.19885387156E+03 -0.15720528666E+02  0.23279186697E+03  0.00000000000E+00 0.  1.
         22    1    1    2    0    0  0.29925041535E+03 -0.34573454425E+03 -0.85227444600E+03  0.96718918392E+03  0.00000000000E+00 0. -1.
<mgrwt>
<rscale>  0 0.11610465E+04</rscale>
<asrwt>0</asrwt>
<pdfrwt beam="1">  1        1 0.17491101E+00 0.11610465E+04</pdfrwt>
<pdfrwt beam="2">  1       -1 0.45603202E-01 0.11610465E+04</pdfrwt>
<totfact> 0.56367988E+01</totfact>
</mgrwt>
</event>
<event>
 6    1  0.1762360E-005  0.1329885E+04  0.7818608E-02  0.9006196E-01
         -2   -1    0    0    0  501 -0.00000000000E+00  0.00000000000E+00  0.24082914786E+03  0.24082914786E+03  0.00000000000E+00 0.  1.
          2   -1    0    0  501    0  0.00000000000E+00 -0.00000000000E+00 -0.18359437668E+04  0.18359437668E+04  0.00000000000E+00 0. -1.
         23    2    1    2    0    0  0.42708942516E+03  0.38757666577E+03 -0.13082038215E+04  0.14326154381E+04  0.91480631573E+02 0.  0.
         11    1    3    3    0    0  0.23638668804E+03  0.23013992011E+03 -0.85298028021E+03  0.91455913288E+03  0.00000000000E+00 0. -1.
        -11    1    3    3    0    0  0.19070273711E+03  0.15743674566E+03 -0.45522354129E+03  0.51805630522E+03  0.00000000000E+00 0.  1.
         22    1    1    2    0    0 -0.42708942516E+03 -0.38757666577E+03 -0.28691079745E+03  0.64415747657E+03  0.00000000000E+00 0.  1.
<mgrwt>
<rscale>  0 0.13298854E+04</rscale>
<asrwt>0</asrwt>
<pdfrwt beam="1">  1        2 0.28245289E+00 0.13298854E+04</pdfrwt>
<pdfrwt beam="2">  1       -2 0.37050638E-01 0.13298854E+04</pdfrwt>
<totfact> 0.55354689E+01</totfact>
</mgrwt>
</event>
<event>
 6    1  0.1762360E-005  0.4148336E+04  0.7818608E-02  0.7975273E-01
         -2   -1    0    0    0  501 -0.00000000000E+00  0.00000000000E+00  0.12592157966E+04  0.12592157966E+04  0.00000000000E+00 0.  1.
          2   -1    0    0  501    0  0.00000000000E+00 -0.00000000000E+00 -0.34165486931E+04  0.34165486931E+04  0.00000000000E+00 0. -1.
         23    2    1    2    0    0  0.18815623378E+02  0.55613685396E+03 -0.33301788406E+04  0.33776081676E+04  0.92214940613E+02 0.  0.
         13    1    3    3    0    0  0.37994916533E+02  0.26304829123E+03 -0.13694559848E+04  0.13950081403E+04  0.00000000000E+00 0.  1.
        -13    1    3    3    0    0 -0.19179293155E+02  0.29308856273E+03 -0.19607228558E+04  0.19826000273E+04  0.00000000000E+00 0. -1.
         22    1    1    2    0    0 -0.18815623378E+02 -0.55613685396E+03  0.11728459441E+04  0.12981563221E+04  0.00000000000E+00 0.  1.
<mgrwt>
<rscale>  0 0.41483356E+04</rscale>
<asrwt>0</asrwt>
<pdfrwt beam="1">  1        2 0.52562287E+00 0.41483356E+04</pdfrwt>
<pdfrwt beam="2">  1       -2 0.19372551E+00 0.41483356E+04</pdfrwt>
<totfact> 0.10579631E-01</totfact>
</mgrwt>
</event>
<event>
 6    1  0.1762360E-005  0.1017155E+04  0.7818608E-02  0.9289927E-01
          2   -1    0    0  501    0  0.00000000000E+00  0.00000000000E+00  0.16020237772E+03  0.16020237772E+03  0.00000000000E+00 0. -1.
         -2   -1    0    0    0  501 -0.00000000000E+00 -0.00000000000E+00 -0.16145275409E+04  0.16145275409E+04  0.00000000000E+00 0.  1.
         23    2    1    2    0    0 -0.21741199323E+03 -0.40819195048E+03 -0.38125116559E+03  0.60623668049E+03  0.91004495883E+02 0.  0.
         13    1    3    3    0    0 -0.38813787319E+02 -0.93029261160E+02 -0.39632754088E+02  0.10831301267E+03  0.00000000000E+00 0.  1.
        -13    1    3    3    0    0 -0.17859820591E+03 -0.31516268932E+03 -0.34161841150E+03  0.49792366781E+03  0.00000000000E+00 0. -1.
         22    1    1    2    0    0  0.21741199323E+03  0.40819195048E+03 -0.10730739975E+04  0.11684932381E+04  0.00000000000E+00 0.  1.
<mgrwt>
<rscale>  0 0.10171552E+04</rscale>
<asrwt>0</asrwt>
<pdfrwt beam="1">  1        2 0.24646521E-01 0.10171552E+04</pdfrwt>
<pdfrwt beam="2">  1       -2 0.24838884E+00 0.10171552E+04</pdfrwt>
<totfact> 0.14714999E+01</totfact>
</mgrwt>
</event>
<event>
 6    1  0.1762360E-005  0.5717708E+04  0.7818608E-02  0.7726423E-01
          2   -1    0    0  501    0  0.00000000000E+00  0.00000000000E+00  0.43365721290E+04  0.43365721290E+04  0.00000000000E+00 0. -1.
         -2   -1    0    0    0  501 -0.00000000000E+00 -0.00000000000E+00 -0.18846791287E+04  0.18846791287E+04  0.00000000000E+00 0.  1.
         23    2    1    2    0    0  0.21337867615E+04  0.16121513901E+04  0.12911932962E+03  0.26790265933E+04  0.91834841448E+02 0.  0.
         11    1    3    3    0    0  0.47294162493E+03  0.39896445857E+03  0.49773666280E+02  0.62074458326E+03  0.00000000000E+00 0.  1.
        -11    1    3    3    0    0  0.16608451366E+04  0.12131869315E+04  0.79345663345E+02  0.20582820100E+04  0.00000000000E+00 0. -1.
         22    1    1    2    0    0 -0.21337867615E+04 -0.16121513901E+04  0.23227736707E+04  0.35422246644E+04  0.00000000000E+00 0. -1.
<mgrwt>
<rscale>  0 0.57177083E+04</rscale>
<asrwt>0</asrwt>
<pdfrwt beam="1">  1        2 0.66716494E+00 0.57177083E+04</pdfrwt>
<pdfrwt beam="2">  1       -2 0.28995064E+00 0.57177083E+04</pdfrwt>
<totfact> 0.43865775E-03</totfact>
</mgrwt>
</event>
<event>
 6    1  0.1762360E-005  0.4818167E+04  0.7818608E-02  0.7857186E-01
         -2   -1    0    0    0  501 -0.00000000000E+00  0.00000000000E+00  0.31968158704E+04  0.31968158704E+04  0.00000000000E+00 0.  1.
          2   -1    0    0  501    0  0.00000000000E+00 -0.00000000000E+00 -0.18154576805E+04  0.18154576805E+04  0.00000000000E+00 0. -1.
         23    2    1    2    0    0  0.56373029381E+03  0.11862920579E+04  0.27907822974E+04  0.30857333863E+04  0.90575985280E+02 0.  0.
         13    1    3    3    0    0  0.22635871839E+03  0.48865360021E+03  0.12491067190E+04  0.13602529933E+04  0.00000000000E+00 0.  1.
        -13    1    3    3    0    0  0.33737157542E+03  0.69763845773E+03  0.15416755784E+04  0.17254803930E+04  0.00000000000E+00 0. -1.
         22    1    1    2    0    0 -0.56373029381E+03 -0.11862920579E+04 -0.14094241075E+04  0.19265401646E+04  0.00000000000E+00 0. -1.
<mgrwt>
<rscale>  0 0.48181673E+04</rscale>
<asrwt>0</asrwt>
<pdfrwt beam="1">  1        2 0.27930118E+00 0.48181673E+04</pdfrwt>
<pdfrwt beam="2">  1       -2 0.49181783E+00 0.48181673E+04</pdfrwt>
<totfact> 0.11657184E-02</totfact>
</mgrwt>
</event>
<event>
 6    1  0.1762360E-005  0.6359891E+03  0.7818608E-02  0.9833431E-01
          1   -1    0    0  501    0  0.00000000000E+00  0.00000000000E+00  0.19239377771E+03  0.19239377771E+03  0.00000000000E+00 0. -1.
         -1   -1    0    0    0  501 -0.00000000000E+00 -0.00000000000E+00 -0.52559155744E+03  0.52559155744E+03  0.00000000000E+00 0.  1.
         23    2    1    2    0    0 -0.32485547274E+02 -0.31008026074E+03 -0.16419460552E+03  0.36334868761E+03  0.88641533268E+02 0.  0.
         13    1    3    3    0    0 -0.10622313778E+02 -0.23302621770E+03 -0.78675566176E+02  0.24617858639E+03  0.00000000000E+00 0. -1.
        -13    1    3    3    0    0 -0.21863233496E+02 -0.77054043043E+02 -0.85519039345E+02  0.11717010121E+03  0.00000000000E+00 0.  1.
         22    1    1    2    0    0  0.32485547274E+02  0.31008026074E+03 -0.16900317421E+03  0.35463664754E+03  0.00000000000E+00 0. -1.
<mgrwt>
<rscale>  0 0.63598914E+03</rscale>
<asrwt>0</asrwt>
<pdfrwt beam="1">  1        1 0.29599042E-01 0.63598914E+03</pdfrwt>
<pdfrwt beam="2">  1       -1 0.80860241E-01 0.63598914E+03</pdfrwt>
<totfact> 0.24233915E+02</totfact>
</mgrwt>
</event>
<event>
 6    1  0.1762360E-005  0.5283020E+04  0.7818608E-02  0.7786272E-01
         -2   -1    0    0    0  501 -0.00000000000E+00  0.00000000000E+00  0.16307838513E+04  0.16307838513E+04  0.00000000000E+00 0. -1.
          2   -1    0    0  501    0  0.00000000000E+00 -0.00000000000E+00 -0.42786639642E+04  0.42786639642E+04  0.00000000000E+00 0.  1.
         23    2    1    2    0    0 -0.14293021434E+04  0.69347169000E+03 -0.36838177295E+04  0.40128787165E+04  0.94206833100E+02 0.  0.
         11    1    3    3    0    0 -0.96250556409E+03  0.49376417483E+03 -0.24128547256E+04  0.26442556511E+04  0.00000000000E+00 0. -1.
        -11    1    3    3    0    0 -0.46679657927E+03  0.19970751517E+03 -0.12709630039E+04  0.13686230655E+04  0.00000000000E+00 0.  1.
         22    1    1    2    0    0  0.14293021434E+04 -0.69347169000E+03  0.10359376166E+04  0.18965690990E+04  0.00000000000E+00 0. -1.
<mgrwt>
<rscale>  0 0.52830204E+04</rscale>
<asrwt>0</asrwt>
<pdfrwt beam="1">  1        2 0.65825598E+00 0.52830204E+04</pdfrwt>
<pdfrwt beam="2">  1       -2 0.25088983E+00 0.52830204E+04</pdfrwt>
<totfact> 0.88876350E-03</totfact>
</mgrwt>
</event>
<event>
 6    1  0.1762360E-005  0.1134833E+04  0.7818608E-02  0.9171891E-01
          2   -1    0    0  501    0  0.00000000000E+00  0.00000000000E+00  0.28039092965E+03  0.28039092965E+03  0.00000000000E+00 0. -1.
         -2   -1    0    0    0  501 -0.00000000000E+00 -0.00000000000E+00 -0.11482598075E+04  0.11482598075E+04  0.00000000000E+00 0.  1.
         23    2    1    2    0    0  0.64573161698E+02 -0.29895248627E+03  0.15829961015E+03  0.35787342697E+03  0.97325951854E+02 0.  0.
         11    1    3    3    0    0  0.81184624329E+02 -0.15376213139E+03  0.72316527595E+02  0.18831732910E+03  0.00000000000E+00 0.  1.
        -11    1    3    3    0    0 -0.16611462631E+02 -0.14519035488E+03  0.85983082550E+02  0.16955609787E+03  0.00000000000E+00 0. -1.
         22    1    1    2    0    0 -0.64573161698E+02  0.29895248627E+03 -0.10261684880E+04  0.10707773102E+04  0.00000000000E+00 0.  1.
<mgrwt>
<rscale>  0 0.11348333E+04</rscale>
<asrwt>0</asrwt>
<pdfrwt beam="1">  1        2 0.43137066E-01 0.11348333E+04</pdfrwt>
<pdfrwt beam="2">  1       -2 0.17665535E+00 0.11348333E+04</pdfrwt>
<totfact> 0.22417355E+01</totfact>
</mgrwt>
</event>
<event>
 6    1  0.1762360E-005  0.6213636E+03  0.7818608E-02  0.9862049E-01
         -2   -1    0    0    0  501 -0.00000000000E+00  0.00000000000E+00  0.94925188394E+02  0.94925188394E+02  0.00000000000E+00 0.  1.
          2   -1    0    0  501    0  0.00000000000E+00 -0.00000000000E+00 -0.10168341996E+04  0.10168341996E+04  0.00000000000E+00 0. -1.
         23    2    1    2    0    0 -0.85964470917E+02  0.11754693396E+03 -0.94840862925E+03  0.96374114007E+03  0.90060452429E+02 0.  0.
         13    1    3    3    0    0 -0.30236522323E+02  0.74557785478E+02 -0.72642604486E+03  0.73086791509E+03  0.00000000000E+00 0.  1.
        -13    1    3    3    0    0 -0.55727948594E+02  0.42989148485E+02 -0.22198258439E+03  0.23287322498E+03  0.00000000000E+00 0. -1.
         22    1    1    2    0    0  0.85964470917E+02 -0.11754693396E+03  0.26499618091E+02  0.14801824787E+03  0.00000000000E+00 0.  1.
<mgrwt>
<rscale>  0 0.62136359E+03</rscale>
<asrwt>0</asrwt>
<pdfrwt beam="1">  1        2 0.15643604E+00 0.62136359E+03</pdfrwt>
<pdfrwt beam="2">  1       -2 0.14603874E-01 0.62136359E+03</pdfrwt>
<totfact> 0.90804963E+02</totfact>
</mgrwt>
</event>
<event>
 6    1  0.1762360E-005  0.2800145E+04  0.7818608E-02  0.8303223E-01
         -2   -1    0    0    0  501 -0.00000000000E+00  0.00000000000E+00  0.19254813813E+04  0.19254813813E+04  0.00000000000E+00 0.  1.
          2   -1    0    0  501    0  0.00000000000E+00 -0.00000000000E+00 -0.10180324880E+04  0.10180324880E+04  0.00000000000E+00 0. -1.
         23    2    1    2    0    0  0.52253545510E+03  0.12032825336E+04  0.96383977953E+03  0.16304593808E+04  0.92078848834E+02 0.  0.
         11    1    3    3    0    0  0.27278489881E+03  0.74031695685E+03  0.57055283296E+03  0.97365873530E+03  0.00000000000E+00 0.  1.
        -11    1    3    3    0    0  0.24975055629E+03  0.46296557678E+03  0.39328694657E+03  0.65680064555E+03  0.00000000000E+00 0. -1.
         22    1    1    2    0    0 -0.52253545510E+03 -0.12032825336E+04 -0.56390886168E+02  0.13130544884E+04  0.00000000000E+00 0. -1.
<mgrwt>
<rscale>  0 0.28001447E+04</rscale>
<asrwt>0</asrwt>
<pdfrwt beam="1">  1        2 0.15662038E+00 0.28001447E+04</pdfrwt>
<pdfrwt beam="2">  1       -2 0.29622791E+00 0.28001447E+04</pdfrwt>
<totfact> 0.71534394E-01</totfact>
</mgrwt>
</event>
<event>
 6    1  0.1762360E-005  0.2340372E+04  0.7818608E-02  0.8462171E-01
         -2   -1    0    0    0  501 -0.00000000000E+00  0.00000000000E+00  0.96885663768E+03  0.96885663768E+03  0.00000000000E+00 0.  1.
          2   -1    0    0  501    0  0.00000000000E+00 -0.00000000000E+00 -0.14133522770E+04  0.14133522770E+04  0.00000000000E+00 0. -1.
         23    2    1    2    0    0 -0.10312866613E+04 -0.54517463042E+03 -0.29032266944E+03  0.12055454708E+04  0.91022383607E+02 0.  0.
         11    1    3    3    0    0 -0.69558101741E+03 -0.32687080297E+03 -0.16636519441E+03  0.78635542316E+03  0.00000000000E+00 0. -1.
        -11    1    3    3    0    0 -0.33570564393E+03 -0.21830382746E+03 -0.12395747504E+03  0.41919004767E+03  0.00000000000E+00 0.  1.
         22    1    1    2    0    0  0.10312866613E+04  0.54517463042E+03 -0.15417296990E+03  0.11766634439E+04  0.00000000000E+00 0. -1.
<mgrwt>
<rscale>  0 0.23403724E+04</rscale>
<asrwt>0</asrwt>
<pdfrwt beam="1">  1        2 0.21743881E+00 0.23403724E+04</pdfrwt>
<pdfrwt beam="2">  1       -2 0.14905487E+00 0.23403724E+04</pdfrwt>
<totfact> 0.39151741E+00</totfact>
</mgrwt>
</event>
<event>
 6    1  0.1762360E-005  0.4120887E+03  0.7818608E-02  0.1039672E+00
          2   -1    0    0  501    0  0.00000000000E+00  0.00000000000E+00  0.15139907537E+04  0.15139907537E+04  0.00000000000E+00 0. -1.
         -2   -1    0    0    0  501 -0.00000000000E+00 -0.00000000000E+00 -0.28041306037E+02  0.28041306037E+02  0.00000000000E+00 0.  1.
         23    2    1    2    0    0  0.17079837875E+03  0.75972260072E+02  0.99142536712E+03  0.10133564156E+04  0.94989978184E+02 0.  0.
         11    1    3    3    0    0  0.16965704322E+03  0.44165024873E+02  0.88818681301E+03  0.90532307854E+03  0.00000000000E+00 0. -1.
        -11    1    3    3    0    0  0.11413355235E+01  0.31807235199E+02  0.10323855411E+03  0.10803333704E+03  0.00000000000E+00 0.  1.
         22    1    1    2    0    0 -0.17079837875E+03 -0.75972260072E+02  0.49452408054E+03  0.52867564415E+03  0.00000000000E+00 0. -1.
<mgrwt>
<rscale>  0 0.41208872E+03</rscale>
<asrwt>0</asrwt>
<pdfrwt beam="1">  1        2 0.23292159E+00 0.41208872E+03</pdfrwt>
<pdfrwt beam="2">  1       -2 0.43140483E-02 0.41208872E+03</pdfrwt>
<totfact> 0.32878473E+03</totfact>
</mgrwt>
</event>
<event>
 6    1  0.1762360E-005  0.4308259E+04  0.7818608E-02  0.7945093E-01
         -2   -1    0    0    0  501 -0.00000000000E+00  0.00000000000E+00  0.15827043258E+04  0.15827043258E+04  0.00000000000E+00 0.  1.
          2   -1    0    0  501    0  0.00000000000E+00 -0.00000000000E+00 -0.29318641054E+04  0.29318641054E+04  0.00000000000E+00 0. -1.
         23    2    1    2    0    0  0.17805863207E+04 -0.11076440980E+04 -0.16280033736E+03  0.21052507229E+04  0.90628710751E+02 0.  0.
         13    1    3    3    0    0  0.48090908967E+03 -0.33098732626E+03 -0.75752839096E+02  0.58869742254E+03  0.00000000000E+00 0.  1.
        -13    1    3    3    0    0  0.12996772310E+04 -0.77665677174E+03 -0.87047498263E+02  0.15165533003E+04  0.00000000000E+00 0. -1.
         22    1    1    2    0    0 -0.17805863207E+04  0.11076440980E+04 -0.11863594423E+04  0.24093177083E+04  0.00000000000E+00 0. -1.
<mgrwt>
<rscale>  0 0.43082590E+04</rscale>
<asrwt>0</asrwt>
<pdfrwt beam="1">  1        2 0.45105601E+00 0.43082590E+04</pdfrwt>
<pdfrwt beam="2">  1       -2 0.24349298E+00 0.43082590E+04</pdfrwt>
<totfact> 0.10408998E-01</totfact>
</mgrwt>
</event>
<event>
 6    1  0.1762360E-005  0.2179010E+04  0.7818608E-02  0.8527216E-01
          1   -1    0    0  501    0  0.00000000000E+00  0.00000000000E+00  0.25698893540E+04  0.25698893540E+04  0.00000000000E+00 0. -1.
         -1   -1    0    0    0  501 -0.00000000000E+00 -0.00000000000E+00 -0.46189591258E+03  0.46189591258E+03  0.00000000000E+00 0.  1.
         23    2    1    2    0    0  0.99293879674E+03 -0.31656534900E+03  0.62629234126E+03  0.12202723010E+04  0.10335046015E+03 0.  0.
         11    1    3    3    0    0  0.59842568289E+03 -0.13737161094E+03  0.36729968441E+03  0.71546720092E+03  0.00000000000E+00 0. -1.
        -11    1    3    3    0    0  0.39451311385E+03 -0.17919373806E+03  0.25899265685E+03  0.50480510007E+03  0.00000000000E+00 0.  1.
         22    1    1    2    0    0 -0.99293879674E+03  0.31656534900E+03  0.14817011002E+04  0.18115129656E+04  0.00000000000E+00 0. -1.
<mgrwt>
<rscale>  0 0.21790102E+04</rscale>
<asrwt>0</asrwt>
<pdfrwt beam="1">  1        1 0.39536758E+00 0.21790102E+04</pdfrwt>
<pdfrwt beam="2">  1       -1 0.71060911E-01 0.21790102E+04</pdfrwt>
<totfact> 0.22131117E+00</totfact>
</mgrwt>
</event>
<event>
 6    1  0.1762360E-005  0.7779782E+03  0.7818608E-02  0.9592451E-01
         -2   -1    0    0    0  501 -0.00000000000E+00  0.00000000000E+00  0.10869250606E+03  0.10869250606E+03  0.00000000000E+00 0.  1.
          2   -1    0    0  501    0  0.00000000000E+00 -0.00000000000E+00 -0.13921155125E+04  0.13921155125E+04  0.00000000000E+00 0. -1.
         23    2    1    2    0    0 -0.28072890659E+03  0.71553593303E+02 -0.16896261336E+03  0.34930873351E+03  0.97670829215E+02 0.  0.
         13    1    3    3    0    0 -0.13596539967E+03  0.18747268815E+02 -0.27192094758E+02  0.13991947689E+03  0.00000000000E+00 0.  1.
        -13    1    3    3    0    0 -0.14476350692E+03  0.52806324487E+02 -0.14177051860E+03  0.20938925661E+03  0.00000000000E+00 0. -1.
         22    1    1    2    0    0  0.28072890659E+03 -0.71553593303E+02 -0.11144603931E+04  0.11514992851E+04  0.00000000000E+00 0. -1.
<mgrwt>
<rscale>  0 0.77797821E+03</rscale>
<asrwt>0</asrwt>
<pdfrwt beam="1">  1        2 0.21417161E+00 0.77797821E+03</pdfrwt>
<pdfrwt beam="2">  1       -2 0.16721924E-01 0.77797821E+03</pdfrwt>
<totfact> 0.42960989E+02</totfact>
</mgrwt>
</event>
<event>
 6    1  0.1762360E-005  0.1895825E+04  0.7818608E-02  0.8656937E-01
          2   -1    0    0  501    0  0.00000000000E+00  0.00000000000E+00  0.19405764704E+04  0.19405764704E+04  0.00000000000E+00 0. -1.
         -2   -1    0    0    0  501 -0.00000000000E+00 -0.00000000000E+00 -0.46302644335E+03  0.46302644335E+03  0.00000000000E+00 0.  1.
         23    2    1    2    0    0 -0.43715983653E+03 -0.31117406211E+03 -0.24730087133E+03  0.59721185940E+03  0.86984277039E+02 0.  0.
         11    1    3    3    0    0 -0.32820256847E+03 -0.27669817243E+03 -0.19218336505E+03  0.47033312703E+03  0.00000000000E+00 0.  1.
        -11    1    3    3    0    0 -0.10895726806E+03 -0.34475889679E+02 -0.55117506273E+02  0.12687873238E+03  0.00000000000E+00 0. -1.
         22    1    1    2    0    0  0.43715983653E+03  0.31117406211E+03  0.17248508983E+04  0.18063910543E+04  0.00000000000E+00 0. -1.
<mgrwt>
<rscale>  0 0.18958251E+04</rscale>
<asrwt>0</asrwt>
<pdfrwt beam="1">  1        2 0.29855022E+00 0.18958251E+04</pdfrwt>
<pdfrwt beam="2">  1       -2 0.71234838E-01 0.18958251E+04</pdfrwt>
<totfact> 0.12082873E+01</totfact>
</mgrwt>
</event>
<event>
 6    1  0.1762360E-005  0.1504318E+04  0.7818608E-02  0.8881587E-01
          1   -1    0    0  501    0  0.00000000000E+00  0.00000000000E+00  0.13690356586E+04  0.13690356586E+04  0.00000000000E+00 0. -1.
         -1   -1    0    0    0  501 -0.00000000000E+00 -0.00000000000E+00 -0.41324189492E+03  0.41324189492E+03  0.00000000000E+00 0.  1.
         23    2    1    2    0    0  0.64772090076E+03  0.66449977833E+02  0.91946373617E+03  0.11301442575E+04  0.88625706011E+02 0.  0.
         11    1    3    3    0    0  0.52639310467E+03  0.59784125155E+02  0.68394036620E+03  0.86512326682E+03  0.00000000000E+00 0. -1.
        -11    1    3    3    0    0  0.12132779609E+03  0.66658526788E+01  0.23552336997E+03  0.26502099067E+03  0.00000000000E+00 0.  1.
         22    1    1    2    0    0 -0.64772090076E+03 -0.66449977833E+02  0.36330027468E+02  0.65213329598E+03  0.00000000000E+00 0.  1.
<mgrwt>
<rscale>  0 0.15043176E+04</rscale>
<asrwt>0</asrwt>
<pdfrwt beam="1">  1        1 0.21062087E+00 0.15043176E+04</pdfrwt>
<pdfrwt beam="2">  1       -1 0.63575677E-01 0.15043176E+04</pdfrwt>
<totfact> 0.19602142E+01</totfact>
</mgrwt>
</event>
<event>
 6    1  0.1883797E-005  0.2233218E+04  0.7818608E-02  0.8504728E-01
         -2   -1    0    0    0  501 -0.00000000000E+00  0.00000000000E+00  0.94271281979E+03  0.94271281979E+03  0.00000000000E+00 0. -1.
          2   -1    0    0  501    0  0.00000000000E+00 -0.00000000000E+00 -0.13225821221E+04  0.13225821221E+04  0.00000000000E+00 0.  1.
         23    2    1    2    0    0  0.94484603392E+02  0.70444747061E+03  0.68084391409E+03  0.98846836535E+03  0.91365720170E+02 0.  0.
         11    1    3    3    0    0  0.99726690245E+02  0.48947628489E+03  0.50936340869E+03  0.71343081537E+03  0.00000000000E+00 0.  1.
        -11    1    3    3    0    0 -0.52420868528E+01  0.21497118572E+03  0.17148050541E+03  0.27503754998E+03  0.00000000000E+00 0. -1.
         22    1    1    2    0    0 -0.94484603392E+02 -0.70444747061E+03 -0.10607132164E+04  0.12768265766E+04  0.00000000000E+00 0.  1.
<mgrwt>
<rscale>  0 0.22332175E+04</rscale>
<asrwt>0</asrwt>
<pdfrwt beam="1">  1        2 0.20347417E+00 0.22332175E+04</pdfrwt>
<pdfrwt beam="2">  1       -2 0.14503274E+00 0.22332175E+04</pdfrwt>
<totfact> 0.47884471E+00</totfact>
</mgrwt>
</event>
<event>
 6    1  0.2023069E-005  0.2874073E+04  0.7818608E-02  0.8280634E-01
         -2   -1    0    0    0  501 -0.00000000000E+00  0.00000000000E+00  0.10022620955E+04  0.10022620955E+04  0.00000000000E+00 0.  1.
          2   -1    0    0  501    0  0.00000000000E+00 -0.00000000000E+00 -0.20604129373E+04  0.20604129373E+04  0.00000000000E+00 0. -1.
         23    2    1    2    0    0 -0.10890490685E+04  0.90801169615E+03 -0.28954114440E+03  0.14498284869E+04  0.87495446538E+02 0.  0.
         13    1    3    3    0    0 -0.70940769036E+03  0.64241608953E+03 -0.18252109064E+03  0.97430572808E+03  0.00000000000E+00 0. -1.
        -13    1    3    3    0    0 -0.37964137810E+03  0.26559560662E+03 -0.10702005376E+03  0.47552275879E+03  0.00000000000E+00 0.  1.
         22    1    1    2    0    0  0.10890490685E+04 -0.90801169615E+03 -0.76860969736E+03  0.16128465459E+04  0.00000000000E+00 0.  1.
<mgrwt>
<rscale>  0 0.28740729E+04</rscale>
<asrwt>0</asrwt>
<pdfrwt beam="1">  1        2 0.31698661E+00 0.28740729E+04</pdfrwt>
<pdfrwt beam="2">  1       -2 0.15419417E+00 0.28740729E+04</pdfrwt>
<totfact> 0.14887413E+00</totfact>
</mgrwt>
</event>
<event>
 6    1  0.1762360E-005  0.1564067E+04  0.7818608E-02  0.8842932E-01
          1   -1    0    0  501    0  0.00000000000E+00  0.00000000000E+00  0.13575964725E+04  0.13575964725E+04  0.00000000000E+00 0.  1.
         -1   -1    0    0    0  501 -0.00000000000E+00 -0.00000000000E+00 -0.45048468575E+03  0.45048468575E+03  0.00000000000E+00 0. -1.
         23    2    1    2    0    0  0.26275665139E+03 -0.28795829152E+03  0.12352227570E+04  0.12985540792E+04  0.92230156694E+02 0.  0.
         11    1    3    3    0    0  0.17750960698E+03 -0.13128863760E+03  0.62813758802E+03  0.66581018047E+03  0.00000000000E+00 0. -1.
        -11    1    3    3    0    0  0.85247044408E+02 -0.15666965392E+03  0.60708516898E+03  0.63274389878E+03  0.00000000000E+00 0.  1.
         22    1    1    2    0    0 -0.26275665139E+03  0.28795829152E+03 -0.32811097022E+03  0.50952707905E+03  0.00000000000E+00 0. -1.
<mgrwt>
<rscale>  0 0.15640670E+04</rscale>
<asrwt>0</asrwt>
<pdfrwt beam="1">  1        1 0.20886099E+00 0.15640670E+04</pdfrwt>
<pdfrwt beam="2">  1       -1 0.69305337E-01 0.15640670E+04</pdfrwt>
<totfact> 0.16680745E+01</totfact>
</mgrwt>
</event>
<event>
 6    1  0.1762360E-005  0.1171118E+04  0.7818608E-02  0.9138519E-01
          2   -1    0    0  501    0  0.00000000000E+00  0.00000000000E+00  0.90452997985E+03  0.90452997985E+03  0.00000000000E+00 0.  1.
         -2   -1    0    0    0  501 -0.00000000000E+00 -0.00000000000E+00 -0.37906937488E+03  0.37906937488E+03  0.00000000000E+00 0. -1.
         23    2    1    2    0    0 -0.54352026242E+03 -0.16314538187E+03  0.12360846361E+03  0.58824632583E+03  0.93402335600E+02 0.  0.
         11    1    3    3    0    0 -0.42395592701E+03 -0.15287866865E+03  0.12687920782E+03  0.46819744633E+03  0.00000000000E+00 0.  1.
        -11    1    3    3    0    0 -0.11956433541E+03 -0.10266713217E+02 -0.32707442034E+01  0.12004887951E+03  0.00000000000E+00 0. -1.
         22    1    1    2    0    0  0.54352026242E+03  0.16314538187E+03  0.40185214136E+03  0.69535302890E+03  0.00000000000E+00 0. -1.
<mgrwt>
<rscale>  0 0.11711185E+04</rscale>
<asrwt>0</asrwt>
<pdfrwt beam="1">  1        2 0.13915846E+00 0.11711185E+04</pdfrwt>
<pdfrwt beam="2">  1       -2 0.58318365E-01 0.11711185E+04</pdfrwt>
<totfact> 0.79168874E+01</totfact>
</mgrwt>
</event>
<event>
 6    1  0.1762360E-005  0.1143319E+04  0.7818608E-02  0.9163969E-01
          1   -1    0    0  501    0  0.00000000000E+00  0.00000000000E+00  0.57400498744E+03  0.57400498744E+03  0.00000000000E+00 0. -1.
         -1   -1    0    0    0  501 -0.00000000000E+00 -0.00000000000E+00 -0.56932350575E+03  0.56932350575E+03  0.00000000000E+00 0.  1.
         23    2    1    2    0    0 -0.48209212038E+03  0.83512571431E+02  0.29026526943E+03  0.57680818293E+03  0.95218649071E+02 0.  0.
         11    1    3    3    0    0 -0.41032766215E+03  0.84289197386E+02  0.28106741441E+03  0.50445252558E+03  0.00000000000E+00 0. -1.
        -11    1    3    3    0    0 -0.71764458226E+02 -0.77662595494E+00  0.91978550242E+01  0.72355657342E+02  0.00000000000E+00 0.  1.
         22    1    1    2    0    0  0.48209212038E+03 -0.83512571431E+02 -0.28558378774E+03  0.56652031026E+03  0.00000000000E+00 0.  1.
<mgrwt>
<rscale>  0 0.11433189E+04</rscale>
<asrwt>0</asrwt>
<pdfrwt beam="1">  1        1 0.88308460E-01 0.11433189E+04</pdfrwt>
<pdfrwt beam="2">  1       -1 0.87588232E-01 0.11433189E+04</pdfrwt>
<totfact> 0.46538704E+01</totfact>
</mgrwt>
</event>
<event>
 6    1  0.1762360E-005  0.4690322E+04  0.7818608E-02  0.7878139E-01
         -2   -1    0    0    0  501 -0.00000000000E+00  0.00000000000E+00  0.15046975244E+04  0.15046975244E+04  0.00000000000E+00 0.  1.
          2   -1    0    0  501    0  0.00000000000E+00 -0.00000000000E+00 -0.36550731609E+04  0.36550731609E+04  0.00000000000E+00 0. -1.
         23    2    1    2    0    0  0.34500147758E+02  0.23434357969E+04 -0.10184714812E+04  0.25570627472E+04  0.91674101345E+02 0.  0.
         13    1    3    3    0    0  0.19199191496E+02  0.78984566686E+03 -0.39009670202E+03  0.88113575761E+03  0.00000000000E+00 0. -1.
        -13    1    3    3    0    0  0.15300956262E+02  0.15535901301E+04 -0.62837477917E+03  0.16759269896E+04  0.00000000000E+00 0.  1.
         22    1    1    2    0    0 -0.34500147758E+02 -0.23434357969E+04 -0.11319041553E+04  0.26027079381E+04  0.00000000000E+00 0. -1.
<mgrwt>
<rscale>  0 0.46903218E+04</rscale>
<asrwt>0</asrwt>
<pdfrwt beam="1">  1        2 0.56231894E+00 0.46903218E+04</pdfrwt>
<pdfrwt beam="2">  1       -2 0.23149193E+00 0.46903218E+04</pdfrwt>
<totfact> 0.39221669E-02</totfact>
</mgrwt>
</event>
<event>
 6    1  0.1762360E-005  0.3952646E+04  0.7818608E-02  0.8014168E-01
          2   -1    0    0  501    0  0.00000000000E+00  0.00000000000E+00  0.23685162904E+04  0.23685162904E+04  0.00000000000E+00 0. -1.
         -2   -1    0    0    0  501 -0.00000000000E+00 -0.00000000000E+00 -0.16490715006E+04  0.16490715006E+04  0.00000000000E+00 0.  1.
         23    2    1    2    0    0 -0.64732009348E+03 -0.12017845510E+04 -0.10915832459E+04  0.17497403631E+04  0.82024051763E+02 0.  0.
         13    1    3    3    0    0 -0.19484407858E+03 -0.35091129640E+03 -0.36913422339E+03  0.54531002905E+03  0.00000000000E+00 0.  1.
        -13    1    3    3    0    0 -0.45247601490E+03 -0.85087325462E+03 -0.72244902249E+03  0.12044303341E+04  0.00000000000E+00 0. -1.
         22    1    1    2    0    0  0.64732009348E+03  0.12017845510E+04  0.18110280356E+04  0.22678474279E+04  0.00000000000E+00 0. -1.
<mgrwt>
<rscale>  0 0.39526461E+04</rscale>
<asrwt>0</asrwt>
<pdfrwt beam="1">  1        2 0.36438712E+00 0.39526461E+04</pdfrwt>
<pdfrwt beam="2">  1       -2 0.25370331E+00 0.39526461E+04</pdfrwt>
<totfact> 0.20012034E-01</totfact>
</mgrwt>
</event>
<event>
 6    1  0.1762360E-005  0.2698493E+04  0.7818608E-02  0.8335494E-01
          1   -1    0    0  501    0  0.00000000000E+00  0.00000000000E+00  0.12679091289E+04  0.12679091289E+04  0.00000000000E+00 0.  1.
         -1   -1    0    0    0  501 -0.00000000000E+00 -0.00000000000E+00 -0.14358018737E+04  0.14358018737E+04  0.00000000000E+00 0. -1.
         23    2    1    2    0    0  0.67005792375E+03 -0.17447837864E+03 -0.12425768792E+04  0.14252876321E+04  0.89594684719E+02 0.  0.
         11    1    3    3    0    0  0.22269265487E+03 -0.19670155156E+02 -0.36001158746E+03  0.42377739043E+03  0.00000000000E+00 0. -1.
        -11    1    3    3    0    0  0.44736526888E+03 -0.15480822348E+03 -0.88256529176E+03  0.10015102416E+04  0.00000000000E+00 0.  1.
         22    1    1    2    0    0 -0.67005792375E+03  0.17447837864E+03  0.10746841344E+04  0.12784233706E+04  0.00000000000E+00 0.  1.
<mgrwt>
<rscale>  0 0.26984931E+04</rscale>
<asrwt>0</asrwt>
<pdfrwt beam="1">  1        1 0.19506294E+00 0.26984931E+04</pdfrwt>
<pdfrwt beam="2">  1       -1 0.22089260E+00 0.26984931E+04</pdfrwt>
<totfact> 0.90415929E-01</totfact>
</mgrwt>
</event>
<event>
 6    1  0.1762360E-005  0.5094108E+04  0.7818608E-02  0.7814152E-01
          1   -1    0    0  501    0  0.00000000000E+00  0.00000000000E+00  0.36890524262E+04  0.36890524262E+04  0.00000000000E+00 0. -1.
         -1   -1    0    0    0  501 -0.00000000000E+00 -0.00000000000E+00 -0.17585773307E+04  0.17585773307E+04  0.00000000000E+00 0.  1.
         23    2    1    2    0    0 -0.20119793006E+04 -0.89387189563E+02 -0.70081173995E+03  0.21340635231E+04  0.83900238119E+02 0.  0.
         13    1    3    3    0    0 -0.68183960873E+03 -0.30324278686E+02 -0.27974283763E+03  0.73761837634E+03  0.00000000000E+00 0.  1.
        -13    1    3    3    0    0 -0.13301396919E+04 -0.59062910878E+02 -0.42106890233E+03  0.13964451468E+04  0.00000000000E+00 0. -1.
         22    1    1    2    0    0  0.20119793006E+04  0.89387189563E+02  0.26312868354E+04  0.33135662338E+04  0.00000000000E+00 0. -1.
<mgrwt>
<rscale>  0 0.50941080E+04</rscale>
<asrwt>0</asrwt>
<pdfrwt beam="1">  1        1 0.56754652E+00 0.50941080E+04</pdfrwt>
<pdfrwt beam="2">  1       -1 0.27055036E+00 0.50941080E+04</pdfrwt>
<totfact> 0.64563970E-03</totfact>
</mgrwt>
</event>
<event>
 6    1  0.1762360E-005  0.8630981E+03  0.7818608E-02  0.9472924E-01
          2   -1    0    0  501    0  0.00000000000E+00  0.00000000000E+00  0.31038080364E+04  0.31038080364E+04  0.00000000000E+00 0. -1.
         -2   -1    0    0    0  501 -0.00000000000E+00 -0.00000000000E+00 -0.60001959996E+02  0.60001959996E+02  0.00000000000E+00 0.  1.
         23    2    1    2    0    0 -0.11402225674E+03 -0.31488199999E+03  0.25086380863E+04  0.25324966617E+04  0.90125160119E+02 0.  0.
         11    1    3    3    0    0 -0.62057456061E+02 -0.22436007707E+03  0.19812927620E+04  0.19949209460E+04  0.00000000000E+00 0. -1.
        -11    1    3    3    0    0 -0.51964800679E+02 -0.90521922921E+02  0.52734532430E+03  0.53757571569E+03  0.00000000000E+00 0.  1.
         22    1    1    2    0    0  0.11402225674E+03  0.31488199999E+03  0.53516799014E+03  0.63131333474E+03  0.00000000000E+00 0.  1.
<mgrwt>
<rscale>  0 0.86309806E+03</rscale>
<asrwt>0</asrwt>
<pdfrwt beam="1">  1        2 0.47750880E+00 0.86309806E+03</pdfrwt>
<pdfrwt beam="2">  1       -2 0.92310732E-02 0.86309806E+03</pdfrwt>
<totfact> 0.12224364E+02</totfact>
</mgrwt>
</event>
<event>
 6    1  0.1762360E-005  0.8793615E+03  0.7818608E-02  0.9451755E-01
         -2   -1    0    0    0  501 -0.00000000000E+00  0.00000000000E+00  0.17653249014E+03  0.17653249014E+03  0.00000000000E+00 0.  1.
          2   -1    0    0  501    0  0.00000000000E+00 -0.00000000000E+00 -0.10950910136E+04  0.10950910136E+04  0.00000000000E+00 0. -1.
         23    2    1    2    0    0  0.10367980828E+03 -0.41576491814E+03 -0.57228415478E+03  0.72070072491E+03  0.91051695604E+02 0.  0.
         11    1    3    3    0    0 -0.30937457675E+01 -0.14170269972E+03 -0.22092443289E+03  0.26248205923E+03  0.00000000000E+00 0. -1.
        -11    1    3    3    0    0  0.10677355405E+03 -0.27406221842E+03 -0.35135972189E+03  0.45821866568E+03  0.00000000000E+00 0.  1.
         22    1    1    2    0    0 -0.10367980828E+03  0.41576491814E+03 -0.34627436864E+03  0.55092277878E+03  0.00000000000E+00 0.  1.
<mgrwt>
<rscale>  0 0.87936146E+03</rscale>
<asrwt>0</asrwt>
<pdfrwt beam="1">  1        2 0.16847554E+00 0.87936146E+03</pdfrwt>
<pdfrwt beam="2">  1       -2 0.27158845E-01 0.87936146E+03</pdfrwt>
<totfact> 0.27100169E+02</totfact>
</mgrwt>
</event>
<event>
 6    1  0.1762360E-005  0.1232671E+04  0.7818608E-02  0.9084730E-01
         -2   -1    0    0    0  501 -0.00000000000E+00  0.00000000000E+00  0.25800562782E+03  0.25800562782E+03  0.00000000000E+00 0.  1.
          2   -1    0    0  501    0  0.00000000000E+00 -0.00000000000E+00 -0.14723307044E+04  0.14723307044E+04  0.00000000000E+00 0. -1.
         23    2    1    2    0    0 -0.20022916655E+03 -0.40647429113E+03 -0.11899458540E+04  0.12765661095E+04  0.91306231762E+02 0.  0.
         13    1    3    3    0    0 -0.13429943531E+03 -0.22361771481E+03 -0.78872073694E+03  0.83073559065E+03  0.00000000000E+00 0.  1.
        -13    1    3    3    0    0 -0.65929731241E+02 -0.18285657633E+03 -0.40122511709E+03  0.44583051886E+03  0.00000000000E+00 0. -1.
         22    1    1    2    0    0  0.20022916655E+03  0.40647429113E+03 -0.24379222532E+02  0.45377022267E+03  0.00000000000E+00 0.  1.
<mgrwt>
<rscale>  0 0.12326713E+04</rscale>
<asrwt>0</asrwt>
<pdfrwt beam="1">  1        2 0.22651242E+00 0.12326713E+04</pdfrwt>
<pdfrwt beam="2">  1       -2 0.39693173E-01 0.12326713E+04</pdfrwt>
<totfact> 0.77761096E+01</totfact>
</mgrwt>
</event>
<event>
 6    1  0.1762360E-005  0.1926810E+04  0.7818608E-02  0.8641625E-01
         -1   -1    0    0    0  501 -0.00000000000E+00  0.00000000000E+00  0.50073703935E+03  0.50073703935E+03  0.00000000000E+00 0.  1.
          1   -1    0    0  501    0  0.00000000000E+00 -0.00000000000E+00 -0.18535668424E+04  0.18535668424E+04  0.00000000000E+00 0. -1.
         23    2    1    2    0    0  0.28882667796E+03  0.88225695220E+03 -0.98263585989E+03  0.13548831820E+04  0.91307305306E+02 0.  0.
         13    1    3    3    0    0  0.21937783273E+03  0.54364549008E+03 -0.64682253345E+03  0.87295844240E+03  0.00000000000E+00 0.  1.
        -13    1    3    3    0    0  0.69448845230E+02  0.33861146213E+03 -0.33581332644E+03  0.48192473956E+03  0.00000000000E+00 0. -1.
         22    1    1    2    0    0 -0.28882667796E+03 -0.88225695220E+03 -0.37019394314E+03  0.99942069978E+03  0.00000000000E+00 0.  1.
<mgrwt>
<rscale>  0 0.19268104E+04</rscale>
<asrwt>0</asrwt>
<pdfrwt beam="1">  1        1 0.28516413E+00 0.19268104E+04</pdfrwt>
<pdfrwt beam="2">  1       -1 0.77036467E-01 0.19268104E+04</pdfrwt>
<totfact> 0.59097266E+00</totfact>
</mgrwt>
</event>
<event>
 6    1  0.1762360E-005  0.2118204E+04  0.7818608E-02  0.8553266E-01
          1   -1    0    0  501    0  0.00000000000E+00  0.00000000000E+00  0.23692015596E+04  0.23692015596E+04  0.00000000000E+00 0. -1.
         -1   -1    0    0    0  501 -0.00000000000E+00 -0.00000000000E+00 -0.47344943917E+03  0.47344943917E+03  0.00000000000E+00 0.  1.
         23    2    1    2    0    0  0.20475401049E+03 -0.83842987449E+03  0.17692873127E+04  0.19703653764E+04  0.84102690346E+02 0.  0.
         11    1    3    3    0    0  0.10692786299E+03 -0.38536172360E+03  0.91104726912E+03  0.99495947278E+03  0.00000000000E+00 0.  1.
        -11    1    3    3    0    0  0.97826147505E+02 -0.45306815089E+03  0.85824004360E+03  0.97540590367E+03  0.00000000000E+00 0. -1.
         22    1    1    2    0    0 -0.20475401049E+03  0.83842987449E+03  0.12646480767E+03  0.87228562227E+03  0.00000000000E+00 0.  1.
<mgrwt>
<rscale>  0 0.21182041E+04</rscale>
<asrwt>0</asrwt>
<pdfrwt beam="1">  1        1 0.36449254E+00 0.21182041E+04</pdfrwt>
<pdfrwt beam="2">  1       -1 0.72838377E-01 0.21182041E+04</pdfrwt>
<totfact> 0.29112436E+00</totfact>
</mgrwt>
</event>
<event>
 6    1  0.1762360E-005  0.2978737E+04  0.7818608E-02  0.8249829E-01
          1   -1    0    0  501    0  0.00000000000E+00  0.00000000000E+00  0.21572745776E+04  0.21572745776E+04  0.00000000000E+00 0. -1.
         -1   -1    0    0    0  501 -0.00000000000E+00 -0.00000000000E+00 -0.10282503296E+04  0.10282503296E+04  0.00000000000E+00 0.  1.
         23    2    1    2    0    0 -0.45848515417E+02 -0.10357756187E+04 -0.57626131772E+03  0.11897964488E+04  0.92764565429E+02 0.  0.
         11    1    3    3    0    0 -0.40927251193E+02 -0.62432167140E+03 -0.39681027442E+03  0.74088526990E+03  0.00000000000E+00 0. -1.
        -11    1    3    3    0    0 -0.49212642239E+01 -0.41145394735E+03 -0.17945104329E+03  0.44891117893E+03  0.00000000000E+00 0.  1.
         22    1    1    2    0    0  0.45848515417E+02  0.10357756187E+04  0.17052855657E+04  0.19957284583E+04  0.00000000000E+00 0. -1.
<mgrwt>
<rscale>  0 0.29787368E+04</rscale>
<asrwt>0</asrwt>
<pdfrwt beam="1">  1        1 0.33188840E+00 0.29787368E+04</pdfrwt>
<pdfrwt beam="2">  1       -1 0.15819236E+00 0.29787368E+04</pdfrwt>
<totfact> 0.59906708E-01</totfact>
</mgrwt>
</event>
<event>
 6    1  0.1762360E-005  0.1013318E+04  0.7818608E-02  0.9294057E-01
         -1   -1    0    0    0  501 -0.00000000000E+00  0.00000000000E+00  0.12201435264E+04  0.12201435264E+04  0.00000000000E+00 0.  1.
          1   -1    0    0  501    0  0.00000000000E+00 -0.00000000000E+00 -0.21038796435E+03  0.21038796435E+03  0.00000000000E+00 0. -1.
         23    2    1    2    0    0 -0.10856703869E+03  0.10521535042E+03  0.11855736347E+04  0.11986499121E+04  0.91212371149E+02 0.  0.
         13    1    3    3    0    0 -0.12084753301E+03  0.99015370414E+02  0.95752607721E+03  0.97018779540E+03  0.00000000000E+00 0.  1.
        -13    1    3    3    0    0  0.12280494316E+02  0.61999800026E+01  0.22804755749E+03  0.22846211671E+03  0.00000000000E+00 0. -1.
         22    1    1    2    0    0  0.10856703869E+03 -0.10521535042E+03 -0.17581807264E+03  0.23188157866E+03  0.00000000000E+00 0. -1.
<mgrwt>
<rscale>  0 0.10133183E+04</rscale>
<asrwt>0</asrwt>
<pdfrwt beam="1">  1        1 0.32367380E-01 0.10133183E+04</pdfrwt>
<pdfrwt beam="2">  1       -1 0.18771438E+00 0.10133183E+04</pdfrwt>
<totfact> 0.25612785E+01</totfact>
</mgrwt>
</event>
<event>
 6    1  0.1762360E-005  0.1386143E+04  0.7818608E-02  0.8963910E-01
         -1   -1    0    0    0  501 -0.00000000000E+00  0.00000000000E+00  0.59667253371E+03  0.59667253371E+03  0.00000000000E+00 0.  1.
          1   -1    0    0  501    0  0.00000000000E+00 -0.00000000000E+00 -0.80504519402E+03  0.80504519402E+03  0.00000000000E+00 0. -1.
         23    2    1    2    0    0 -0.20299996067E+03  0.44237067023E+03  0.38992974729E+03  0.63044179472E+03  0.92254294186E+02 0.  0.
         11    1    3    3    0    0 -0.10607321476E+03  0.33076038406E+03  0.26496628882E+03  0.43687651890E+03  0.00000000000E+00 0. -1.
        -11    1    3    3    0    0 -0.96926745905E+02  0.11161028617E+03  0.12496345847E+03  0.19356527582E+03  0.00000000000E+00 0.  1.
         22    1    1    2    0    0  0.20299996067E+03 -0.44237067023E+03 -0.59830240760E+03  0.77127593302E+03  0.00000000000E+00 0. -1.
<mgrwt>
<rscale>  0 0.13861434E+04</rscale>
<asrwt>0</asrwt>
<pdfrwt beam="1">  1        1 0.12385311E+00 0.13861434E+04</pdfrwt>
<pdfrwt beam="2">  1       -1 0.91795775E-01 0.13861434E+04</pdfrwt>
<totfact> 0.24710393E+01</totfact>
</mgrwt>
</event>
<event>
 6    1  0.1762360E-005  0.2520681E+04  0.7818608E-02  0.8395655E-01
         -2   -1    0    0    0  501 -0.00000000000E+00  0.00000000000E+00  0.65020966444E+03  0.65020966444E+03  0.00000000000E+00 0.  1.
          2   -1    0    0  501    0  0.00000000000E+00 -0.00000000000E+00 -0.24429943704E+04  0.24429943704E+04  0.00000000000E+00 0. -1.
         23    2    1    2    0    0 -0.42356256362E+03 -0.65404518065E+03  0.31539455793E+03  0.84562752840E+03  0.91825083637E+02 0.  0.
         11    1    3    3    0    0 -0.12715082127E+03 -0.23573160390E+03  0.14969035129E+03  0.30682881497E+03  0.00000000000E+00 0. -1.
        -11    1    3    3    0    0 -0.29641174235E+03 -0.41831357675E+03  0.16570420664E+03  0.53879871343E+03  0.00000000000E+00 0.  1.
         22    1    1    2    0    0  0.42356256362E+03  0.65404518065E+03 -0.21081792639E+04  0.22475765064E+04  0.00000000000E+00 0. -1.
<mgrwt>
<rscale>  0 0.25206813E+04</rscale>
<asrwt>0</asrwt>
<pdfrwt beam="1">  1        2 0.37584529E+00 0.25206813E+04</pdfrwt>
<pdfrwt beam="2">  1       -2 0.10003226E+00 0.25206813E+04</pdfrwt>
<totfact> 0.27594442E+00</totfact>
</mgrwt>
</event>
<event>
 6    1  0.1762360E-005  0.1459995E+04  0.7818608E-02  0.8911500E-01
          1   -1    0    0  501    0  0.00000000000E+00  0.00000000000E+00  0.32000050478E+04  0.32000050478E+04  0.00000000000E+00 0. -1.
         -1   -1    0    0    0  501 -0.00000000000E+00 -0.00000000000E+00 -0.16652989880E+03  0.16652989880E+03  0.00000000000E+00 0.  1.
         23    2    1    2    0    0 -0.69975790315E+03 -0.19598199078E+03  0.15684644579E+04  0.17311981652E+04  0.94320027540E+02 0.  0.
         13    1    3    3    0    0 -0.35666548486E+03 -0.12772942912E+03  0.72356774383E+03  0.81674681210E+03  0.00000000000E+00 0.  1.
        -13    1    3    3    0    0 -0.34309241829E+03 -0.68252561656E+02  0.84489671410E+03  0.91445135308E+03  0.00000000000E+00 0. -1.
         22    1    1    2    0    0  0.69975790315E+03  0.19598199078E+03  0.14650106911E+04  0.16353367814E+04  0.00000000000E+00 0.  1.
<mgrwt>
<rscale>  0 0.14599952E+04</rscale>
<asrwt>0</asrwt>
<pdfrwt beam="1">  1        1 0.49230842E+00 0.14599952E+04</pdfrwt>
<pdfrwt beam="2">  1       -1 0.25619987E-01 0.14599952E+04</pdfrwt>
<totfact> 0.55896159E+00</totfact>
</mgrwt>
</event>
<event>
 6    1  0.1762360E-005  0.9103046E+03  0.7818608E-02  0.9412791E-01
          2   -1    0    0  501    0  0.00000000000E+00  0.00000000000E+00  0.19122261659E+04  0.19122261659E+04  0.00000000000E+00 0. -1.
         -2   -1    0    0    0  501 -0.00000000000E+00 -0.00000000000E+00 -0.10833635120E+03  0.10833635120E+03  0.00000000000E+00 0.  1.
         23    2    1    2    0    0  0.22036943960E+03  0.24410082070E+03  0.22667194448E+03  0.40942499637E+03  0.90004203565E+02 0.  0.
         11    1    3    3    0    0  0.85004009472E+02  0.54203959470E+02  0.10807052958E+03  0.14779374213E+03  0.00000000000E+00 0.  1.
        -11    1    3    3    0    0  0.13536543012E+03  0.18989686123E+03  0.11860141491E+03  0.26163125424E+03  0.00000000000E+00 0. -1.
         22    1    1    2    0    0 -0.22036943960E+03 -0.24410082070E+03  0.15772178702E+04  0.16111375207E+04  0.00000000000E+00 0. -1.
<mgrwt>
<rscale>  0 0.91030458E+03</rscale>
<asrwt>0</asrwt>
<pdfrwt beam="1">  1        2 0.29418862E+00 0.91030458E+03</pdfrwt>
<pdfrwt beam="2">  1       -2 0.16667132E-01 0.91030458E+03</pdfrwt>
<totfact> 0.22090677E+02</totfact>
</mgrwt>
</event>
<event>
 6    1  0.1762360E-005  0.2099363E+04  0.7818608E-02  0.8561524E-01
         -1   -1    0    0    0  501 -0.00000000000E+00  0.00000000000E+00  0.40188140296E+03  0.40188140296E+03  0.00000000000E+00 0.  1.
          1   -1    0    0  501    0  0.00000000000E+00 -0.00000000000E+00 -0.27416828321E+04  0.27416828321E+04  0.00000000000E+00 0. -1.
         23    2    1    2    0    0 -0.18965871685E+03  0.34324572774E+03 -0.26268100292E+04  0.26575992208E+04  0.94417319394E+02 0.  0.
         13    1    3    3    0    0 -0.74426129903E+01  0.89608154025E+02 -0.67469067904E+03  0.68065595284E+03  0.00000000000E+00 0.  1.
        -13    1    3    3    0    0 -0.18221610386E+03  0.25363757371E+03 -0.19521193502E+04  0.19769432680E+04  0.00000000000E+00 0. -1.
         22    1    1    2    0    0  0.18965871685E+03 -0.34324572774E+03  0.28700860014E+03  0.48596501422E+03  0.00000000000E+00 0.  1.
<mgrwt>
<rscale>  0 0.20993631E+04</rscale>
<asrwt>0</asrwt>
<pdfrwt beam="1">  1        1 0.42179737E+00 0.20993631E+04</pdfrwt>
<pdfrwt beam="2">  1       -1 0.61827906E-01 0.20993631E+04</pdfrwt>
<totfact> 0.22391282E+00</totfact>
</mgrwt>
</event>
<event>
 6    1  0.1762360E-005  0.4609992E+04  0.7818608E-02  0.7891658E-01
          1   -1    0    0  501    0  0.00000000000E+00  0.00000000000E+00  0.36678873788E+04  0.36678873788E+04  0.00000000000E+00 0. -1.
         -1   -1    0    0    0  501 -0.00000000000E+00 -0.00000000000E+00 -0.14485194713E+04  0.14485194713E+04  0.00000000000E+00 0.  1.
         23    2    1    2    0    0 -0.19149939071E+04  0.68431783804E+03  0.23123312859E+04  0.30806920476E+04  0.91076608293E+02 0.  0.
         13    1    3    3    0    0 -0.96862314103E+03  0.37906280503E+03  0.12325960512E+04  0.16128274628E+04  0.00000000000E+00 0. -1.
        -13    1    3    3    0    0 -0.94637076603E+03  0.30525503301E+03  0.10797352347E+04  0.14678645847E+04  0.00000000000E+00 0.  1.
         22    1    1    2    0    0  0.19149939071E+04 -0.68431783804E+03 -0.92963378459E+02  0.20357148025E+04  0.00000000000E+00 0. -1.
<mgrwt>
<rscale>  0 0.46099919E+04</rscale>
<asrwt>0</asrwt>
<pdfrwt beam="1">  1        1 0.56429036E+00 0.46099919E+04</pdfrwt>
<pdfrwt beam="2">  1       -1 0.22284915E+00 0.46099919E+04</pdfrwt>
<totfact> 0.14349873E-02</totfact>
</mgrwt>
</event>
<event>
 6    1  0.1762360E-005  0.2561553E+04  0.7818608E-02  0.8381379E-01
          2   -1    0    0  501    0  0.00000000000E+00  0.00000000000E+00  0.22997649822E+04  0.22997649822E+04  0.00000000000E+00 0. -1.
         -2   -1    0    0    0  501 -0.00000000000E+00 -0.00000000000E+00 -0.71328500399E+03  0.71328500399E+03  0.00000000000E+00 0.  1.
         23    2    1    2    0    0 -0.68398437418E+03 -0.10092265966E+04  0.33879269906E+03  0.12686026542E+04  0.90549732709E+02 0.  0.
         11    1    3    3    0    0 -0.83490189306E+02 -0.87139863650E+02  0.15238944103E+02  0.12163960278E+03  0.00000000000E+00 0.  1.
        -11    1    3    3    0    0 -0.60049418487E+03 -0.92208673291E+03  0.32355375496E+03  0.11469630515E+04  0.00000000000E+00 0. -1.
         22    1    1    2    0    0  0.68398437418E+03  0.10092265966E+04  0.12476872791E+04  0.17444473319E+04  0.00000000000E+00 0. -1.
<mgrwt>
<rscale>  0 0.25615526E+04</rscale>
<asrwt>0</asrwt>
<pdfrwt beam="1">  1        2 0.35380999E+00 0.25615526E+04</pdfrwt>
<pdfrwt beam="2">  1       -2 0.10973616E+00 0.25615526E+04</pdfrwt>
<totfact> 0.26590037E+00</totfact>
</mgrwt>
</event>
<event>
 6    1  0.1762360E-005  0.5046471E+04  0.7818608E-02  0.7821378E-01
         -2   -1    0    0    0  501 -0.00000000000E+00  0.00000000000E+00  0.27854708909E+04  0.27854708909E+04  0.00000000000E+00 0.  1.
          2   -1    0    0  501    0  0.00000000000E+00 -0.00000000000E+00 -0.22856882580E+04  0.22856882580E+04  0.00000000000E+00 0. -1.
         23    2    1    2    0    0  0.11617086409E+04  0.19163062709E+04 -0.91364395373E+03  0.24217117715E+04  0.90254860943E+02 0.  0.
         13    1    3    3    0    0  0.35927035546E+03  0.62666458149E+03 -0.33605692993E+03  0.79669187655E+03  0.00000000000E+00 0.  1.
        -13    1    3    3    0    0  0.80243828542E+03  0.12896416894E+04 -0.57758702380E+03  0.16250198949E+04  0.00000000000E+00 0. -1.
         22    1    1    2    0    0 -0.11617086409E+04 -0.19163062709E+04  0.14134265866E+04  0.26494473774E+04  0.00000000000E+00 0.  1.
<mgrwt>
<rscale>  0 0.50464713E+04</rscale>
<asrwt>0</asrwt>
<pdfrwt beam="1">  1        2 0.35164435E+00 0.50464713E+04</pdfrwt>
<pdfrwt beam="2">  1       -2 0.42853398E+00 0.50464713E+04</pdfrwt>
<totfact> 0.16160070E-02</totfact>
</mgrwt>
</event>
<event>
 6    1  0.1762360E-005  0.1914472E+04  0.7818608E-02  0.8647686E-01
          2   -1    0    0  501    0  0.00000000000E+00  0.00000000000E+00  0.80948999330E+03  0.80948999330E+03  0.00000000000E+00 0. -1.
         -2   -1    0    0    0  501 -0.00000000000E+00 -0.00000000000E+00 -0.11319484972E+04  0.11319484972E+04  0.00000000000E+00 0.  1.
         23    2    1    2    0    0  0.70876197918E+03  0.63812051555E+03 -0.21180587841E+03  0.98134196458E+03  0.92892334620E+02 0.  0.
         11    1    3    3    0    0  0.41265890873E+03  0.39284017056E+03 -0.17005164343E+03  0.59458248880E+03  0.00000000000E+00 0. -1.
        -11    1    3    3    0    0  0.29610307045E+03  0.24528034499E+03 -0.41754234984E+02  0.38675947578E+03  0.00000000000E+00 0.  1.
         22    1    1    2    0    0 -0.70876197918E+03 -0.63812051555E+03 -0.11065262545E+03  0.96009652588E+03  0.00000000000E+00 0. -1.
<mgrwt>
<rscale>  0 0.19144722E+04</rscale>
<asrwt>0</asrwt>
<pdfrwt beam="1">  1        2 0.12453692E+00 0.19144722E+04</pdfrwt>
<pdfrwt beam="2">  1       -2 0.17414592E+00 0.19144722E+04</pdfrwt>
<totfact> 0.63159696E+00</totfact>
</mgrwt>
</event>
<event>
 6    1  0.1762360E-005  0.1698137E+04  0.7818608E-02  0.8762428E-01
         -2   -1    0    0    0  501 -0.00000000000E+00  0.00000000000E+00  0.63930219092E+03  0.63930219092E+03  0.00000000000E+00 0.  1.
          2   -1    0    0  501    0  0.00000000000E+00 -0.00000000000E+00 -0.11276623368E+04  0.11276623368E+04  0.00000000000E+00 0. -1.
         23    2    1    2    0    0  0.15056928950E+03 -0.82923701408E+03 -0.32693848153E+03  0.90884909832E+03  0.93876388699E+02 0.  0.
         13    1    3    3    0    0  0.75549612565E+02 -0.61156870559E+03 -0.21322821049E+03  0.65206617407E+03  0.00000000000E+00 0.  1.
        -13    1    3    3    0    0  0.75019676940E+02 -0.21766830849E+03 -0.11371027103E+03  0.25678292425E+03  0.00000000000E+00 0. -1.
         22    1    1    2    0    0 -0.15056928950E+03  0.82923701408E+03 -0.16142166436E+03  0.85811542941E+03  0.00000000000E+00 0. -1.
<mgrwt>
<rscale>  0 0.16981366E+04</rscale>
<asrwt>0</asrwt>
<pdfrwt beam="1">  1        2 0.17348651E+00 0.16981366E+04</pdfrwt>
<pdfrwt beam="2">  1       -2 0.98354184E-01 0.16981366E+04</pdfrwt>
<totfact> 0.17130341E+01</totfact>
</mgrwt>
</event>
<event>
 6    1  0.1762360E-005  0.2152925E+04  0.7818608E-02  0.8538281E-01
          2   -1    0    0  501    0  0.00000000000E+00  0.00000000000E+00  0.15359283528E+04  0.15359283528E+04  0.00000000000E+00 0. -1.
         -2   -1    0    0    0  501 -0.00000000000E+00 -0.00000000000E+00 -0.75444372066E+03  0.75444372066E+03  0.00000000000E+00 0.  1.
         23    2    1    2    0    0 -0.31240607557E+03 -0.10133139596E+04  0.57620971042E+03  0.12103070152E+04  0.91775289685E+02 0.  0.
         13    1    3    3    0    0 -0.28162664640E+03 -0.80300104426E+03  0.44160589002E+03  0.95871789758E+03  0.00000000000E+00 0. -1.
        -13    1    3    3    0    0 -0.30779429174E+02 -0.21031291533E+03  0.13460382040E+03  0.25158911757E+03  0.00000000000E+00 0.  1.
         22    1    1    2    0    0  0.31240607557E+03  0.10133139596E+04  0.20527492176E+03  0.10800650583E+04  0.00000000000E+00 0.  1.
<mgrwt>
<rscale>  0 0.21529250E+04</rscale>
<asrwt>0</asrwt>
<pdfrwt beam="1">  1        2 0.23629667E+00 0.21529250E+04</pdfrwt>
<pdfrwt beam="2">  1       -2 0.11606827E+00 0.21529250E+04</pdfrwt>
<totfact> 0.64091555E+00</totfact>
</mgrwt>
</event>
<event>
 6    1  0.1762360E-005  0.7450181E+03  0.7818608E-02  0.9643199E-01
         -1   -1    0    0    0  501 -0.00000000000E+00  0.00000000000E+00  0.12709695930E+03  0.12709695930E+03  0.00000000000E+00 0.  1.
          1   -1    0    0  501    0  0.00000000000E+00 -0.00000000000E+00 -0.10917883462E+04  0.10917883462E+04  0.00000000000E+00 0. -1.
         23    2    1    2    0    0  0.32266320314E+03  0.10867018659E+03 -0.71289538881E+03  0.79542104873E+03  0.92488146615E+02 0.  0.
         13    1    3    3    0    0  0.16916953713E+03  0.77310754840E+02 -0.47960244215E+03  0.51440624765E+03  0.00000000000E+00 0. -1.
        -13    1    3    3    0    0  0.15349366601E+03  0.31359431747E+02 -0.23329294666E+03  0.28101480108E+03  0.00000000000E+00 0.  1.
         22    1    1    2    0    0 -0.32266320314E+03 -0.10867018659E+03 -0.25179599811E+03  0.42346425679E+03  0.00000000000E+00 0.  1.
<mgrwt>
<rscale>  0 0.74501806E+03</rscale>
<asrwt>0</asrwt>
<pdfrwt beam="1">  1        1 0.16796744E+00 0.74501806E+03</pdfrwt>
<pdfrwt beam="2">  1       -1 0.19553379E-01 0.74501806E+03</pdfrwt>
<totfact> 0.27651807E+02</totfact>
</mgrwt>
</event>
<event>
 6    1  0.1762360E-005  0.2074293E+04  0.7818608E-02  0.8572653E-01
         -1   -1    0    0    0  501 -0.00000000000E+00  0.00000000000E+00  0.66154353343E+03  0.66154353343E+03  0.00000000000E+00 0.  1.
          1   -1    0    0  501    0  0.00000000000E+00 -0.00000000000E+00 -0.16260039933E+04  0.16260039933E+04  0.00000000000E+00 0. -1.
         23    2    1    2    0    0  0.23135955404E+03  0.68949739768E+03 -0.12954722354E+04  0.14884838871E+04  0.91662777508E+02 0.  0.
         11    1    3    3    0    0  0.54399969553E+02  0.24265339535E+03 -0.37254391959E+03  0.44791628568E+03  0.00000000000E+00 0.  1.
        -11    1    3    3    0    0  0.17695958449E+03  0.44684400233E+03 -0.92292831582E+03  0.10405676014E+04  0.00000000000E+00 0. -1.
         22    1    1    2    0    0 -0.23135955404E+03 -0.68949739768E+03  0.33101177554E+03  0.79906363964E+03  0.00000000000E+00 0.  1.
<mgrwt>
<rscale>  0 0.20742926E+04</rscale>
<asrwt>0</asrwt>
<pdfrwt beam="1">  1        1 0.25015446E+00 0.20742926E+04</pdfrwt>
<pdfrwt beam="2">  1       -1 0.10177593E+00 0.20742926E+04</pdfrwt>
<totfact> 0.45175979E+00</totfact>
</mgrwt>
</event>
<event>
 6    1  0.1762360E-005  0.2495892E+04  0.7818608E-02  0.8404451E-01
          2   -1    0    0  501    0  0.00000000000E+00  0.00000000000E+00  0.17930792131E+04  0.17930792131E+04  0.00000000000E+00 0. -1.
         -2   -1    0    0    0  501 -0.00000000000E+00 -0.00000000000E+00 -0.86854453840E+03  0.86854453840E+03  0.00000000000E+00 0.  1.
         23    2    1    2    0    0 -0.37142319208E+03 -0.50787477907E+03  0.16101174313E+04  0.17310778392E+04  0.90886545373E+02 0.  0.
         13    1    3    3    0    0 -0.13450609053E+03 -0.12208236517E+03  0.51350725870E+03  0.54468862390E+03  0.00000000000E+00 0. -1.
        -13    1    3    3    0    0 -0.23691710155E+03 -0.38579241390E+03  0.10966101726E+04  0.11863892153E+04  0.00000000000E+00 0.  1.
         22    1    1    2    0    0  0.37142319208E+03  0.50787477907E+03 -0.68558275655E+03  0.93054591231E+03  0.00000000000E+00 0.  1.
<mgrwt>
<rscale>  0 0.24958920E+04</rscale>
<asrwt>0</asrwt>
<pdfrwt beam="1">  1        2 0.27585834E+00 0.24958920E+04</pdfrwt>
<pdfrwt beam="2">  1       -2 0.13362224E+00 0.24958920E+04</pdfrwt>
<totfact> 0.31458561E+00</totfact>
</mgrwt>
</event>
<event>
 6    1  0.1762360E-005  0.1803155E+04  0.7818608E-02  0.8704624E-01
         -1   -1    0    0    0  501 -0.00000000000E+00  0.00000000000E+00  0.55525965927E+03  0.55525965927E+03  0.00000000000E+00 0.  1.
          1   -1    0    0  501    0  0.00000000000E+00 -0.00000000000E+00 -0.14638948807E+04  0.14638948807E+04  0.00000000000E+00 0. -1.
         23    2    1    2    0    0  0.49537716500E+03 -0.52404789258E+03  0.14590286359E+03  0.74162751401E+03  0.93268400908E+02 0.  0.
         11    1    3    3    0    0  0.21865176853E+03 -0.25156718205E+03  0.22217128565E+02  0.33404826563E+03  0.00000000000E+00 0.  1.
        -11    1    3    3    0    0  0.27672539647E+03 -0.27248071053E+03  0.12368573503E+03  0.40757924838E+03  0.00000000000E+00 0. -1.
         22    1    1    2    0    0 -0.49537716500E+03  0.52404789258E+03 -0.10545380850E+04  0.12775270260E+04  0.00000000000E+00 0. -1.
<mgrwt>
<rscale>  0 0.18031548E+04</rscale>
<asrwt>0</asrwt>
<pdfrwt beam="1">  1        1 0.22521460E+00 0.18031548E+04</pdfrwt>
<pdfrwt beam="2">  1       -1 0.85424563E-01 0.18031548E+04</pdfrwt>
<totfact> 0.88549911E+00</totfact>
</mgrwt>
</event>
<event>
 6    1  0.1762360E-005  0.3208357E+04  0.7818608E-02  0.8186613E-01
          2   -1    0    0  501    0  0.00000000000E+00  0.00000000000E+00  0.15148302017E+04  0.15148302017E+04  0.00000000000E+00 0. -1.
         -2   -1    0    0    0  501 -0.00000000000E+00 -0.00000000000E+00 -0.16987972358E+04  0.16987972358E+04  0.00000000000E+00 0.  1.
         23    2    1    2    0    0 -0.14586952584E+04  0.55267982684E+03  0.27758091423E+03  0.15868904101E+04  0.89012144321E+02 0.  0.
         13    1    3    3    0    0 -0.31505581678E+03  0.11939088447E+03  0.22978959142E+02  0.33770161911E+03  0.00000000000E+00 0.  1.
        -13    1    3    3    0    0 -0.11436394416E+04  0.43328894236E+03  0.25460195509E+03  0.12491887910E+04  0.00000000000E+00 0. -1.
         22    1    1    2    0    0  0.14586952584E+04 -0.55267982684E+03 -0.46154794832E+03  0.16267370274E+04  0.00000000000E+00 0.  1.
<mgrwt>
<rscale>  0 0.32083574E+04</rscale>
<asrwt>0</asrwt>
<pdfrwt beam="1">  1        2 0.23305080E+00 0.32083574E+04</pdfrwt>
<pdfrwt beam="2">  1       -2 0.26135342E+00 0.32083574E+04</pdfrwt>
<totfact> 0.57353540E-01</totfact>
</mgrwt>
</event>
<event>
 6    1  0.1762360E-005  0.1828692E+04  0.7818608E-02  0.8691188E-01
          2   -1    0    0  501    0  0.00000000000E+00  0.00000000000E+00  0.23195880400E+04  0.23195880400E+04  0.00000000000E+00 0. -1.
         -2   -1    0    0    0  501 -0.00000000000E+00 -0.00000000000E+00 -0.36042118693E+03  0.36042118693E+03  0.00000000000E+00 0.  1.
         23    2    1    2    0    0 -0.40693122393E+03  0.42893063330E+03 -0.36025015318E+02  0.59905629597E+03  0.89421109498E+02 0.  0.
         13    1    3    3    0    0 -0.10367302049E+03  0.16798974325E+03 -0.23408082846E+02  0.19878779479E+03  0.00000000000E+00 0.  1.
        -13    1    3    3    0    0 -0.30325820344E+03  0.26094089005E+03 -0.12616932472E+02  0.40026850118E+03  0.00000000000E+00 0. -1.
         22    1    1    2    0    0  0.40693122393E+03 -0.42893063330E+03  0.19951918684E+04  0.20809529310E+04  0.00000000000E+00 0. -1.
<mgrwt>
<rscale>  0 0.18286921E+04</rscale>
<asrwt>0</asrwt>
<pdfrwt beam="1">  1        2 0.35685969E+00 0.18286921E+04</pdfrwt>
<pdfrwt beam="2">  1       -2 0.55449415E-01 0.18286921E+04</pdfrwt>
<totfact> 0.12728967E+01</totfact>
</mgrwt>
</event>
<event>
 6    1  0.1762360E-005  0.4021958E+04  0.7818608E-02  0.8000132E-01
         -1   -1    0    0    0  501 -0.00000000000E+00  0.00000000000E+00  0.22574550619E+04  0.22574550619E+04  0.00000000000E+00 0. -1.
          1   -1    0    0  501    0  0.00000000000E+00 -0.00000000000E+00 -0.17914139379E+04  0.17914139379E+04  0.00000000000E+00 0.  1.
         23    2    1    2    0    0 -0.14539280841E+04  0.66179603920E+03 -0.99422777035E+03  0.18845524530E+04  0.10567978862E+03 0.  0.
         11    1    3    3    0    0 -0.54218753468E+03  0.23536520481E+03 -0.42718494047E+03  0.72928120486E+03  0.00000000000E+00 0.  1.
        -11    1    3    3    0    0 -0.91174054941E+03  0.42643083438E+03 -0.56704282988E+03  0.11552712482E+04  0.00000000000E+00 0. -1.
         22    1    1    2    0    0  0.14539280841E+04 -0.66179603920E+03  0.14602688943E+04  0.21643165468E+04  0.00000000000E+00 0. -1.
<mgrwt>
<rscale>  0 0.40219580E+04</rscale>
<asrwt>0</asrwt>
<pdfrwt beam="1">  1        1 0.27560214E+00 0.40219580E+04</pdfrwt>
<pdfrwt beam="2">  1       -1 0.34730078E+00 0.40219580E+04</pdfrwt>
<totfact> 0.52213594E-02</totfact>
</mgrwt>
</event>
<event>
 6    1  0.1762360E-005  0.1840755E+04  0.7818608E-02  0.8684922E-01
         -2   -1    0    0    0  501 -0.00000000000E+00  0.00000000000E+00  0.46797621204E+03  0.46797621204E+03  0.00000000000E+00 0.  1.
          2   -1    0    0  501    0  0.00000000000E+00 -0.00000000000E+00 -0.18101230500E+04  0.18101230500E+04  0.00000000000E+00 0. -1.
         23    2    1    2    0    0  0.29948495664E+03 -0.39318756287E+03  0.28469394377E+03  0.57783498026E+03  0.92492831837E+02 0.  0.
         13    1    3    3    0    0  0.15318770917E+03 -0.20294307199E+03  0.93212030409E+02  0.27081515342E+03  0.00000000000E+00 0. -1.
        -13    1    3    3    0    0  0.14629724747E+03 -0.19024449088E+03  0.19148191336E+03  0.30701982684E+03  0.00000000000E+00 0.  1.
         22    1    1    2    0    0 -0.29948495664E+03  0.39318756287E+03 -0.16268407817E+04  0.17002642818E+04  0.00000000000E+00 0. -1.
<mgrwt>
<rscale>  0 0.18407548E+04</rscale>
<asrwt>0</asrwt>
<pdfrwt beam="1">  1        2 0.27848047E+00 0.18407548E+04</pdfrwt>
<pdfrwt beam="2">  1       -2 0.71996340E-01 0.18407548E+04</pdfrwt>
<totfact> 0.14007085E+01</totfact>
</mgrwt>
</event>
<event>
 6    1  0.1762360E-005  0.2242155E+04  0.7818608E-02  0.8501084E-01
         -1   -1    0    0    0  501 -0.00000000000E+00  0.00000000000E+00  0.12333547399E+04  0.12333547399E+04  0.00000000000E+00 0.  1.
          1   -1    0    0  501    0  0.00000000000E+00 -0.00000000000E+00 -0.10190212702E+04  0.10190212702E+04  0.00000000000E+00 0. -1.
         23    2    1    2    0    0 -0.20240359974E+03  0.44358661080E+03 -0.90461083919E+03  0.10318135723E+04  0.92640051019E+02 0.  0.
         13    1    3    3    0    0 -0.10994238054E+03  0.15796707436E+03 -0.41563886103E+03  0.45803557331E+03  0.00000000000E+00 0.  1.
        -13    1    3    3    0    0 -0.92461219201E+02  0.28561953644E+03 -0.48897197817E+03  0.57377799896E+03  0.00000000000E+00 0. -1.
         22    1    1    2    0    0  0.20240359974E+03 -0.44358661080E+03  0.11189443089E+04  0.12205624379E+04  0.00000000000E+00 0.  1.
<mgrwt>
<rscale>  0 0.22421550E+04</rscale>
<asrwt>0</asrwt>
<pdfrwt beam="1">  1        1 0.15677250E+00 0.22421550E+04</pdfrwt>
<pdfrwt beam="2">  1       -1 0.18974688E+00 0.22421550E+04</pdfrwt>
<totfact> 0.23567981E+00</totfact>
</mgrwt>
</event>
<event>
 6    1  0.1762360E-005  0.3169536E+04  0.7818608E-02  0.8196909E-01
          2   -1    0    0  501    0  0.00000000000E+00  0.00000000000E+00  0.32034012502E+04  0.32034012502E+04  0.00000000000E+00 0.  1.
         -2   -1    0    0    0  501 -0.00000000000E+00 -0.00000000000E+00 -0.78400699189E+03  0.78400699189E+03  0.00000000000E+00 0. -1.
         23    2    1    2    0    0  0.13814707978E+04  0.24303828420E+03  0.28634938477E+03  0.14344864639E+04  0.90698799670E+02 0.  0.
         11    1    3    3    0    0  0.66600739400E+03  0.91952534663E+02  0.98506889934E+02  0.67950329275E+03  0.00000000000E+00 0.  1.
        -11    1    3    3    0    0  0.71546340382E+03  0.15108574954E+03  0.18784249483E+03  0.75498317119E+03  0.00000000000E+00 0. -1.
         22    1    1    2    0    0 -0.13814707978E+04 -0.24303828420E+03  0.21330448736E+04  0.25529217782E+04  0.00000000000E+00 0.  1.
<mgrwt>
<rscale>  0 0.31695356E+04</rscale>
<asrwt>0</asrwt>
<pdfrwt beam="1">  1        2 0.49283095E+00 0.31695356E+04</pdfrwt>
<pdfrwt beam="2">  1       -2 0.12061646E+00 0.31695356E+04</pdfrwt>
<totfact> 0.57046654E-01</totfact>
</mgrwt>
</event>
<event>
 6    1  0.1762360E-005  0.1547253E+04  0.7818608E-02  0.8853624E-01
          2   -1    0    0  501    0  0.00000000000E+00  0.00000000000E+00  0.13859347302E+04  0.13859347302E+04  0.00000000000E+00 0. -1.
         -2   -1    0    0    0  501 -0.00000000000E+00 -0.00000000000E+00 -0.43183720501E+03  0.43183720501E+03  0.00000000000E+00 0.  1.
         23    2    1    2    0    0  0.14341857358E+03 -0.47726482365E+03  0.11695645758E+04  0.12748385608E+04  0.94770564509E+02 0.  0.
         11    1    3    3    0    0  0.89133980578E+02 -0.40707859683E+03  0.10027555193E+04  0.10858989281E+04  0.00000000000E+00 0. -1.
        -11    1    3    3    0    0  0.54284593001E+02 -0.70186226816E+02  0.16680905651E+03  0.18893963271E+03  0.00000000000E+00 0.  1.
         22    1    1    2    0    0 -0.14341857358E+03  0.47726482365E+03 -0.21546705065E+03  0.54293337442E+03  0.00000000000E+00 0.  1.
<mgrwt>
<rscale>  0 0.15472533E+04</rscale>
<asrwt>0</asrwt>
<pdfrwt beam="1">  1        2 0.21322072E+00 0.15472533E+04</pdfrwt>
<pdfrwt beam="2">  1       -2 0.66436494E-01 0.15472533E+04</pdfrwt>
<totfact> 0.29557152E+01</totfact>
</mgrwt>
</event>
<event>
 6    1  0.1762360E-005  0.2513456E+04  0.7818608E-02  0.8398207E-01
         -2   -1    0    0    0  501 -0.00000000000E+00  0.00000000000E+00  0.12483292633E+04  0.12483292633E+04  0.00000000000E+00 0. -1.
          2   -1    0    0  501    0  0.00000000000E+00 -0.00000000000E+00 -0.12651833936E+04  0.12651833936E+04  0.00000000000E+00 0.  1.
         23    2    1    2    0    0  0.11347929761E+04 -0.13932684421E+02 -0.54437276896E+03  0.12620234909E+04  0.91718927948E+02 0.  0.
         11    1    3    3    0    0  0.90852062144E+03 -0.34439235931E+02 -0.46634055483E+03  0.10217970902E+04  0.00000000000E+00 0. -1.
        -11    1    3    3    0    0  0.22627235468E+03  0.20506551509E+02 -0.78032214127E+02  0.24022640069E+03  0.00000000000E+00 0.  1.
         22    1    1    2    0    0 -0.11347929761E+04  0.13932684421E+02  0.52751863866E+03  0.12514891659E+04  0.00000000000E+00 0. -1.
<mgrwt>
<rscale>  0 0.25134561E+04</rscale>
<asrwt>0</asrwt>
<pdfrwt beam="1">  1        2 0.19464360E+00 0.25134561E+04</pdfrwt>
<pdfrwt beam="2">  1       -2 0.19205066E+00 0.25134561E+04</pdfrwt>
<totfact> 0.23181923E+00</totfact>
</mgrwt>
</event>
<event>
 6    1  0.1762360E-005  0.1971772E+04  0.7818608E-02  0.8619933E-01
          2   -1    0    0  501    0  0.00000000000E+00  0.00000000000E+00  0.13311429694E+04  0.13311429694E+04  0.00000000000E+00 0. -1.
         -2   -1    0    0    0  501 -0.00000000000E+00 -0.00000000000E+00 -0.73017766525E+03  0.73017766525E+03  0.00000000000E+00 0.  1.
         23    2    1    2    0    0 -0.87795988564E+03  0.15301991417E+03  0.73698529563E+03  0.11598051921E+04  0.88159530598E+02 0.  0.
         11    1    3    3    0    0 -0.49817378239E+03  0.49593715346E+02  0.44337480931E+03  0.66874350508E+03  0.00000000000E+00 0. -1.
        -11    1    3    3    0    0 -0.37978610325E+03  0.10342619883E+03  0.29361048632E+03  0.49106168707E+03  0.00000000000E+00 0.  1.
         22    1    1    2    0    0  0.87795988564E+03 -0.15301991417E+03 -0.13601999151E+03  0.90151544247E+03  0.00000000000E+00 0.  1.
<mgrwt>
<rscale>  0 0.19717717E+04</rscale>
<asrwt>0</asrwt>
<pdfrwt beam="1">  1        2 0.20479123E+00 0.19717717E+04</pdfrwt>
<pdfrwt beam="2">  1       -2 0.11233503E+00 0.19717717E+04</pdfrwt>
<totfact> 0.92197265E+00</totfact>
</mgrwt>
</event>
<event>
 6    1  0.1762360E-005  0.3713061E+04  0.7818608E-02  0.8065073E-01
          2   -1    0    0  501    0  0.00000000000E+00  0.00000000000E+00  0.76132595354E+03  0.76132595354E+03  0.00000000000E+00 0. -1.
         -2   -1    0    0    0  501 -0.00000000000E+00 -0.00000000000E+00 -0.45272403444E+04  0.45272403444E+04  0.00000000000E+00 0.  1.
         23    2    1    2    0    0  0.39169342811E+03 -0.38390940273E+02 -0.44666355745E+04  0.44848824153E+04  0.91865757582E+02 0.  0.
         13    1    3    3    0    0  0.18663929821E+03 -0.61499335543E+02 -0.20003452393E+04  0.20099744955E+04  0.00000000000E+00 0.  1.
        -13    1    3    3    0    0  0.20505412990E+03  0.23108395270E+02 -0.24662903352E+04  0.24749079198E+04  0.00000000000E+00 0. -1.
         22    1    1    2    0    0 -0.39169342811E+03  0.38390940273E+02  0.70072118370E+03  0.80368388263E+03  0.00000000000E+00 0. -1.
<mgrwt>
<rscale>  0 0.37130610E+04</rscale>
<asrwt>0</asrwt>
<pdfrwt beam="1">  1        2 0.11712707E+00 0.37130610E+04</pdfrwt>
<pdfrwt beam="2">  1       -2 0.69649851E+00 0.37130610E+04</pdfrwt>
<totfact> 0.69318347E-03</totfact>
</mgrwt>
</event>
<event>
 6    1  0.1762360E-005  0.1817028E+04  0.7818608E-02  0.8697296E-01
         -2   -1    0    0    0  501 -0.00000000000E+00  0.00000000000E+00  0.91842857212E+03  0.91842857212E+03  0.00000000000E+00 0.  1.
          2   -1    0    0  501    0  0.00000000000E+00 -0.00000000000E+00 -0.89870648918E+03  0.89870648918E+03  0.00000000000E+00 0. -1.
         23    2    1    2    0    0 -0.50255324643E+03 -0.34043231915E+03  0.68236964984E+03  0.91849401653E+03  0.97718933452E+02 0.  0.
         11    1    3    3    0    0 -0.15355912504E+03 -0.13924503472E+03  0.28721747216E+03  0.35420821686E+03  0.00000000000E+00 0. -1.
        -11    1    3    3    0    0 -0.34899412139E+03 -0.20118728443E+03  0.39515217768E+03  0.56428579966E+03  0.00000000000E+00 0.  1.
         22    1    1    2    0    0  0.50255324643E+03  0.34043231915E+03 -0.66264756691E+03  0.89864104477E+03  0.00000000000E+00 0. -1.
<mgrwt>
<rscale>  0 0.18170280E+04</rscale>
<asrwt>0</asrwt>
<pdfrwt beam="1">  1        2 0.13826254E+00 0.18170280E+04</pdfrwt>
<pdfrwt beam="2">  1       -2 0.14129670E+00 0.18170280E+04</pdfrwt>
<totfact> 0.97109140E+00</totfact>
</mgrwt>
</event>
<event>
 6    1  0.1762360E-005  0.1772203E+04  0.7818608E-02  0.8721223E-01
          2   -1    0    0  501    0  0.00000000000E+00  0.00000000000E+00  0.99776918514E+03  0.99776918514E+03  0.00000000000E+00 0. -1.
         -2   -1    0    0    0  501 -0.00000000000E+00 -0.00000000000E+00 -0.78693144666E+03  0.78693144666E+03  0.00000000000E+00 0.  1.
         23    2    1    2    0    0 -0.22175052153E+03 -0.52601741645E+03 -0.57378230681E+03  0.81439334456E+03  0.90237286354E+02 0.  0.
         13    1    3    3    0    0 -0.73507194943E+02 -0.21302516878E+03 -0.28594360280E+03  0.36406973814E+03  0.00000000000E+00 0. -1.
        -13    1    3    3    0    0 -0.14824332659E+03 -0.31299224767E+03 -0.28783870401E+03  0.45032360643E+03  0.00000000000E+00 0.  1.
         22    1    1    2    0    0  0.22175052153E+03  0.52601741645E+03  0.78462004528E+03  0.97030728724E+03  0.00000000000E+00 0. -1.
<mgrwt>
<rscale>  0 0.17722031E+04</rscale>
<asrwt>0</asrwt>
<pdfrwt beam="1">  1        2 0.15350295E+00 0.17722031E+04</pdfrwt>
<pdfrwt beam="2">  1       -2 0.12106638E+00 0.17722031E+04</pdfrwt>
<totfact> 0.12420871E+01</totfact>
</mgrwt>
</event>
<event>
 6    1  0.1762360E-005  0.2218001E+04  0.7818608E-02  0.8510973E-01
          1   -1    0    0  501    0  0.00000000000E+00  0.00000000000E+00  0.16113293252E+04  0.16113293252E+04  0.00000000000E+00 0. -1.
         -1   -1    0    0    0  501 -0.00000000000E+00 -0.00000000000E+00 -0.76327167453E+03  0.76327167453E+03  0.00000000000E+00 0.  1.
         23    2    1    2    0    0 -0.10467281993E+04  0.16032018185E+03  0.78277687120E+02  0.10654395596E+04  0.87701625109E+02 0.  0.
         13    1    3    3    0    0 -0.38444046850E+03  0.93325318919E+02  0.38566151977E+01  0.39562477482E+03  0.00000000000E+00 0. -1.
        -13    1    3    3    0    0 -0.66228773080E+03  0.66994862926E+02  0.74421071922E+02  0.66981478483E+03  0.00000000000E+00 0.  1.
         22    1    1    2    0    0  0.10467281993E+04 -0.16032018185E+03  0.76977996356E+03  0.13091614401E+04  0.00000000000E+00 0.  1.
<mgrwt>
<rscale>  0 0.22180009E+04</rscale>
<asrwt>0</asrwt>
<pdfrwt beam="1">  1        1 0.24789682E+00 0.22180009E+04</pdfrwt>
<pdfrwt beam="2">  1       -1 0.11742641E+00 0.22180009E+04</pdfrwt>
<totfact> 0.32563673E+00</totfact>
</mgrwt>
</event>
<event>
 6    1  0.1762360E-005  0.2848044E+04  0.7818608E-02  0.8288506E-01
          2   -1    0    0  501    0  0.00000000000E+00  0.00000000000E+00  0.14334856180E+04  0.14334856180E+04  0.00000000000E+00 0. -1.
         -2   -1    0    0    0  501 -0.00000000000E+00 -0.00000000000E+00 -0.14146206234E+04  0.14146206234E+04  0.00000000000E+00 0.  1.
         23    2    1    2    0    0  0.56139381493E+03  0.11782665344E+04  0.57551252509E+03  0.14291871053E+04  0.88803569721E+02 0.  0.
         11    1    3    3    0    0  0.20653806044E+03  0.52596846955E+03  0.26924498282E+03  0.62593423149E+03  0.00000000000E+00 0.  1.
        -11    1    3    3    0    0  0.35485575449E+03  0.65229806483E+03  0.30626754228E+03  0.80325287384E+03  0.00000000000E+00 0. -1.
         22    1    1    2    0    0 -0.56139381493E+03 -0.11782665344E+04 -0.55664753053E+03  0.14189191361E+04  0.00000000000E+00 0. -1.
<mgrwt>
<rscale>  0 0.28480438E+04</rscale>
<asrwt>0</asrwt>
<pdfrwt beam="1">  1        2 0.22053625E+00 0.28480438E+04</pdfrwt>
<pdfrwt beam="2">  1       -2 0.21763394E+00 0.28480438E+04</pdfrwt>
<totfact> 0.12280225E+00</totfact>
</mgrwt>
</event>
<event>
 6    1  0.1762360E-005  0.2803824E+04  0.7818608E-02  0.8302082E-01
         -2   -1    0    0    0  501 -0.00000000000E+00  0.00000000000E+00  0.99916177026E+03  0.99916177026E+03  0.00000000000E+00 0.  1.
          2   -1    0    0  501    0  0.00000000000E+00 -0.00000000000E+00 -0.19670055357E+04  0.19670055357E+04  0.00000000000E+00 0. -1.
         23    2    1    2    0    0  0.99439230685E+03 -0.12569135848E+03  0.55011354650E+03  0.11471541729E+04  0.93399168840E+02 0.  0.
         13    1    3    3    0    0  0.77785442908E+03 -0.60088878391E+02  0.43633524398E+03  0.89389967630E+03  0.00000000000E+00 0.  1.
        -13    1    3    3    0    0  0.21653787777E+03 -0.65602480089E+02  0.11377830252E+03  0.25325449656E+03  0.00000000000E+00 0. -1.
         22    1    1    2    0    0 -0.99439230685E+03  0.12569135848E+03 -0.15179573119E+04  0.18190131331E+04  0.00000000000E+00 0. -1.
<mgrwt>
<rscale>  0 0.28038236E+04</rscale>
<asrwt>0</asrwt>
<pdfrwt beam="1">  1        2 0.30261623E+00 0.28038236E+04</pdfrwt>
<pdfrwt beam="2">  1       -2 0.15371720E+00 0.28038236E+04</pdfrwt>
<totfact> 0.17019915E+00</totfact>
</mgrwt>
</event>
<event>
 6    1  0.1762360E-005  0.1578877E+04  0.7818608E-02  0.8833631E-01
          1   -1    0    0  501    0  0.00000000000E+00  0.00000000000E+00  0.21372604428E+04  0.21372604428E+04  0.00000000000E+00 0. -1.
         -1   -1    0    0    0  501 -0.00000000000E+00 -0.00000000000E+00 -0.29159432271E+03  0.29159432271E+03  0.00000000000E+00 0.  1.
         23    2    1    2    0    0  0.57251123658E+03  0.57894162477E+02  0.17510863934E+04  0.18457028344E+04  0.95888194573E+02 0.  0.
         13    1    3    3    0    0  0.20814531284E+03 -0.20389663848E+02  0.56635184114E+03  0.60373389635E+03  0.00000000000E+00 0.  1.
        -13    1    3    3    0    0  0.36436592373E+03  0.78283826325E+02  0.11847345522E+04  0.12419689381E+04  0.00000000000E+00 0. -1.
         22    1    1    2    0    0 -0.57251123658E+03 -0.57894162477E+02  0.94579726750E+02  0.58315193112E+03  0.00000000000E+00 0.  1.
<mgrwt>
<rscale>  0 0.15788768E+04</rscale>
<asrwt>0</asrwt>
<pdfrwt beam="1">  1        1 0.32880929E+00 0.15788768E+04</pdfrwt>
<pdfrwt beam="2">  1       -1 0.44860666E-01 0.15788768E+04</pdfrwt>
<totfact> 0.11391149E+01</totfact>
</mgrwt>
</event>
<event>
 6    1  0.1762360E-005  0.1230584E+04  0.7818608E-02  0.9086500E-01
         -1   -1    0    0    0  501 -0.00000000000E+00  0.00000000000E+00  0.28833239964E+03  0.28833239964E+03  0.00000000000E+00 0.  1.
          1   -1    0    0  501    0  0.00000000000E+00 -0.00000000000E+00 -0.13130123871E+04  0.13130123871E+04  0.00000000000E+00 0. -1.
         23    2    1    2    0    0  0.35769316354E+03 -0.84876672175E+02 -0.11516885001E+04  0.12123979896E+04  0.91509755656E+02 0.  0.
         13    1    3    3    0    0  0.34427115392E+03 -0.82049417080E+02 -0.10132211995E+04  0.10732529680E+04  0.00000000000E+00 0.  1.
        -13    1    3    3    0    0  0.13422009619E+02 -0.28272550953E+01 -0.13846730058E+03  0.13914502163E+03  0.00000000000E+00 0. -1.
         22    1    1    2    0    0 -0.35769316354E+03  0.84876672175E+02  0.12700851259E+03  0.38894679712E+03  0.00000000000E+00 0.  1.
<mgrwt>
<rscale>  0 0.12305836E+04</rscale>
<asrwt>0</asrwt>
<pdfrwt beam="1">  1        1 0.20200190E+00 0.12305836E+04</pdfrwt>
<pdfrwt beam="2">  1       -1 0.44358831E-01 0.12305836E+04</pdfrwt>
<totfact> 0.43970165E+01</totfact>
</mgrwt>
</event>
<event>
 6    1  0.1762360E-005  0.2571776E+04  0.7818608E-02  0.8377852E-01
          1   -1    0    0  501    0  0.00000000000E+00  0.00000000000E+00  0.29064430943E+04  0.29064430943E+04  0.00000000000E+00 0. -1.
         -1   -1    0    0    0  501 -0.00000000000E+00 -0.00000000000E+00 -0.56891133986E+03  0.56891133986E+03  0.00000000000E+00 0.  1.
         23    2    1    2    0    0  0.29211619440E+03 -0.41585433162E+03  0.27640523183E+04  0.28118889207E+04  0.92018411861E+02 0.  0.
         11    1    3    3    0    0  0.24802268400E+03 -0.28351020747E+03  0.20574779091E+04  0.20916760351E+04  0.00000000000E+00 0. -1.
        -11    1    3    3    0    0  0.44093510400E+02 -0.13234412415E+03  0.70657440921E+03  0.72021288562E+03  0.00000000000E+00 0.  1.
         22    1    1    2    0    0 -0.29211619440E+03  0.41585433162E+03 -0.42652056383E+03  0.66346551344E+03  0.00000000000E+00 0.  1.
<mgrwt>
<rscale>  0 0.25717764E+04</rscale>
<asrwt>0</asrwt>
<pdfrwt beam="1">  1        1 0.44714508E+00 0.25717764E+04</pdfrwt>
<pdfrwt beam="2">  1       -1 0.87524824E-01 0.25717764E+04</pdfrwt>
<totfact> 0.79240434E-01</totfact>
</mgrwt>
</event>
<event>
 6    1  0.1762360E-005  0.2373736E+04  0.7818608E-02  0.8449402E-01
         -2   -1    0    0    0  501 -0.00000000000E+00  0.00000000000E+00  0.53505108932E+03  0.53505108932E+03  0.00000000000E+00 0.  1.
          2   -1    0    0  501    0  0.00000000000E+00 -0.00000000000E+00 -0.26327497494E+04  0.26327497494E+04  0.00000000000E+00 0. -1.
         23    2    1    2    0    0 -0.11464926894E+04 -0.21944462601E+03 -0.13239517759E+04  0.17673417455E+04  0.89705685030E+02 0.  0.
         13    1    3    3    0    0 -0.44894112001E+03 -0.98487342645E+02 -0.58542870843E+03  0.74429473903E+03  0.00000000000E+00 0.  1.
        -13    1    3    3    0    0 -0.69755156942E+03 -0.12095728337E+03 -0.73852306742E+03  0.10230470065E+04  0.00000000000E+00 0. -1.
         22    1    1    2    0    0  0.11464926894E+04  0.21944462601E+03 -0.77374688422E+03  0.14004590932E+04  0.00000000000E+00 0. -1.
<mgrwt>
<rscale>  0 0.23737360E+04</rscale>
<asrwt>0</asrwt>
<pdfrwt beam="1">  1        2 0.40503841E+00 0.23737360E+04</pdfrwt>
<pdfrwt beam="2">  1       -2 0.82315554E-01 0.23737360E+04</pdfrwt>
<totfact> 0.33999206E+00</totfact>
</mgrwt>
</event>
<event>
 6    1  0.1762360E-005  0.2382276E+04  0.7818608E-02  0.8446169E-01
          2   -1    0    0  501    0  0.00000000000E+00  0.00000000000E+00  0.14026802417E+04  0.14026802417E+04  0.00000000000E+00 0. -1.
         -2   -1    0    0    0  501 -0.00000000000E+00 -0.00000000000E+00 -0.10114990950E+04  0.10114990950E+04  0.00000000000E+00 0.  1.
         23    2    1    2    0    0  0.10092377888E+04  0.62925407293E+03  0.21842749929E+03  0.12123617860E+04  0.87114436726E+02 0.  0.
         11    1    3    3    0    0  0.32214889130E+03  0.17956157233E+03  0.31256361724E+02  0.37013406567E+03  0.00000000000E+00 0. -1.
        -11    1    3    3    0    0  0.68708889748E+03  0.44969250059E+03  0.18717113756E+03  0.84222772032E+03  0.00000000000E+00 0.  1.
         22    1    1    2    0    0 -0.10092377888E+04 -0.62925407293E+03  0.17275364736E+03  0.12018175507E+04  0.00000000000E+00 0. -1.
<mgrwt>
<rscale>  0 0.23822761E+04</rscale>
<asrwt>0</asrwt>
<pdfrwt beam="1">  1        2 0.21579696E+00 0.23822761E+04</pdfrwt>
<pdfrwt beam="2">  1       -2 0.15561525E+00 0.23822761E+04</pdfrwt>
<totfact> 0.35274744E+00</totfact>
</mgrwt>
</event>
<event>
 6    1  0.1762360E-005  0.2503605E+04  0.7818608E-02  0.8401702E-01
          2   -1    0    0  501    0  0.00000000000E+00  0.00000000000E+00  0.22339678013E+04  0.22339678013E+04  0.00000000000E+00 0. -1.
         -2   -1    0    0    0  501 -0.00000000000E+00 -0.00000000000E+00 -0.70144700117E+03  0.70144700117E+03  0.00000000000E+00 0.  1.
         23    2    1    2    0    0  0.10991879783E+04 -0.14731497567E+03  0.91050765268E+02  0.11166922356E+04  0.93783759570E+02 0.  0.
         13    1    3    3    0    0  0.65118511092E+03 -0.12540528054E+03  0.80616406766E+02  0.66803258761E+03  0.00000000000E+00 0. -1.
        -13    1    3    3    0    0  0.44800286737E+03 -0.21909695139E+02  0.10434358502E+02  0.44865964801E+03  0.00000000000E+00 0.  1.
         22    1    1    2    0    0 -0.10991879783E+04  0.14731497567E+03  0.14414700348E+04  0.18187225668E+04  0.00000000000E+00 0. -1.
<mgrwt>
<rscale>  0 0.25036054E+04</rscale>
<asrwt>0</asrwt>
<pdfrwt beam="1">  1        2 0.34368735E+00 0.25036054E+04</pdfrwt>
<pdfrwt beam="2">  1       -2 0.10791492E+00 0.25036054E+04</pdfrwt>
<totfact> 0.30313021E+00</totfact>
</mgrwt>
</event>
<event>
 6    1  0.1762360E-005  0.1069918E+04  0.7818608E-02  0.9235018E-01
         -2   -1    0    0    0  501 -0.00000000000E+00  0.00000000000E+00  0.26058100090E+03  0.26058100090E+03  0.00000000000E+00 0.  1.
          2   -1    0    0  501    0  0.00000000000E+00 -0.00000000000E+00 -0.10982425129E+04  0.10982425129E+04  0.00000000000E+00 0. -1.
         23    2    1    2    0    0  0.31616625592E+03 -0.41081797274E+03 -0.56824907923E+03  0.77460132403E+03  0.91475062390E+02 0.  0.
         11    1    3    3    0    0  0.23381953498E+03 -0.25737759208E+03 -0.42489931509E+03  0.54904847491E+03  0.00000000000E+00 0. -1.
        -11    1    3    3    0    0  0.82346720945E+02 -0.15344038065E+03 -0.14334976414E+03  0.22555284912E+03  0.00000000000E+00 0.  1.
         22    1    1    2    0    0 -0.31616625592E+03  0.41081797274E+03 -0.26941243280E+03  0.58422218980E+03  0.00000000000E+00 0.  1.
<mgrwt>
<rscale>  0 0.10699180E+04</rscale>
<asrwt>0</asrwt>
<pdfrwt beam="1">  1        2 0.16896038E+00 0.10699180E+04</pdfrwt>
<pdfrwt beam="2">  1       -2 0.40089386E-01 0.10699180E+04</pdfrwt>
<totfact> 0.12780793E+02</totfact>
</mgrwt>
</event>
<event>
 6    1  0.1762360E-005  0.1447280E+04  0.7818608E-02  0.8920288E-01
          2   -1    0    0  501    0  0.00000000000E+00  0.00000000000E+00  0.30910834436E+03  0.30910834436E+03  0.00000000000E+00 0. -1.
         -2   -1    0    0    0  501 -0.00000000000E+00 -0.00000000000E+00 -0.16940820190E+04  0.16940820190E+04  0.00000000000E+00 0.  1.
         23    2    1    2    0    0  0.11112373380E+03  0.23910174376E+03 -0.16236402813E+04  0.16475502683E+04  0.93252321119E+02 0.  0.
         13    1    3    3    0    0  0.12298594030E+03  0.18804894805E+03 -0.13949413989E+04  0.14129223102E+04  0.00000000000E+00 0.  1.
        -13    1    3    3    0    0 -0.11862206503E+02  0.51052795709E+02 -0.22869888246E+03  0.23462795812E+03  0.00000000000E+00 0. -1.
         22    1    1    2    0    0 -0.11112373380E+03 -0.23910174376E+03  0.23866660667E+03  0.35564009507E+03  0.00000000000E+00 0. -1.
<mgrwt>
<rscale>  0 0.14472801E+04</rscale>
<asrwt>0</asrwt>
<pdfrwt beam="1">  1        2 0.47555130E-01 0.14472801E+04</pdfrwt>
<pdfrwt beam="2">  1       -2 0.26062801E+00 0.14472801E+04</pdfrwt>
<totfact> 0.57043782E+00</totfact>
</mgrwt>
</event>
<event>
 6    1  0.1762360E-005  0.2021785E+04  0.7818608E-02  0.8596503E-01
         -2   -1    0    0    0  501 -0.00000000000E+00  0.00000000000E+00  0.10156207060E+04  0.10156207060E+04  0.00000000000E+00 0.  1.
          2   -1    0    0  501    0  0.00000000000E+00 -0.00000000000E+00 -0.10061861340E+04  0.10061861340E+04  0.00000000000E+00 0. -1.
         23    2    1    2    0    0  0.32204796503E+03 -0.78195048120E+03  0.55475528708E+03  0.10155582976E+04  0.91890045990E+02 0.  0.
         11    1    3    3    0    0  0.13917755556E+03 -0.39697835579E+03  0.32341482565E+03  0.53062166973E+03  0.00000000000E+00 0. -1.
        -11    1    3    3    0    0  0.18287040947E+03 -0.38497212541E+03  0.23134046142E+03  0.48493662791E+03  0.00000000000E+00 0.  1.
         22    1    1    2    0    0 -0.32204796503E+03  0.78195048120E+03 -0.54532071508E+03  0.10062485424E+04  0.00000000000E+00 0. -1.
<mgrwt>
<rscale>  0 0.20217848E+04</rscale>
<asrwt>0</asrwt>
<pdfrwt beam="1">  1        2 0.15479787E+00 0.20217848E+04</pdfrwt>
<pdfrwt beam="2">  1       -2 0.15624934E+00 0.20217848E+04</pdfrwt>
<totfact> 0.62176081E+00</totfact>
</mgrwt>
</event>
<event>
 6    1  0.1762360E-005  0.1332288E+04  0.7818608E-02  0.9004345E-01
         -2   -1    0    0    0  501 -0.00000000000E+00  0.00000000000E+00  0.13270258030E+03  0.13270258030E+03  0.00000000000E+00 0.  1.
          2   -1    0    0  501    0  0.00000000000E+00 -0.00000000000E+00 -0.33439283036E+04  0.33439283036E+04  0.00000000000E+00 0. -1.
         23    2    1    2    0    0  0.50322439620E+03  0.24529084671E+03 -0.68483161947E+03  0.88895440483E+03  0.88561811365E+02 0.  0.
         11    1    3    3    0    0  0.40226352662E+03  0.20992983754E+03 -0.49838199429E+03  0.67399636035E+03  0.00000000000E+00 0. -1.
        -11    1    3    3    0    0  0.10096086958E+03  0.35361009173E+02 -0.18644962518E+03  0.21495804448E+03  0.00000000000E+00 0.  1.
         22    1    1    2    0    0 -0.50322439620E+03 -0.24529084671E+03 -0.25263941038E+04  0.25876764791E+04  0.00000000000E+00 0. -1.
<mgrwt>
<rscale>  0 0.13322881E+04</rscale>
<asrwt>0</asrwt>
<pdfrwt beam="1">  1        2 0.51445040E+00 0.13322881E+04</pdfrwt>
<pdfrwt beam="2">  1       -2 0.20415786E-01 0.13322881E+04</pdfrwt>
<totfact> 0.21331363E+01</totfact>
</mgrwt>
</event>
<event>
 6    1  0.1762360E-005  0.1087325E+04  0.7818608E-02  0.9217635E-01
         -2   -1    0    0    0  501 -0.00000000000E+00  0.00000000000E+00  0.51281413281E+03  0.51281413281E+03  0.00000000000E+00 0.  1.
          2   -1    0    0  501    0  0.00000000000E+00 -0.00000000000E+00 -0.57636611601E+03  0.57636611601E+03  0.00000000000E+00 0. -1.
         23    2    1    2    0    0  0.24105697446E+03 -0.39558139992E+03 -0.30964250132E+03  0.56462934374E+03  0.91294623552E+02 0.  0.
         11    1    3    3    0    0  0.20280428910E+03 -0.35414425323E+03 -0.23449798689E+03  0.47067721172E+03  0.00000000000E+00 0.  1.
        -11    1    3    3    0    0  0.38252685367E+02 -0.41437146691E+02 -0.75144514428E+02  0.93952132026E+02  0.00000000000E+00 0. -1.
         22    1    1    2    0    0 -0.24105697446E+03  0.39558139992E+03  0.24609051812E+03  0.52455090507E+03  0.00000000000E+00 0.  1.
<mgrwt>
<rscale>  0 0.10873246E+04</rscale>
<asrwt>0</asrwt>
<pdfrwt beam="1">  1        2 0.88671711E-01 0.10873246E+04</pdfrwt>
<pdfrwt beam="2">  1       -2 0.78894481E-01 0.10873246E+04</pdfrwt>
<totfact> 0.73820769E+01</totfact>
</mgrwt>
</event>
<event>
 6    1  0.1762360E-005  0.1876890E+04  0.7818608E-02  0.8666446E-01
         -2   -1    0    0    0  501 -0.00000000000E+00  0.00000000000E+00  0.19269522859E+03  0.19269522859E+03  0.00000000000E+00 0. -1.
          2   -1    0    0  501    0  0.00000000000E+00 -0.00000000000E+00 -0.45703192814E+04  0.45703192814E+04  0.00000000000E+00 0.  1.
         23    2    1    2    0    0 -0.75408344405E+03 -0.54584298196E+03 -0.24494865320E+04  0.26219164971E+04  0.88743709144E+02 0.  0.
         13    1    3    3    0    0 -0.20560094915E+03 -0.19892495431E+03 -0.76279810451E+03  0.81468020473E+03  0.00000000000E+00 0. -1.
        -13    1    3    3    0    0 -0.54848249490E+03 -0.34691802765E+03 -0.16866884275E+04  0.18072362924E+04  0.00000000000E+00 0.  1.
         22    1    1    2    0    0  0.75408344405E+03  0.54584298196E+03 -0.19281375208E+04  0.21410980129E+04  0.00000000000E+00 0.  1.
<mgrwt>
<rscale>  0 0.18768897E+04</rscale>
<asrwt>0</asrwt>
<pdfrwt beam="1">  1        2 0.70312606E+00 0.18768897E+04</pdfrwt>
<pdfrwt beam="2">  1       -2 0.29645419E-01 0.18768897E+04</pdfrwt>
<totfact> 0.10528442E+00</totfact>
</mgrwt>
</event>
<event>
 6    1  0.1762360E-005  0.1055546E+04  0.7818608E-02  0.9249637E-01
         -2   -1    0    0    0  501 -0.00000000000E+00  0.00000000000E+00  0.16635032164E+03  0.16635032164E+03  0.00000000000E+00 0.  1.
          2   -1    0    0  501    0  0.00000000000E+00 -0.00000000000E+00 -0.16744441673E+04  0.16744441673E+04  0.00000000000E+00 0. -1.
         23    2    1    2    0    0  0.35361633880E+03 -0.30380090992E+03 -0.34231716747E+03  0.58525684659E+03  0.89470807539E+02 0.  0.
         13    1    3    3    0    0  0.24026991695E+03 -0.17590116399E+03 -0.17151793052E+03  0.34364116892E+03  0.00000000000E+00 0. -1.
        -13    1    3    3    0    0  0.11334642184E+03 -0.12789974594E+03 -0.17079923694E+03  0.24161567767E+03  0.00000000000E+00 0.  1.
         22    1    1    2    0    0 -0.35361633880E+03  0.30380090992E+03 -0.11657766782E+04  0.12555376424E+04  0.00000000000E+00 0. -1.
<mgrwt>
<rscale>  0 0.10555460E+04</rscale>
<asrwt>0</asrwt>
<pdfrwt beam="1">  1        2 0.25760679E+00 0.10555460E+04</pdfrwt>
<pdfrwt beam="2">  1       -2 0.25592357E-01 0.10555460E+04</pdfrwt>
<totfact> 0.13866875E+02</totfact>
</mgrwt>
</event>
<event>
 6    1  0.1762360E-005  0.2212776E+04  0.7818608E-02  0.8513129E-01
         -2   -1    0    0    0  501 -0.00000000000E+00  0.00000000000E+00  0.87774122967E+03  0.87774122967E+03  0.00000000000E+00 0.  1.
          2   -1    0    0  501    0  0.00000000000E+00 -0.00000000000E+00 -0.13945956264E+04  0.13945956264E+04  0.00000000000E+00 0. -1.
         23    2    1    2    0    0  0.43651741411E+03 -0.59243980026E+03  0.58710429799E+03  0.94559001910E+03  0.88975602003E+02 0.  0.
         13    1    3    3    0    0  0.25163812845E+03 -0.31955521247E+03  0.26995340601E+03  0.48817222671E+03  0.00000000000E+00 0.  1.
        -13    1    3    3    0    0  0.18487928566E+03 -0.27288458779E+03  0.31715089198E+03  0.45741779239E+03  0.00000000000E+00 0. -1.
         22    1    1    2    0    0 -0.43651741411E+03  0.59243980026E+03 -0.11039586947E+04  0.13267468370E+04  0.00000000000E+00 0. -1.
<mgrwt>
<rscale>  0 0.22127757E+04</rscale>
<asrwt>0</asrwt>
<pdfrwt beam="1">  1        2 0.21455317E+00 0.22127757E+04</pdfrwt>
<pdfrwt beam="2">  1       -2 0.13503711E+00 0.22127757E+04</pdfrwt>
<totfact> 0.52472454E+00</totfact>
</mgrwt>
</event>
<event>
 6    1  0.1762360E-005  0.3398708E+04  0.7818608E-02  0.8138224E-01
         -1   -1    0    0    0  501 -0.00000000000E+00  0.00000000000E+00  0.10668798712E+04  0.10668798712E+04  0.00000000000E+00 0.  1.
          1   -1    0    0  501    0  0.00000000000E+00 -0.00000000000E+00 -0.27067749901E+04  0.27067749901E+04  0.00000000000E+00 0. -1.
         23    2    1    2    0    0 -0.56498738985E+03 -0.48081485974E+03  0.87566611755E+03  0.11509764567E+04  0.86959613425E+02 0.  0.
         11    1    3    3    0    0 -0.40981864193E+03 -0.30830172896E+03  0.64189984160E+03  0.82160615991E+03  0.00000000000E+00 0.  1.
        -11    1    3    3    0    0 -0.15516874792E+03 -0.17251313078E+03  0.23376627594E+03  0.32937029677E+03  0.00000000000E+00 0. -1.
         22    1    1    2    0    0  0.56498738985E+03  0.48081485974E+03 -0.25155612365E+04  0.26226784047E+04  0.00000000000E+00 0. -1.
<mgrwt>
<rscale>  0 0.33987078E+04</rscale>
<asrwt>0</asrwt>
<pdfrwt beam="1">  1        1 0.41642691E+00 0.33987078E+04</pdfrwt>
<pdfrwt beam="2">  1       -1 0.16413537E+00 0.33987078E+04</pdfrwt>
<totfact> 0.21713288E-01</totfact>
</mgrwt>
</event>
<event>
 6    1  0.1762360E-005  0.1240790E+04  0.7818608E-02  0.9077884E-01
         -2   -1    0    0    0  501 -0.00000000000E+00  0.00000000000E+00  0.67605508414E+03  0.67605508414E+03  0.00000000000E+00 0.  1.
          2   -1    0    0  501    0  0.00000000000E+00 -0.00000000000E+00 -0.56931708587E+03  0.56931708587E+03  0.00000000000E+00 0. -1.
         23    2    1    2    0    0  0.43974598735E+03 -0.40048631624E+03  0.21857517579E+03  0.64016693443E+03  0.90954788675E+02 0.  0.
         11    1    3    3    0    0  0.22069602142E+03 -0.14005247489E+03  0.96371635242E+02  0.27858377855E+03  0.00000000000E+00 0.  1.
        -11    1    3    3    0    0  0.21904996593E+03 -0.26043384135E+03  0.12220354054E+03  0.36158315588E+03  0.00000000000E+00 0. -1.
         22    1    1    2    0    0 -0.43974598735E+03  0.40048631624E+03 -0.11183717751E+03  0.60520523557E+03  0.00000000000E+00 0. -1.
<mgrwt>
<rscale>  0 0.12407896E+04</rscale>
<asrwt>0</asrwt>
<pdfrwt beam="1">  1        2 0.87587244E-01 0.12407896E+04</pdfrwt>
<pdfrwt beam="2">  1       -2 0.10400847E+00 0.12407896E+04</pdfrwt>
<totfact> 0.39105652E+01</totfact>
</mgrwt>
</event>
<event>
 6    1  0.1762360E-005  0.2558086E+04  0.7818608E-02  0.8382579E-01
         -1   -1    0    0    0  501 -0.00000000000E+00  0.00000000000E+00  0.79482087872E+03  0.79482087872E+03  0.00000000000E+00 0.  1.
          1   -1    0    0  501    0  0.00000000000E+00 -0.00000000000E+00 -0.20582640075E+04  0.20582640075E+04  0.00000000000E+00 0. -1.
         23    2    1    2    0    0  0.46727020946E+03  0.10465127281E+04 -0.34928543815E+01  0.11498511874E+04  0.92818179523E+02 0.  0.
         13    1    3    3    0    0  0.38827400853E+03  0.77190308054E+03  0.17579434027E+01  0.86405680474E+03  0.00000000000E+00 0. -1.
        -13    1    3    3    0    0  0.78996200932E+02  0.27460964757E+03 -0.52507977842E+01  0.28579438269E+03  0.00000000000E+00 0.  1.
         22    1    1    2    0    0 -0.46727020946E+03 -0.10465127281E+04 -0.12599502744E+04  0.17032336988E+04  0.00000000000E+00 0. -1.
<mgrwt>
<rscale>  0 0.25580862E+04</rscale>
<asrwt>0</asrwt>
<pdfrwt beam="1">  1        1 0.31665600E+00 0.25580862E+04</pdfrwt>
<pdfrwt beam="2">  1       -1 0.12228013E+00 0.25580862E+04</pdfrwt>
<totfact> 0.14210238E+00</totfact>
</mgrwt>
</event>
<event>
 6    1  0.1762360E-005  0.1425980E+04  0.7818608E-02  0.8935225E-01
         -2   -1    0    0    0  501 -0.00000000000E+00  0.00000000000E+00  0.16126506566E+04  0.16126506566E+04  0.00000000000E+00 0.  1.
          2   -1    0    0  501    0  0.00000000000E+00 -0.00000000000E+00 -0.31522912299E+03  0.31522912299E+03  0.00000000000E+00 0. -1.
         23    2    1    2    0    0 -0.55618623209E+03  0.39136766151E+03  0.92647054892E+03  0.11532079754E+04  0.95022024694E+02 0.  0.
         11    1    3    3    0    0 -0.28926331214E+03  0.25615127281E+03  0.55421185534E+03  0.67560159778E+03  0.00000000000E+00 0.  1.
        -11    1    3    3    0    0 -0.26692291995E+03  0.13521638870E+03  0.37225869357E+03  0.47760637758E+03  0.00000000000E+00 0. -1.
         22    1    1    2    0    0  0.55618623209E+03 -0.39136766151E+03  0.37095098471E+03  0.77467180425E+03  0.00000000000E+00 0.  1.
<mgrwt>
<rscale>  0 0.14259796E+04</rscale>
<asrwt>0</asrwt>
<pdfrwt beam="1">  1        2 0.48496789E-01 0.14259796E+04</pdfrwt>
<pdfrwt beam="2">  1       -2 0.24810010E+00 0.14259796E+04</pdfrwt>
<totfact> 0.66683739E+00</totfact>
</mgrwt>
</event>
<event>
 6    1  0.1762360E-005  0.2569679E+04  0.7818608E-02  0.8378574E-01
          1   -1    0    0  501    0  0.00000000000E+00  0.00000000000E+00  0.32354878109E+04  0.32354878109E+04  0.00000000000E+00 0. -1.
         -1   -1    0    0    0  501 -0.00000000000E+00 -0.00000000000E+00 -0.51022070398E+03  0.51022070398E+03  0.00000000000E+00 0.  1.
         23    2    1    2    0    0  0.11163852387E+04 -0.42573308752E+03  0.20467619347E+04  0.23716874336E+04  0.90012234753E+02 0.  0.
         13    1    3    3    0    0  0.74809271423E+03 -0.29780162830E+03  0.14574616342E+04  0.16650894673E+04  0.00000000000E+00 0. -1.
        -13    1    3    3    0    0  0.36829252448E+03 -0.12793145922E+03  0.58930030044E+03  0.70659796627E+03  0.00000000000E+00 0.  1.
         22    1    1    2    0    0 -0.11163852387E+04  0.42573308752E+03  0.67850517223E+03  0.13740210813E+04  0.00000000000E+00 0. -1.
<mgrwt>
<rscale>  0 0.25696793E+04</rscale>
<asrwt>0</asrwt>
<pdfrwt beam="1">  1        1 0.49776734E+00 0.25696793E+04</pdfrwt>
<pdfrwt beam="2">  1       -1 0.78495495E-01 0.25696793E+04</pdfrwt>
<totfact> 0.57334900E-01</totfact>
</mgrwt>
</event>
<event>
 6    1  0.1762360E-005  0.1924437E+04  0.7818608E-02  0.8642787E-01
         -2   -1    0    0    0  501 -0.00000000000E+00  0.00000000000E+00  0.52214631255E+03  0.52214631255E+03  0.00000000000E+00 0.  1.
          2   -1    0    0  501    0  0.00000000000E+00 -0.00000000000E+00 -0.17731895080E+04  0.17731895080E+04  0.00000000000E+00 0. -1.
         23    2    1    2    0    0 -0.57472983930E+03  0.52612596463E+03  0.42035035929E+02  0.78564239761E+03  0.91346121052E+02 0.  0.
         13    1    3    3    0    0 -0.27672730704E+03  0.31508663184E+03  0.21693415056E+02  0.41991450592E+03  0.00000000000E+00 0.  1.
        -13    1    3    3    0    0 -0.29800253225E+03  0.21103933279E+03  0.20341620873E+02  0.36572789168E+03  0.00000000000E+00 0. -1.
         22    1    1    2    0    0  0.57472983930E+03 -0.52612596463E+03 -0.12930782314E+04  0.15096934230E+04  0.00000000000E+00 0. -1.
<mgrwt>
<rscale>  0 0.19244369E+04</rscale>
<asrwt>0</asrwt>
<pdfrwt beam="1">  1        2 0.27279838E+00 0.19244369E+04</pdfrwt>
<pdfrwt beam="2">  1       -2 0.80330202E-01 0.19244369E+04</pdfrwt>
<totfact> 0.11430529E+01</totfact>
</mgrwt>
</event>
<event>
 6    1  0.1762360E-005  0.3013790E+04  0.7818608E-02  0.8239804E-01
          2   -1    0    0  501    0  0.00000000000E+00  0.00000000000E+00  0.20319630508E+04  0.20319630508E+04  0.00000000000E+00 0. -1.
         -2   -1    0    0    0  501 -0.00000000000E+00 -0.00000000000E+00 -0.11175065227E+04  0.11175065227E+04  0.00000000000E+00 0.  1.
         23    2    1    2    0    0 -0.69011174209E+03 -0.85509443419E+03  0.15329655460E+04  0.18885198865E+04  0.95306286797E+02 0.  0.
         13    1    3    3    0    0 -0.64903897424E+03 -0.82235935039E+03  0.14271976652E+04  0.17704292324E+04  0.00000000000E+00 0. -1.
        -13    1    3    3    0    0 -0.41072767842E+02 -0.32735083804E+02  0.10576788085E+03  0.11809065412E+03  0.00000000000E+00 0.  1.
         22    1    1    2    0    0  0.69011174209E+03  0.85509443419E+03 -0.61850901792E+03  0.12609496870E+04  0.00000000000E+00 0.  1.
<mgrwt>
<rscale>  0 0.30137896E+04</rscale>
<asrwt>0</asrwt>
<pdfrwt beam="1">  1        2 0.31260970E+00 0.30137896E+04</pdfrwt>
<pdfrwt beam="2">  1       -2 0.17192408E+00 0.30137896E+04</pdfrwt>
<totfact> 0.11325890E+00</totfact>
</mgrwt>
</event>
<event>
 6    1  0.1762360E-005  0.1005423E+04  0.7818608E-02  0.9302617E-01
          2   -1    0    0  501    0  0.00000000000E+00  0.00000000000E+00  0.24213083156E+04  0.24213083156E+04  0.00000000000E+00 0.  1.
         -2   -1    0    0    0  501 -0.00000000000E+00 -0.00000000000E+00 -0.10437277464E+03  0.10437277464E+03  0.00000000000E+00 0. -1.
         23    2    1    2    0    0  0.44034671085E+03 -0.17969984152E+03  0.15444809775E+04  0.16185519311E+04  0.89953348494E+02 0.  0.
         11    1    3    3    0    0  0.35579058463E+03 -0.15050549770E+03  0.11201506738E+04  0.11848950911E+04  0.00000000000E+00 0. -1.
        -11    1    3    3    0    0  0.84556126217E+02 -0.29194343818E+02  0.42433030375E+03  0.43365683999E+03  0.00000000000E+00 0.  1.
         22    1    1    2    0    0 -0.44034671085E+03  0.17969984152E+03  0.77245456345E+03  0.90712915915E+03  0.00000000000E+00 0. -1.
<mgrwt>
<rscale>  0 0.10054226E+04</rscale>
<asrwt>0</asrwt>
<pdfrwt beam="1">  1        2 0.37250893E+00 0.10054226E+04</pdfrwt>
<pdfrwt beam="2">  1       -2 0.16057352E-01 0.10054226E+04</pdfrwt>
<totfact> 0.12191809E+02</totfact>
</mgrwt>
</event>
<event>
 6    1  0.1762360E-005  0.2640052E+03  0.7818608E-02  0.1104760E+00
         -2   -1    0    0    0  501 -0.00000000000E+00  0.00000000000E+00  0.10864823591E+02  0.10864823591E+02  0.00000000000E+00 0.  1.
          2   -1    0    0  501    0  0.00000000000E+00 -0.00000000000E+00 -0.16037713502E+04  0.16037713502E+04  0.00000000000E+00 0. -1.
         23    2    1    2    0    0 -0.17647573205E+02 -0.15431935980E+02 -0.15878347615E+04  0.15906506721E+04  0.91655602566E+02 0.  0.
         13    1    3    3    0    0  0.52804363751E+01 -0.50271104134E+02 -0.69080784993E+03  0.69265471372E+03  0.00000000000E+00 0. -1.
        -13    1    3    3    0    0 -0.22928009580E+02  0.34839168154E+02 -0.89702691152E+03  0.89799595838E+03  0.00000000000E+00 0.  1.
         22    1    1    2    0    0  0.17647573205E+02  0.15431935980E+02 -0.50717651157E+01  0.23985501652E+02  0.00000000000E+00 0.  1.
<mgrwt>
<rscale>  0 0.26400525E+03</rscale>
<asrwt>0</asrwt>
<pdfrwt beam="1">  1        2 0.24673397E+00 0.26400525E+03</pdfrwt>
<pdfrwt beam="2">  1       -2 0.16715119E-02 0.26400525E+03</pdfrwt>
<totfact> 0.12077176E+04</totfact>
</mgrwt>
</event>
<event>
 6    1  0.1762360E-005  0.2019790E+04  0.7818608E-02  0.8597424E-01
         -1   -1    0    0    0  501 -0.00000000000E+00  0.00000000000E+00  0.72825332970E+03  0.72825332970E+03  0.00000000000E+00 0.  1.
          1   -1    0    0  501    0  0.00000000000E+00 -0.00000000000E+00 -0.14004574699E+04  0.14004574699E+04  0.00000000000E+00 0. -1.
         23    2    1    2    0    0  0.21789804758E+03  0.72546753608E+03  0.36391394426E+03  0.84522983365E+03  0.90539537351E+02 0.  0.
         13    1    3    3    0    0  0.48326948836E+02  0.20154916192E+03  0.57712289912E+02  0.21514708239E+03  0.00000000000E+00 0.  1.
        -13    1    3    3    0    0  0.16957109875E+03  0.52391837416E+03  0.30620165435E+03  0.63008275126E+03  0.00000000000E+00 0. -1.
         22    1    1    2    0    0 -0.21789804758E+03 -0.72546753608E+03 -0.10361180845E+04  0.12834809660E+04  0.00000000000E+00 0. -1.
<mgrwt>
<rscale>  0 0.20197899E+04</rscale>
<asrwt>0</asrwt>
<pdfrwt beam="1">  1        1 0.21545499E+00 0.20197899E+04</pdfrwt>
<pdfrwt beam="2">  1       -1 0.11203898E+00 0.20197899E+04</pdfrwt>
<totfact> 0.51943971E+00</totfact>
</mgrwt>
</event>
<event>
 6    1  0.1762360E-005  0.2419197E+04  0.7818608E-02  0.8432351E-01
          2   -1    0    0  501    0  0.00000000000E+00  0.00000000000E+00  0.32796840553E+04  0.32796840553E+04  0.00000000000E+00 0. -1.
         -2   -1    0    0    0  501 -0.00000000000E+00 -0.00000000000E+00 -0.44611870514E+03  0.44611870514E+03  0.00000000000E+00 0.  1.
         23    2    1    2    0    0  0.11968647956E+04 -0.13041584377E+03  0.12672270609E+04  0.17502245495E+04  0.89038860241E+02 0.  0.
         11    1    3    3    0    0  0.60378728961E+03 -0.78619761646E+02  0.70254128570E+03  0.92967973848E+03  0.00000000000E+00 0.  1.
        -11    1    3    3    0    0  0.59307750594E+03 -0.51796082125E+02  0.56468577521E+03  0.82054481102E+03  0.00000000000E+00 0. -1.
         22    1    1    2    0    0 -0.11968647956E+04  0.13041584377E+03  0.15663382892E+04  0.19755782109E+04  0.00000000000E+00 0.  1.
<mgrwt>
<rscale>  0 0.24191969E+04</rscale>
<asrwt>0</asrwt>
<pdfrwt beam="1">  1        2 0.50456676E+00 0.24191969E+04</pdfrwt>
<pdfrwt beam="2">  1       -2 0.68633649E-01 0.24191969E+04</pdfrwt>
<totfact> 0.20042800E+00</totfact>
</mgrwt>
</event>
<event>
 6    1  0.1762360E-005  0.2172086E+04  0.7818608E-02  0.8530137E-01
          1   -1    0    0  501    0  0.00000000000E+00  0.00000000000E+00  0.13727954347E+04  0.13727954347E+04  0.00000000000E+00 0. -1.
         -1   -1    0    0    0  501 -0.00000000000E+00 -0.00000000000E+00 -0.85918791370E+03  0.85918791370E+03  0.00000000000E+00 0.  1.
         23    2    1    2    0    0  0.81194997416E+03 -0.45852887411E+03 -0.31133251065E+03  0.98697831036E+03  0.87674192378E+02 0.  0.
         13    1    3    3    0    0  0.37156308834E+03 -0.24696140168E+03 -0.11750347448E+03  0.46136333735E+03  0.00000000000E+00 0. -1.
        -13    1    3    3    0    0  0.44038688582E+03 -0.21156747243E+03 -0.19382903617E+03  0.52561497301E+03  0.00000000000E+00 0.  1.
         22    1    1    2    0    0 -0.81194997416E+03  0.45852887411E+03  0.82494003168E+03  0.12450050381E+04  0.00000000000E+00 0. -1.
<mgrwt>
<rscale>  0 0.21720859E+04</rscale>
<asrwt>0</asrwt>
<pdfrwt beam="1">  1        1 0.21119930E+00 0.21720859E+04</pdfrwt>
<pdfrwt beam="2">  1       -1 0.13218276E+00 0.21720859E+04</pdfrwt>
<totfact> 0.35679104E+00</totfact>
</mgrwt>
</event>
<event>
 6    1  0.1762360E-005  0.3133643E+04  0.7818608E-02  0.8206565E-01
          1   -1    0    0  501    0  0.00000000000E+00  0.00000000000E+00  0.35916894490E+04  0.35916894490E+04  0.00000000000E+00 0. -1.
         -1   -1    0    0    0  501 -0.00000000000E+00 -0.00000000000E+00 -0.68350261946E+03  0.68350261946E+03  0.00000000000E+00 0.  1.
         23    2    1    2    0    0 -0.48919877878E+03 -0.62312278166E+03 -0.38708078588E+03  0.88603493084E+03  0.87343675722E+02 0.  0.
         13    1    3    3    0    0 -0.13115731445E+03 -0.19533605054E+03 -0.75674775760E+02  0.24715397116E+03  0.00000000000E+00 0. -1.
        -13    1    3    3    0    0 -0.35804146433E+03 -0.42778673111E+03 -0.31140601012E+03  0.63888095968E+03  0.00000000000E+00 0.  1.
         22    1    1    2    0    0  0.48919877878E+03  0.62312278166E+03  0.32952676154E+04  0.33891571376E+04  0.00000000000E+00 0. -1.
<mgrwt>
<rscale>  0 0.31336427E+04</rscale>
<asrwt>0</asrwt>
<pdfrwt beam="1">  1        1 0.55256760E+00 0.31336427E+04</pdfrwt>
<pdfrwt beam="2">  1       -1 0.10515425E+00 0.31336427E+04</pdfrwt>
<totfact> 0.15062221E-01</totfact>
</mgrwt>
</event>
<event>
 6    1  0.1762360E-005  0.8800680E+03  0.7818608E-02  0.9450846E-01
         -1   -1    0    0    0  501 -0.00000000000E+00  0.00000000000E+00  0.10838754101E+03  0.10838754101E+03  0.00000000000E+00 0.  1.
          1   -1    0    0  501    0  0.00000000000E+00 -0.00000000000E+00 -0.17864592642E+04  0.17864592642E+04  0.00000000000E+00 0. -1.
         23    2    1    2    0    0 -0.15388742609E+02  0.35346048996E+03 -0.13862293938E+04  0.14362150613E+04  0.12613737934E+03 0.  0.
         13    1    3    3    0    0  0.18400438164E+02  0.25325910429E+03 -0.76478270410E+03  0.80583579873E+03  0.00000000000E+00 0.  1.
        -13    1    3    3    0    0 -0.33789180772E+02  0.10020138567E+03 -0.62144668975E+03  0.63037926253E+03  0.00000000000E+00 0. -1.
         22    1    1    2    0    0  0.15388742609E+02 -0.35346048996E+03 -0.29184232932E+03  0.45863174393E+03  0.00000000000E+00 0.  1.
<mgrwt>
<rscale>  0 0.88006801E+03</rscale>
<asrwt>0</asrwt>
<pdfrwt beam="1">  1        1 0.27483987E+00 0.88006801E+03</pdfrwt>
<pdfrwt beam="2">  1       -1 0.16675007E-01 0.88006801E+03</pdfrwt>
<totfact> 0.11672827E+02</totfact>
</mgrwt>
</event>
<event>
 6    1  0.1762360E-005  0.2235780E+04  0.7818608E-02  0.8503682E-01
         -2   -1    0    0    0  501 -0.00000000000E+00  0.00000000000E+00  0.72908519724E+03  0.72908519724E+03  0.00000000000E+00 0.  1.
          2   -1    0    0  501    0  0.00000000000E+00 -0.00000000000E+00 -0.17140351210E+04  0.17140351210E+04  0.00000000000E+00 0. -1.
         23    2    1    2    0    0 -0.69764165544E+03  0.56482480840E+03 -0.12180432211E+04  0.15157242707E+04  0.89776571036E+02 0.  0.
         13    1    3    3    0    0 -0.51963982955E+03  0.46860994730E+03 -0.95022994016E+03  0.11800668516E+04  0.00000000000E+00 0. -1.
        -13    1    3    3    0    0 -0.17800182589E+03  0.96214861101E+02 -0.26781328096E+03  0.33565741907E+03  0.00000000000E+00 0.  1.
         22    1    1    2    0    0  0.69764165544E+03 -0.56482480840E+03  0.23309329741E+03  0.92739604748E+03  0.00000000000E+00 0.  1.
<mgrwt>
<rscale>  0 0.22357796E+04</rscale>
<asrwt>0</asrwt>
<pdfrwt beam="1">  1        2 0.26369770E+00 0.22357796E+04</pdfrwt>
<pdfrwt beam="2">  1       -2 0.11216696E+00 0.22357796E+04</pdfrwt>
<totfact> 0.55011800E+00</totfact>
</mgrwt>
</event>
<event>
 6    1  0.1762360E-005  0.5991780E+04  0.7818608E-02  0.7691422E-01
          2   -1    0    0  501    0  0.00000000000E+00  0.00000000000E+00  0.25417241459E+04  0.25417241459E+04  0.00000000000E+00 0. -1.
         -2   -1    0    0    0  501 -0.00000000000E+00 -0.00000000000E+00 -0.35312085848E+04  0.35312085848E+04  0.00000000000E+00 0.  1.
         23    2    1    2    0    0  0.19962749923E+04 -0.35832781941E+03 -0.27287823375E+04  0.34011037969E+04  0.87984777521E+02 0.  0.
         13    1    3    3    0    0  0.87366085877E+03 -0.11329053557E+03 -0.11978216765E+04  0.14869078015E+04  0.00000000000E+00 0.  1.
        -13    1    3    3    0    0  0.11226141335E+04 -0.24503728383E+03 -0.15309606610E+04  0.19141959954E+04  0.00000000000E+00 0. -1.
         22    1    1    2    0    0 -0.19962749923E+04  0.35832781941E+03  0.17392978986E+04  0.26718289337E+04  0.00000000000E+00 0. -1.
<mgrwt>
<rscale>  0 0.59917804E+04</rscale>
<asrwt>0</asrwt>
<pdfrwt beam="1">  1        2 0.39103449E+00 0.59917804E+04</pdfrwt>
<pdfrwt beam="2">  1       -2 0.54326286E+00 0.59917804E+04</pdfrwt>
<totfact> 0.20889675E-03</totfact>
</mgrwt>
</event>
<event>
 6    1  0.1762360E-005  0.2710278E+04  0.7818608E-02  0.8331678E-01
          2   -1    0    0  501    0  0.00000000000E+00  0.00000000000E+00  0.12399597106E+04  0.12399597106E+04  0.00000000000E+00 0. -1.
         -2   -1    0    0    0  501 -0.00000000000E+00 -0.00000000000E+00 -0.14810176387E+04  0.14810176387E+04  0.00000000000E+00 0.  1.
         23    2    1    2    0    0  0.88046020393E+03 -0.91045342983E+03 -0.60050412122E+03  0.14044147096E+04  0.87406283501E+02 0.  0.
         13    1    3    3    0    0  0.78310073138E+03 -0.77646932406E+03 -0.50159997699E+03  0.12115089367E+04  0.00000000000E+00 0.  1.
        -13    1    3    3    0    0  0.97359472552E+02 -0.13398410577E+03 -0.98904144229E+02  0.19290577296E+03  0.00000000000E+00 0. -1.
         22    1    1    2    0    0 -0.88046020393E+03  0.91045342983E+03  0.35944619308E+03  0.13165626397E+04  0.00000000000E+00 0. -1.
<mgrwt>
<rscale>  0 0.27102784E+04</rscale>
<asrwt>0</asrwt>
<pdfrwt beam="1">  1        2 0.19076303E+00 0.27102784E+04</pdfrwt>
<pdfrwt beam="2">  1       -2 0.22784887E+00 0.27102784E+04</pdfrwt>
<totfact> 0.13862198E+00</totfact>
</mgrwt>
</event>
<event>
 6    1  0.1762360E-005  0.2081571E+04  0.7818608E-02  0.8569405E-01
          2   -1    0    0  501    0  0.00000000000E+00  0.00000000000E+00  0.17792657875E+04  0.17792657875E+04  0.00000000000E+00 0. -1.
         -2   -1    0    0    0  501 -0.00000000000E+00 -0.00000000000E+00 -0.60881002088E+03  0.60881002088E+03  0.00000000000E+00 0.  1.
         23    2    1    2    0    0 -0.43222615236E+03 -0.82289895327E+03  0.51772171753E+02  0.93362226169E+03  0.70626026973E+02 0.  0.
         13    1    3    3    0    0 -0.29788279963E+03 -0.61848201097E+03  0.18221492161E+02  0.68672132848E+03  0.00000000000E+00 0.  1.
        -13    1    3    3    0    0 -0.13434335273E+03 -0.20441694229E+03  0.33550679592E+02  0.24690093321E+03  0.00000000000E+00 0. -1.
         22    1    1    2    0    0  0.43222615236E+03  0.82289895327E+03  0.11186835949E+04  0.14544535467E+04  0.00000000000E+00 0. -1.
<mgrwt>
<rscale>  0 0.20815714E+04</rscale>
<asrwt>0</asrwt>
<pdfrwt beam="1">  1        2 0.27373320E+00 0.20815714E+04</pdfrwt>
<pdfrwt beam="2">  1       -2 0.93663081E-01 0.20815714E+04</pdfrwt>
<totfact> 0.78781124E+00</totfact>
</mgrwt>
</event>
<event>
 6    1  0.1762360E-005  0.2193705E+04  0.7818608E-02  0.8521053E-01
         -1   -1    0    0    0  501 -0.00000000000E+00  0.00000000000E+00  0.21809343840E+04  0.21809343840E+04  0.00000000000E+00 0.  1.
          1   -1    0    0  501    0  0.00000000000E+00 -0.00000000000E+00 -0.55163781943E+03  0.55163781943E+03  0.00000000000E+00 0. -1.
         23    2    1    2    0    0 -0.71202830914E+03  0.82461709604E+03  0.95186333567E+03  0.14496484147E+04  0.91973085119E+02 0.  0.
         13    1    3    3    0    0 -0.52323017121E+03  0.58215040663E+03  0.63137950095E+03  0.10056385942E+04  0.00000000000E+00 0. -1.
        -13    1    3    3    0    0 -0.18879813793E+03  0.24246668941E+03  0.32048383472E+03  0.44400982047E+03  0.00000000000E+00 0.  1.
         22    1    1    2    0    0  0.71202830914E+03 -0.82461709604E+03  0.67743322893E+03  0.12829237888E+04  0.00000000000E+00 0.  1.
<mgrwt>
<rscale>  0 0.21937054E+04</rscale>
<asrwt>0</asrwt>
<pdfrwt beam="1">  1        1 0.84867358E-01 0.21937054E+04</pdfrwt>
<pdfrwt beam="2">  1       -1 0.33552836E+00 0.21937054E+04</pdfrwt>
<totfact> 0.68284152E-01</totfact>
</mgrwt>
</event>
<event>
 6    1  0.1762360E-005  0.3315933E+04  0.7818608E-02  0.8158853E-01
          2   -1    0    0  501    0  0.00000000000E+00  0.00000000000E+00  0.22713906796E+04  0.22713906796E+04  0.00000000000E+00 0. -1.
         -2   -1    0    0    0  501 -0.00000000000E+00 -0.00000000000E+00 -0.12102068141E+04  0.12102068141E+04  0.00000000000E+00 0.  1.
         23    2    1    2    0    0  0.22004108591E+03  0.12685162055E+04  0.16257133988E+04  0.20758076670E+04  0.92097623039E+02 0.  0.
         13    1    3    3    0    0  0.14419726575E+02  0.25285026743E+03  0.28439260188E+03  0.38081535980E+03  0.00000000000E+00 0.  1.
        -13    1    3    3    0    0  0.20562135934E+03  0.10156659380E+04  0.13413207969E+04  0.16949923072E+04  0.00000000000E+00 0. -1.
         22    1    1    2    0    0 -0.22004108591E+03 -0.12685162055E+04 -0.56452953335E+03  0.14057898268E+04  0.00000000000E+00 0.  1.
<mgrwt>
<rscale>  0 0.33159327E+04</rscale>
<asrwt>0</asrwt>
<pdfrwt beam="1">  1        2 0.34944472E+00 0.33159327E+04</pdfrwt>
<pdfrwt beam="2">  1       -2 0.18618566E+00 0.33159327E+04</pdfrwt>
<totfact> 0.64561937E-01</totfact>
</mgrwt>
</event>
<event>
 6    1  0.1762360E-005  0.5070223E+04  0.7818608E-02  0.7817765E-01
          2   -1    0    0  501    0  0.00000000000E+00  0.00000000000E+00  0.23777157246E+04  0.23777157246E+04  0.00000000000E+00 0.  1.
         -2   -1    0    0    0  501 -0.00000000000E+00 -0.00000000000E+00 -0.27029268097E+04  0.27029268097E+04  0.00000000000E+00 0. -1.
         23    2    1    2    0    0 -0.14789862076E+04  0.56219280554E+03  0.18210285327E+04  0.24142206903E+04  0.94104578235E+02 0.  0.
         11    1    3    3    0    0 -0.89503181701E+03  0.37845795846E+03  0.11606049865E+04  0.15137094551E+04  0.00000000000E+00 0.  1.
        -11    1    3    3    0    0 -0.58395439061E+03  0.18373484708E+03  0.66042354621E+03  0.90051123521E+03  0.00000000000E+00 0. -1.
         22    1    1    2    0    0  0.14789862076E+04 -0.56219280554E+03 -0.21462396178E+04  0.26664218440E+04  0.00000000000E+00 0. -1.
<mgrwt>
<rscale>  0 0.50702235E+04</rscale>
<asrwt>0</asrwt>
<pdfrwt beam="1">  1        2 0.36580242E+00 0.50702235E+04</pdfrwt>
<pdfrwt beam="2">  1       -2 0.41583489E+00 0.50702235E+04</pdfrwt>
<totfact> 0.17335597E-02</totfact>
</mgrwt>
</event>
<event>
 6    1  0.1762360E-005  0.2146506E+04  0.7818608E-02  0.8541029E-01
          2   -1    0    0  501    0  0.00000000000E+00  0.00000000000E+00  0.17700511704E+04  0.17700511704E+04  0.00000000000E+00 0. -1.
         -2   -1    0    0    0  501 -0.00000000000E+00 -0.00000000000E+00 -0.65075653812E+03  0.65075653812E+03  0.00000000000E+00 0.  1.
         23    2    1    2    0    0  0.10659340334E+04 -0.18402592769E+02  0.44171085159E+03  0.11576078832E+04  0.91616133022E+02 0.  0.
         11    1    3    3    0    0  0.79200664017E+03  0.56820780004E+01  0.28928487120E+03  0.84320373623E+03  0.00000000000E+00 0. -1.
        -11    1    3    3    0    0  0.27392739321E+03 -0.24084670769E+02  0.15242598040E+03  0.31440414695E+03  0.00000000000E+00 0.  1.
         22    1    1    2    0    0 -0.10659340334E+04  0.18402592769E+02  0.67758378073E+03  0.12631998254E+04  0.00000000000E+00 0. -1.
<mgrwt>
<rscale>  0 0.21465063E+04</rscale>
<asrwt>0</asrwt>
<pdfrwt beam="1">  1        2 0.27231556E+00 0.21465063E+04</pdfrwt>
<pdfrwt beam="2">  1       -2 0.10011639E+00 0.21465063E+04</pdfrwt>
<totfact> 0.67802844E+00</totfact>
</mgrwt>
</event>
<event>
 6    1  0.1762360E-005  0.2782680E+04  0.7818608E-02  0.8308666E-01
         -2   -1    0    0    0  501 -0.00000000000E+00  0.00000000000E+00  0.15234790363E+04  0.15234790363E+04  0.00000000000E+00 0. -1.
          2   -1    0    0  501    0  0.00000000000E+00 -0.00000000000E+00 -0.12706621067E+04  0.12706621067E+04  0.00000000000E+00 0.  1.
         23    2    1    2    0    0 -0.60459068553E+03 -0.27569813728E+03  0.13522667211E+04  0.15094897491E+04  0.91622364224E+02 0.  0.
         13    1    3    3    0    0 -0.44442154546E+03 -0.18686465543E+03  0.88859688019E+03  0.10109566385E+04  0.00000000000E+00 0.  1.
        -13    1    3    3    0    0 -0.16016914007E+03 -0.88833481852E+02  0.46366984093E+03  0.49853311055E+03  0.00000000000E+00 0. -1.
         22    1    1    2    0    0  0.60459068553E+03  0.27569813728E+03 -0.10994497915E+04  0.12846513939E+04  0.00000000000E+00 0.  1.
<mgrwt>
<rscale>  0 0.27826801E+04</rscale>
<asrwt>0</asrwt>
<pdfrwt beam="1">  1        2 0.19548648E+00 0.27826801E+04</pdfrwt>
<pdfrwt beam="2">  1       -2 0.23438139E+00 0.27826801E+04</pdfrwt>
<totfact> 0.12030876E+00</totfact>
</mgrwt>
</event>
<event>
 6    1  0.1762360E-005  0.1050020E+04  0.7818608E-02  0.9255323E-01
         -2   -1    0    0    0  501 -0.00000000000E+00  0.00000000000E+00  0.43715214683E+03  0.43715214683E+03  0.00000000000E+00 0.  1.
          2   -1    0    0  501    0  0.00000000000E+00 -0.00000000000E+00 -0.63052530794E+03  0.63052530794E+03  0.00000000000E+00 0. -1.
         23    2    1    2    0    0  0.65501147628E+02  0.34799431614E+03  0.29115534613E+03  0.46754553700E+03  0.91852866993E+02 0.  0.
         11    1    3    3    0    0  0.85702468804E+02  0.25125198419E+03  0.19260714457E+03  0.32797863475E+03  0.00000000000E+00 0.  1.
        -11    1    3    3    0    0 -0.20201321175E+02  0.96742331956E+02  0.98548201568E+02  0.13956690224E+03  0.00000000000E+00 0. -1.
         22    1    1    2    0    0 -0.65501147628E+02 -0.34799431614E+03 -0.48452850724E+03  0.60013191778E+03  0.00000000000E+00 0. -1.
<mgrwt>
<rscale>  0 0.10500200E+04</rscale>
<asrwt>0</asrwt>
<pdfrwt beam="1">  1        2 0.97003893E-01 0.10500200E+04</pdfrwt>
<pdfrwt beam="2">  1       -2 0.67254177E-01 0.10500200E+04</pdfrwt>
<totfact> 0.94335446E+01</totfact>
</mgrwt>
</event>
<event>
 6    1  0.1762360E-005  0.2055631E+04  0.7818608E-02  0.8581044E-01
          2   -1    0    0  501    0  0.00000000000E+00  0.00000000000E+00  0.11490277055E+04  0.11490277055E+04  0.00000000000E+00 0. -1.
         -2   -1    0    0    0  501 -0.00000000000E+00 -0.00000000000E+00 -0.91939010412E+03  0.91939010412E+03  0.00000000000E+00 0.  1.
         23    2    1    2    0    0  0.74078595528E+03  0.56342729873E+03 -0.31910647364E+03  0.98798539048E+03  0.89844520117E+02 0.  0.
         13    1    3    3    0    0  0.49944203693E+03  0.32624059071E+03 -0.21036588402E+03  0.63255756768E+03  0.00000000000E+00 0. -1.
        -13    1    3    3    0    0  0.24134391835E+03  0.23718670802E+03 -0.10874058961E+03  0.35542782280E+03  0.00000000000E+00 0.  1.
         22    1    1    2    0    0 -0.74078595528E+03 -0.56342729873E+03  0.54874407503E+03  0.10804324192E+04  0.00000000000E+00 0. -1.
<mgrwt>
<rscale>  0 0.20556310E+04</rscale>
<asrwt>0</asrwt>
<pdfrwt beam="1">  1        2 0.17677349E+00 0.20556310E+04</pdfrwt>
<pdfrwt beam="2">  1       -2 0.14144463E+00 0.20556310E+04</pdfrwt>
<totfact> 0.65755318E+00</totfact>
</mgrwt>
</event>
<event>
 6    1  0.1762360E-005  0.1826311E+04  0.7818608E-02  0.8692431E-01
          2   -1    0    0  501    0  0.00000000000E+00  0.00000000000E+00  0.14683489412E+04  0.14683489412E+04  0.00000000000E+00 0. -1.
         -2   -1    0    0    0  501 -0.00000000000E+00 -0.00000000000E+00 -0.56788494198E+03  0.56788494198E+03  0.00000000000E+00 0.  1.
         23    2    1    2    0    0 -0.42742563766E+03  0.77396379643E+03  0.20734490380E+03  0.91278975269E+03  0.92090116481E+02 0.  0.
         11    1    3    3    0    0 -0.38312654973E+03  0.62208207717E+03  0.17617714169E+03  0.75153872095E+03  0.00000000000E+00 0. -1.
        -11    1    3    3    0    0 -0.44299087931E+02  0.15188171927E+03  0.31167762117E+02  0.16125103173E+03  0.00000000000E+00 0.  1.
         22    1    1    2    0    0  0.42742563766E+03 -0.77396379643E+03  0.69311909542E+03  0.11234441305E+04  0.00000000000E+00 0. -1.
<mgrwt>
<rscale>  0 0.18263113E+04</rscale>
<asrwt>0</asrwt>
<pdfrwt beam="1">  1        2 0.22589984E+00 0.18263113E+04</pdfrwt>
<pdfrwt beam="2">  1       -2 0.87366914E-01 0.18263113E+04</pdfrwt>
<totfact> 0.14102858E+01</totfact>
</mgrwt>
</event>
<event>
 6    1  0.1762360E-005  0.2354138E+04  0.7818608E-02  0.8456876E-01
         -2   -1    0    0    0  501 -0.00000000000E+00  0.00000000000E+00  0.89037913093E+03  0.89037913093E+03  0.00000000000E+00 0.  1.
          2   -1    0    0  501    0  0.00000000000E+00 -0.00000000000E+00 -0.15560692120E+04  0.15560692120E+04  0.00000000000E+00 0. -1.
         23    2    1    2    0    0  0.45883783385E+03  0.21280830560E+03 -0.14358853912E+04  0.15250253411E+04  0.90088298982E+02 0.  0.
         11    1    3    3    0    0  0.40450162153E+03  0.17696569776E+03 -0.11504934495E+04  0.12323041822E+04  0.00000000000E+00 0.  1.
        -11    1    3    3    0    0  0.54336212319E+02  0.35842607846E+02 -0.28539194169E+03  0.29272115894E+03  0.00000000000E+00 0. -1.
         22    1    1    2    0    0 -0.45883783385E+03 -0.21280830560E+03  0.77019531009E+03  0.92142300188E+03  0.00000000000E+00 0.  1.
<mgrwt>
<rscale>  0 0.23541381E+04</rscale>
<asrwt>0</asrwt>
<pdfrwt beam="1">  1        2 0.23939526E+00 0.23541381E+04</pdfrwt>
<pdfrwt beam="2">  1       -2 0.13698140E+00 0.23541381E+04</pdfrwt>
<totfact> 0.40495112E+00</totfact>
</mgrwt>
</event>
<event>
 6    1  0.1762360E-005  0.1792019E+04  0.7818608E-02  0.8710555E-01
          2   -1    0    0  501    0  0.00000000000E+00  0.00000000000E+00  0.37817636634E+04  0.37817636634E+04  0.00000000000E+00 0.  1.
         -2   -1    0    0    0  501 -0.00000000000E+00 -0.00000000000E+00 -0.21229072435E+03  0.21229072435E+03  0.00000000000E+00 0. -1.
         23    2    1    2    0    0 -0.69970474460E+03 -0.51533144662E+03  0.22528839373E+04  0.24165374056E+04  0.94940866406E+02 0.  0.
         13    1    3    3    0    0 -0.42885311310E+03 -0.25987522839E+03  0.13290644681E+04  0.14205148670E+04  0.00000000000E+00 0. -1.
        -13    1    3    3    0    0 -0.27085163150E+03 -0.25545621823E+03  0.92381946926E+03  0.99602253866E+03  0.00000000000E+00 0.  1.
         22    1    1    2    0    0  0.69970474460E+03  0.51533144662E+03  0.13165890017E+04  0.15775169821E+04  0.00000000000E+00 0.  1.
<mgrwt>
<rscale>  0 0.17920194E+04</rscale>
<asrwt>0</asrwt>
<pdfrwt beam="1">  1        2 0.58180974E+00 0.17920194E+04</pdfrwt>
<pdfrwt beam="2">  1       -2 0.32660114E-01 0.17920194E+04</pdfrwt>
<totfact> 0.42357664E+00</totfact>
</mgrwt>
</event>
<event>
 6    1  0.1762360E-005  0.1774344E+04  0.7818608E-02  0.8720063E-01
          2   -1    0    0  501    0  0.00000000000E+00  0.00000000000E+00  0.52844096835E+03  0.52844096835E+03  0.00000000000E+00 0. -1.
         -2   -1    0    0    0  501 -0.00000000000E+00 -0.00000000000E+00 -0.14894263623E+04  0.14894263623E+04  0.00000000000E+00 0.  1.
         23    2    1    2    0    0  0.68663035580E+02 -0.11257267221E+03 -0.14766350929E+04  0.14856250635E+04  0.96142667964E+02 0.  0.
         13    1    3    3    0    0  0.29475339631E+02 -0.10172233990E+03 -0.70407935806E+03  0.71199998071E+03  0.00000000000E+00 0.  1.
        -13    1    3    3    0    0  0.39187695949E+02 -0.10850332312E+02 -0.77255573485E+03  0.77362508276E+03  0.00000000000E+00 0. -1.
         22    1    1    2    0    0 -0.68663035580E+02  0.11257267221E+03  0.51564969894E+03  0.53224226720E+03  0.00000000000E+00 0. -1.
<mgrwt>
<rscale>  0 0.17743437E+04</rscale>
<asrwt>0</asrwt>
<pdfrwt beam="1">  1        2 0.81298611E-01 0.17743437E+04</pdfrwt>
<pdfrwt beam="2">  1       -2 0.22914251E+00 0.17743437E+04</pdfrwt>
<totfact> 0.47237810E+00</totfact>
</mgrwt>
</event>
<event>
 6    1  0.1762360E-005  0.2696647E+04  0.7818608E-02  0.8336094E-01
          2   -1    0    0  501    0  0.00000000000E+00  0.00000000000E+00  0.13080185046E+04  0.13080185046E+04  0.00000000000E+00 0. -1.
         -2   -1    0    0    0  501 -0.00000000000E+00 -0.00000000000E+00 -0.13898706379E+04  0.13898706379E+04  0.00000000000E+00 0.  1.
         23    2    1    2    0    0 -0.92809525311E+03 -0.29710458621E+03  0.88898047625E+03  0.13223354760E+04  0.93020910676E+02 0.  0.
         13    1    3    3    0    0 -0.46150982546E+03 -0.12552479773E+03  0.49189541538E+03  0.68608227897E+03  0.00000000000E+00 0. -1.
        -13    1    3    3    0    0 -0.46658542764E+03 -0.17157978848E+03  0.39708506086E+03  0.63625319698E+03  0.00000000000E+00 0.  1.
         22    1    1    2    0    0  0.92809525311E+03  0.29710458621E+03 -0.97083260948E+03  0.13755536666E+04  0.00000000000E+00 0.  1.
<mgrwt>
<rscale>  0 0.26966472E+04</rscale>
<asrwt>0</asrwt>
<pdfrwt beam="1">  1        2 0.20123362E+00 0.26966472E+04</pdfrwt>
<pdfrwt beam="2">  1       -2 0.21382625E+00 0.26966472E+04</pdfrwt>
<totfact> 0.15529712E+00</totfact>
</mgrwt>
</event>
<event>
 6    1  0.1762360E-005  0.1681972E+04  0.7818608E-02  0.8771714E-01
         -3   -1    0    0    0  501 -0.00000000000E+00  0.00000000000E+00  0.15009489357E+04  0.15009489357E+04  0.00000000000E+00 0.  1.
          3   -1    0    0  501    0  0.00000000000E+00 -0.00000000000E+00 -0.47120666305E+03  0.47120666305E+03  0.00000000000E+00 0. -1.
         23    2    1    2    0    0 -0.69559118242E+03 -0.24717488211E+03  0.50314776160E+02  0.74568882943E+03  0.92616079720E+02 0.  0.
         13    1    3    3    0    0 -0.37937563208E+03 -0.10252477317E+03 -0.81981764126E+01  0.39307048913E+03  0.00000000000E+00 0. -1.
        -13    1    3    3    0    0 -0.31621555035E+03 -0.14465010894E+03  0.58512952573E+02  0.35261834030E+03  0.00000000000E+00 0.  1.
         22    1    1    2    0    0  0.69559118242E+03  0.24717488211E+03  0.97942749654E+03  0.12264667694E+04  0.00000000000E+00 0.  1.
<mgrwt>
<rscale>  0 0.16819716E+04</rscale>
<asrwt>0</asrwt>
<pdfrwt beam="1">  1        3 0.72493333E-01 0.16819716E+04</pdfrwt>
<pdfrwt beam="2">  1       -3 0.23091522E+00 0.16819716E+04</pdfrwt>
<totfact> 0.42718720E-01</totfact>
</mgrwt>
</event>
<event>
 6    1  0.1762360E-005  0.2246720E+04  0.7818608E-02  0.8499230E-01
         -1   -1    0    0    0  501 -0.00000000000E+00  0.00000000000E+00  0.10762723109E+04  0.10762723109E+04  0.00000000000E+00 0.  1.
          1   -1    0    0  501    0  0.00000000000E+00 -0.00000000000E+00 -0.11725073166E+04  0.11725073166E+04  0.00000000000E+00 0. -1.
         23    2    1    2    0    0 -0.38799538876E+03  0.61266998086E+03  0.80812190277E+03  0.10895702654E+04  0.90539639808E+02 0.  0.
         11    1    3    3    0    0 -0.16160486072E+03  0.18997133163E+03  0.23985119591E+03  0.34602577076E+03  0.00000000000E+00 0. -1.
        -11    1    3    3    0    0 -0.22639052804E+03  0.42269864922E+03  0.56827070686E+03  0.74354449465E+03  0.00000000000E+00 0.  1.
         22    1    1    2    0    0  0.38799538876E+03 -0.61266998086E+03 -0.90435690855E+03  0.11592093621E+04  0.00000000000E+00 0. -1.
<mgrwt>
<rscale>  0 0.22467195E+04</rscale>
<asrwt>0</asrwt>
<pdfrwt beam="1">  1        1 0.18038574E+00 0.22467195E+04</pdfrwt>
<pdfrwt beam="2">  1       -1 0.16558036E+00 0.22467195E+04</pdfrwt>
<totfact> 0.26972819E+00</totfact>
</mgrwt>
</event>
<event>
 6    1  0.1762360E-005  0.1115085E+04  0.7818608E-02  0.9190613E-01
         -2   -1    0    0    0  501 -0.00000000000E+00  0.00000000000E+00  0.30290661385E+03  0.30290661385E+03  0.00000000000E+00 0.  1.
          2   -1    0    0  501    0  0.00000000000E+00 -0.00000000000E+00 -0.10262355032E+04  0.10262355032E+04  0.00000000000E+00 0. -1.
         23    2    1    2    0    0 -0.53132647981E+03  0.15612653623E+03 -0.37550450322E+03  0.67518101190E+03  0.90456859485E+02 0.  0.
         13    1    3    3    0    0 -0.12669259468E+03  0.58475862146E+01 -0.58668843341E+02  0.13973990479E+03  0.00000000000E+00 0. -1.
        -13    1    3    3    0    0 -0.40463388513E+03  0.15027895001E+03 -0.31683565988E+03  0.53544110712E+03  0.00000000000E+00 0.  1.
         22    1    1    2    0    0  0.53132647981E+03 -0.15612653623E+03 -0.34782438615E+03  0.65396110516E+03  0.00000000000E+00 0. -1.
<mgrwt>
<rscale>  0 0.11150848E+04</rscale>
<asrwt>0</asrwt>
<pdfrwt beam="1">  1        2 0.15788238E+00 0.11150848E+04</pdfrwt>
<pdfrwt beam="2">  1       -2 0.46601018E-01 0.11150848E+04</pdfrwt>
<totfact> 0.10490176E+02</totfact>
</mgrwt>
</event>
<event>
 6    1  0.1762360E-005  0.3808797E+04  0.7818608E-02  0.8044270E-01
         -1   -1    0    0    0  501 -0.00000000000E+00  0.00000000000E+00  0.13513151631E+04  0.13513151631E+04  0.00000000000E+00 0.  1.
          1   -1    0    0  501    0  0.00000000000E+00 -0.00000000000E+00 -0.26838550353E+04  0.26838550353E+04  0.00000000000E+00 0. -1.
         23    2    1    2    0    0  0.55751666749E+03 -0.48704568929E+03  0.11909754136E+04  0.14053094158E+04  0.91835615543E+02 0.  0.
         11    1    3    3    0    0  0.28349054660E+03 -0.20774430391E+03  0.49860985142E+03  0.61002981054E+03  0.00000000000E+00 0. -1.
        -11    1    3    3    0    0  0.27402612089E+03 -0.27930138538E+03  0.69236556217E+03  0.79527960522E+03  0.00000000000E+00 0.  1.
         22    1    1    2    0    0 -0.55751666749E+03  0.48704568929E+03 -0.25235152858E+04  0.26298607826E+04  0.00000000000E+00 0. -1.
<mgrwt>
<rscale>  0 0.38087972E+04</rscale>
<asrwt>0</asrwt>
<pdfrwt beam="1">  1        1 0.41290077E+00 0.38087972E+04</pdfrwt>
<pdfrwt beam="2">  1       -1 0.20789464E+00 0.38087972E+04</pdfrwt>
<totfact> 0.10641047E-01</totfact>
</mgrwt>
</event>
<event>
 6    1  0.1762360E-005  0.6500322E+04  0.7818608E-02  0.7631284E-01
          1   -1    0    0  501    0  0.00000000000E+00  0.00000000000E+00  0.34590749676E+04  0.34590749676E+04  0.00000000000E+00 0. -1.
         -1   -1    0    0    0  501 -0.00000000000E+00 -0.00000000000E+00 -0.30538647521E+04  0.30538647521E+04  0.00000000000E+00 0.  1.
         23    2    1    2    0    0 -0.31193852837E+04 -0.52096799619E+03 -0.54544440487E+03  0.32105593043E+04  0.90604892560E+02 0.  0.
         11    1    3    3    0    0 -0.16050257368E+04 -0.28304522992E+03 -0.23763734495E+03  0.16470257210E+04  0.00000000000E+00 0. -1.
        -11    1    3    3    0    0 -0.15143595469E+04 -0.23792276627E+03 -0.30780705992E+03  0.15635335833E+04  0.00000000000E+00 0.  1.
         22    1    1    2    0    0  0.31193852837E+04  0.52096799619E+03  0.95065462034E+03  0.33023804154E+04  0.00000000000E+00 0. -1.
<mgrwt>
<rscale>  0 0.65003222E+04</rscale>
<asrwt>0</asrwt>
<pdfrwt beam="1">  1        1 0.53216538E+00 0.65003222E+04</pdfrwt>
<pdfrwt beam="2">  1       -1 0.46982535E+00 0.65003222E+04</pdfrwt>
<totfact> 0.41216330E-04</totfact>
</mgrwt>
</event>
<event>
 6    1  0.1762360E-005  0.1518291E+04  0.7818608E-02  0.8872380E-01
          2   -1    0    0  501    0  0.00000000000E+00  0.00000000000E+00  0.31058852759E+04  0.31058852759E+04  0.00000000000E+00 0. -1.
         -2   -1    0    0    0  501 -0.00000000000E+00 -0.00000000000E+00 -0.18555159289E+03  0.18555159289E+03  0.00000000000E+00 0.  1.
         23    2    1    2    0    0  0.31735861575E+03  0.11156979904E+03  0.29342710872E+04  0.29547492357E+04  0.86208595120E+02 0.  0.
         11    1    3    3    0    0  0.12057244935E+03  0.53908201039E+02  0.15141843476E+04  0.15199335670E+04  0.00000000000E+00 0.  1.
        -11    1    3    3    0    0  0.19678616641E+03  0.57661598000E+02  0.14200867396E+04  0.14348156687E+04  0.00000000000E+00 0. -1.
         22    1    1    2    0    0 -0.31735861575E+03 -0.11156979904E+03 -0.13937404146E+02  0.33668763310E+03  0.00000000000E+00 0.  1.
<mgrwt>
<rscale>  0 0.15182911E+04</rscale>
<asrwt>0</asrwt>
<pdfrwt beam="1">  1        2 0.47782847E+00 0.15182911E+04</pdfrwt>
<pdfrwt beam="2">  1       -2 0.28546401E-01 0.15182911E+04</pdfrwt>
<totfact> 0.16324389E+01</totfact>
</mgrwt>
</event>
<event>
 6    1  0.1762360E-005  0.3143981E+04  0.7818608E-02  0.8203770E-01
          2   -1    0    0  501    0  0.00000000000E+00  0.00000000000E+00  0.21870766310E+04  0.21870766310E+04  0.00000000000E+00 0. -1.
         -2   -1    0    0    0  501 -0.00000000000E+00 -0.00000000000E+00 -0.11298890357E+04  0.11298890357E+04  0.00000000000E+00 0.  1.
         23    2    1    2    0    0 -0.88310643623E+03  0.42317453117E+03  0.18246442119E+04  0.20728019636E+04  0.90707323152E+02 0.  0.
         11    1    3    3    0    0 -0.59664310568E+03  0.28150591480E+03  0.11372253615E+04  0.13147281462E+04  0.00000000000E+00 0. -1.
        -11    1    3    3    0    0 -0.28646333055E+03  0.14166861637E+03  0.68741885042E+03  0.75807381733E+03  0.00000000000E+00 0.  1.
         22    1    1    2    0    0  0.88310643623E+03 -0.42317453117E+03 -0.76745661666E+03  0.12441637030E+04  0.00000000000E+00 0.  1.
<mgrwt>
<rscale>  0 0.31439809E+04</rscale>
<asrwt>0</asrwt>
<pdfrwt beam="1">  1        2 0.33647333E+00 0.31439809E+04</pdfrwt>
<pdfrwt beam="2">  1       -2 0.17382908E+00 0.31439809E+04</pdfrwt>
<totfact> 0.88950691E-01</totfact>
</mgrwt>
</event>
<event>
 6    1  0.1762360E-005  0.3133901E+04  0.7818608E-02  0.8206495E-01
          1   -1    0    0  501    0  0.00000000000E+00  0.00000000000E+00  0.15298653072E+04  0.15298653072E+04  0.00000000000E+00 0. -1.
         -1   -1    0    0    0  501 -0.00000000000E+00 -0.00000000000E+00 -0.16049344006E+04  0.16049344006E+04  0.00000000000E+00 0.  1.
         23    2    1    2    0    0  0.56683586789E+03 -0.78649953155E+03 -0.12672103930E+04  0.15982173663E+04  0.92693879872E+02 0.  0.
         11    1    3    3    0    0  0.44011012166E+03 -0.66632625630E+03 -0.10159814145E+04  0.12922483638E+04  0.00000000000E+00 0. -1.
        -11    1    3    3    0    0  0.12672574623E+03 -0.12017327525E+03 -0.25122897850E+03  0.30596900248E+03  0.00000000000E+00 0.  1.
         22    1    1    2    0    0 -0.56683586789E+03  0.78649953155E+03  0.11921412996E+04  0.15365823416E+04  0.00000000000E+00 0. -1.
<mgrwt>
<rscale>  0 0.31339007E+04</rscale>
<asrwt>0</asrwt>
<pdfrwt beam="1">  1        1 0.23536389E+00 0.31339007E+04</pdfrwt>
<pdfrwt beam="2">  1       -1 0.24691299E+00 0.31339007E+04</pdfrwt>
<totfact> 0.38330676E-01</totfact>
</mgrwt>
</event>
<event>
 6    1  0.1762360E-005  0.1429413E+04  0.7818608E-02  0.8932799E-01
         -2   -1    0    0    0  501 -0.00000000000E+00  0.00000000000E+00  0.59518430926E+03  0.59518430926E+03  0.00000000000E+00 0.  1.
          2   -1    0    0  501    0  0.00000000000E+00 -0.00000000000E+00 -0.85823069449E+03  0.85823069449E+03  0.00000000000E+00 0. -1.
         23    2    1    2    0    0 -0.18177683395E+03  0.68627729178E+03 -0.82804804537E+02  0.72094905506E+03  0.94295099399E+02 0.  0.
         13    1    3    3    0    0 -0.85057500044E+02  0.45395469208E+03 -0.23769517412E+02  0.46246581575E+03  0.00000000000E+00 0.  1.
        -13    1    3    3    0    0 -0.96719333910E+02  0.23232259969E+03 -0.59035287125E+02  0.25848323931E+03  0.00000000000E+00 0. -1.
         22    1    1    2    0    0  0.18177683395E+03 -0.68627729178E+03 -0.18024158070E+03  0.73246594869E+03  0.00000000000E+00 0.  1.
<mgrwt>
<rscale>  0 0.14294131E+04</rscale>
<asrwt>0</asrwt>
<pdfrwt beam="1">  1        2 0.13203549E+00 0.14294131E+04</pdfrwt>
<pdfrwt beam="2">  1       -2 0.91566817E-01 0.14294131E+04</pdfrwt>
<totfact> 0.30899765E+01</totfact>
</mgrwt>
</event>
<event>
 6    1  0.1762360E-005  0.2346779E+04  0.7818608E-02  0.8459702E-01
          2   -1    0    0  501    0  0.00000000000E+00  0.00000000000E+00  0.29013247139E+04  0.29013247139E+04  0.00000000000E+00 0. -1.
         -2   -1    0    0    0  501 -0.00000000000E+00 -0.00000000000E+00 -0.47455683188E+03  0.47455683188E+03  0.00000000000E+00 0.  1.
         23    2    1    2    0    0 -0.11137722982E+04  0.11841410534E+03  0.71947547397E+03  0.13339809608E+04  0.85729886968E+02 0.  0.
         13    1    3    3    0    0 -0.63920131040E+03  0.11040456016E+03  0.41143563238E+03  0.76814501347E+03  0.00000000000E+00 0.  1.
        -13    1    3    3    0    0 -0.47457098777E+03  0.80095451854E+01  0.30803984159E+03  0.56583594729E+03  0.00000000000E+00 0. -1.
         22    1    1    2    0    0  0.11137722982E+04 -0.11841410534E+03  0.17072924081E+04  0.20419005850E+04  0.00000000000E+00 0. -1.
<mgrwt>
<rscale>  0 0.23467795E+04</rscale>
<asrwt>0</asrwt>
<pdfrwt beam="1">  1        2 0.44635764E+00 0.23467795E+04</pdfrwt>
<pdfrwt beam="2">  1       -2 0.73008745E-01 0.23467795E+04</pdfrwt>
<totfact> 0.30707385E+00</totfact>
</mgrwt>
</event>
<event>
 6    1  0.3139500E-005  0.3538868E+04  0.7818608E-02  0.8104640E-01
         -1   -1    0    0    0  501 -0.00000000000E+00  0.00000000000E+00  0.15903908045E+04  0.15903908045E+04  0.00000000000E+00 0.  1.
          1   -1    0    0  501    0  0.00000000000E+00 -0.00000000000E+00 -0.19686336556E+04  0.19686336556E+04  0.00000000000E+00 0. -1.
         23    2    1    2    0    0  0.12039333083E+04 -0.61566291370E+03 -0.13351646539E+04  0.19024630907E+04  0.90581036132E+02 0.  0.
         11    1    3    3    0    0  0.51626173275E+03 -0.30822441694E+03 -0.56214804668E+03  0.82312750792E+03  0.00000000000E+00 0. -1.
        -11    1    3    3    0    0  0.68767157552E+03 -0.30743849675E+03 -0.77301660726E+03  0.10793355827E+04  0.00000000000E+00 0.  1.
         22    1    1    2    0    0 -0.12039333083E+04  0.61566291370E+03  0.95692180278E+03  0.16565613694E+04  0.00000000000E+00 0.  1.
<mgrwt>
<rscale>  0 0.35388681E+04</rscale>
<asrwt>0</asrwt>
<pdfrwt beam="1">  1        1 0.30286671E+00 0.35388681E+04</pdfrwt>
<pdfrwt beam="2">  1       -1 0.24467551E+00 0.35388681E+04</pdfrwt>
<totfact> 0.19227839E-01</totfact>
</mgrwt>
</event>
<event>
 6    1  0.1762360E-005  0.1054587E+04  0.7818608E-02  0.9250621E-01
         -1   -1    0    0    0  501 -0.00000000000E+00  0.00000000000E+00  0.53944560455E+03  0.53944560455E+03  0.00000000000E+00 0. -1.
          1   -1    0    0  501    0  0.00000000000E+00 -0.00000000000E+00 -0.51541508000E+03  0.51541508000E+03  0.00000000000E+00 0.  1.
         23    2    1    2    0    0 -0.47990748437E+03  0.61071973648E+02  0.21398036183E+03  0.53512813776E+03  0.80830372113E+02 0.  0.
         13    1    3    3    0    0 -0.19029836206E+03  0.57243624687E+02  0.11171004296E+03  0.22796805230E+03  0.00000000000E+00 0.  1.
        -13    1    3    3    0    0 -0.28960912231E+03  0.38283489609E+01  0.10227031887E+03  0.30716008546E+03  0.00000000000E+00 0. -1.
         22    1    1    2    0    0  0.47990748437E+03 -0.61071973648E+02 -0.18994983728E+03  0.51973254680E+03  0.00000000000E+00 0.  1.
<mgrwt>
<rscale>  0 0.10545869E+04</rscale>
<asrwt>0</asrwt>
<pdfrwt beam="1">  1        1 0.79294628E-01 0.10545869E+04</pdfrwt>
<pdfrwt beam="2">  1       -1 0.82991632E-01 0.10545869E+04</pdfrwt>
<totfact> 0.61263438E+01</totfact>
</mgrwt>
</event>
<event>
 6    1  0.1762360E-005  0.6953097E+04  0.7818608E-02  0.7582292E-01
         -2   -1    0    0    0  501 -0.00000000000E+00  0.00000000000E+00  0.35012925141E+04  0.35012925141E+04  0.00000000000E+00 0.  1.
          2   -1    0    0  501    0  0.00000000000E+00 -0.00000000000E+00 -0.34519789153E+04  0.34519789153E+04  0.00000000000E+00 0. -1.
         23    2    1    2    0    0 -0.81323530047E+03 -0.19616309772E+04  0.27766607873E+04  0.34967167241E+04  0.88515404583E+02 0.  0.
         13    1    3    3    0    0 -0.66921816698E+03 -0.15192108494E+04  0.21749816577E+04  0.27361286101E+04  0.00000000000E+00 0. -1.
        -13    1    3    3    0    0 -0.14401713349E+03 -0.44242012776E+03  0.60167912960E+03  0.76058811402E+03  0.00000000000E+00 0.  1.
         22    1    1    2    0    0  0.81323530047E+03  0.19616309772E+04 -0.27273471884E+04  0.34565547053E+04  0.00000000000E+00 0. -1.
<mgrwt>
<rscale>  0 0.69530966E+04</rscale>
<asrwt>0</asrwt>
<pdfrwt beam="1">  1        2 0.53107368E+00 0.69530966E+04</pdfrwt>
<pdfrwt beam="2">  1       -2 0.53866039E+00 0.69530966E+04</pdfrwt>
<totfact> 0.54964243E-04</totfact>
</mgrwt>
</event>
<event>
 6    1  0.1762360E-005  0.2587498E+04  0.7818608E-02  0.8372460E-01
         -1   -1    0    0    0  501 -0.00000000000E+00  0.00000000000E+00  0.57228794048E+03  0.57228794048E+03  0.00000000000E+00 0.  1.
          1   -1    0    0  501    0  0.00000000000E+00 -0.00000000000E+00 -0.29247286929E+04  0.29247286929E+04  0.00000000000E+00 0. -1.
         23    2    1    2    0    0 -0.47360011041E+03  0.95744755911E+03 -0.19417626924E+03  0.10888828181E+04  0.83417473806E+02 0.  0.
         11    1    3    3    0    0 -0.41774204977E+03  0.77500989828E+03 -0.16775570306E+03  0.89626488188E+03  0.00000000000E+00 0.  1.
        -11    1    3    3    0    0 -0.55858060640E+02  0.18243766083E+03 -0.26420566184E+02  0.19261793620E+03  0.00000000000E+00 0. -1.
         22    1    1    2    0    0  0.47360011041E+03 -0.95744755911E+03 -0.21582644832E+04  0.24081338153E+04  0.00000000000E+00 0. -1.
<mgrwt>
<rscale>  0 0.25874984E+04</rscale>
<asrwt>0</asrwt>
<pdfrwt beam="1">  1        1 0.44995827E+00 0.25874984E+04</pdfrwt>
<pdfrwt beam="2">  1       -1 0.88044297E-01 0.25874984E+04</pdfrwt>
<totfact> 0.75769120E-01</totfact>
</mgrwt>
</event>
<event>
 6    1  0.1762360E-005  0.2416423E+04  0.7818608E-02  0.8433381E-01
         -1   -1    0    0    0  501 -0.00000000000E+00  0.00000000000E+00  0.13504269166E+04  0.13504269166E+04  0.00000000000E+00 0.  1.
          1   -1    0    0  501    0  0.00000000000E+00 -0.00000000000E+00 -0.10809725948E+04  0.10809725948E+04  0.00000000000E+00 0. -1.
         23    2    1    2    0    0 -0.93095475889E+03  0.24874246582E+03 -0.59553012586E+03  0.11365065922E+04  0.91877776865E+02 0.  0.
         13    1    3    3    0    0 -0.33911453962E+03  0.89461678197E+02 -0.26938225656E+03  0.44223168475E+03  0.00000000000E+00 0. -1.
        -13    1    3    3    0    0 -0.59184021927E+03  0.15928078762E+03 -0.32614786930E+03  0.69427490744E+03  0.00000000000E+00 0.  1.
         22    1    1    2    0    0  0.93095475889E+03 -0.24874246582E+03  0.86498444767E+03  0.12948929192E+04  0.00000000000E+00 0.  1.
<mgrwt>
<rscale>  0 0.24164226E+04</rscale>
<asrwt>0</asrwt>
<pdfrwt beam="1">  1        1 0.16630348E+00 0.24164226E+04</pdfrwt>
<pdfrwt beam="2">  1       -1 0.20775799E+00 0.24164226E+04</pdfrwt>
<totfact> 0.15615893E+00</totfact>
</mgrwt>
</event>
<event>
 6    1  0.1762360E-005  0.1954276E+04  0.7818608E-02  0.8628302E-01
         -2   -1    0    0    0  501 -0.00000000000E+00  0.00000000000E+00  0.34260587219E+03  0.34260587219E+03  0.00000000000E+00 0.  1.
          2   -1    0    0  501    0  0.00000000000E+00 -0.00000000000E+00 -0.27868723802E+04  0.27868723802E+04  0.00000000000E+00 0. -1.
         23    2    1    2    0    0  0.63556482731E+03 -0.58200836077E+03 -0.19552231441E+04  0.21385999584E+04  0.89642942735E+02 0.  0.
         13    1    3    3    0    0  0.30751260920E+03 -0.28063221413E+03 -0.83433469715E+03  0.93243382140E+03  0.00000000000E+00 0. -1.
        -13    1    3    3    0    0  0.32805221811E+03 -0.30137614664E+03 -0.11208884469E+04  0.12061661370E+04  0.00000000000E+00 0.  1.
         22    1    1    2    0    0 -0.63556482731E+03  0.58200836077E+03 -0.48904336393E+03  0.99087829400E+03  0.00000000000E+00 0.  1.
<mgrwt>
<rscale>  0 0.19542762E+04</rscale>
<asrwt>0</asrwt>
<pdfrwt beam="1">  1        2 0.42874960E+00 0.19542762E+04</pdfrwt>
<pdfrwt beam="2">  1       -2 0.52708595E-01 0.19542762E+04</pdfrwt>
<totfact> 0.74697455E+00</totfact>
</mgrwt>
</event>
<event>
 6    1  0.1762360E-005  0.2590815E+04  0.7818608E-02  0.8371328E-01
         -2   -1    0    0    0  501 -0.00000000000E+00  0.00000000000E+00  0.94217880284E+03  0.94217880284E+03  0.00000000000E+00 0.  1.
          2   -1    0    0  501    0  0.00000000000E+00 -0.00000000000E+00 -0.17810637921E+04  0.17810637921E+04  0.00000000000E+00 0. -1.
         23    2    1    2    0    0 -0.22361501305E+03 -0.96237909747E+03 -0.12980343540E+04  0.16337494374E+04  0.89815582376E+02 0.  0.
         13    1    3    3    0    0 -0.12654696946E+03 -0.38018038430E+03 -0.56404498932E+03  0.69188005468E+03  0.00000000000E+00 0.  1.
        -13    1    3    3    0    0 -0.97068043588E+02 -0.58219871316E+03 -0.73398936463E+03  0.94186938271E+03  0.00000000000E+00 0. -1.
         22    1    1    2    0    0  0.22361501305E+03  0.96237909747E+03  0.45914936468E+03  0.10894931576E+04  0.00000000000E+00 0.  1.
<mgrwt>
<rscale>  0 0.25908150E+04</rscale>
<asrwt>0</asrwt>
<pdfrwt beam="1">  1        2 0.27400981E+00 0.25908150E+04</pdfrwt>
<pdfrwt beam="2">  1       -2 0.14495059E+00 0.25908150E+04</pdfrwt>
<totfact> 0.25669495E+00</totfact>
</mgrwt>
</event>
<event>
 6    1  0.1762360E-005  0.4140036E+04  0.7818608E-02  0.7976878E-01
          2   -1    0    0  501    0  0.00000000000E+00  0.00000000000E+00  0.39828277206E+04  0.39828277206E+04  0.00000000000E+00 0. -1.
         -2   -1    0    0    0  501 -0.00000000000E+00 -0.00000000000E+00 -0.10758623245E+04  0.10758623245E+04  0.00000000000E+00 0.  1.
         23    2    1    2    0    0 -0.16987072964E+04 -0.16809642399E+03  0.25564000789E+02  0.17096100390E+04  0.90829956599E+02 0.  0.
         11    1    3    3    0    0 -0.12371630338E+04 -0.13814457828E+03  0.55852550914E+02  0.12461042510E+04  0.00000000000E+00 0. -1.
        -11    1    3    3    0    0 -0.46154426251E+03 -0.29951845711E+02 -0.30288550125E+02  0.46350578808E+03  0.00000000000E+00 0.  1.
         22    1    1    2    0    0  0.16987072964E+04  0.16809642399E+03  0.28814013953E+04  0.33490800061E+04  0.00000000000E+00 0. -1.
<mgrwt>
<rscale>  0 0.41400359E+04</rscale>
<asrwt>0</asrwt>
<pdfrwt beam="1">  1        2 0.61274272E+00 0.41400359E+04</pdfrwt>
<pdfrwt beam="2">  1       -2 0.16551728E+00 0.41400359E+04</pdfrwt>
<totfact> 0.63004455E-02</totfact>
</mgrwt>
</event>
<event>
 6    1  0.1762360E-005  0.3779505E+04  0.7818608E-02  0.8050567E-01
          2   -1    0    0  501    0  0.00000000000E+00  0.00000000000E+00  0.28291379606E+04  0.28291379606E+04  0.00000000000E+00 0. -1.
         -2   -1    0    0    0  501 -0.00000000000E+00 -0.00000000000E+00 -0.12622799814E+04  0.12622799814E+04  0.00000000000E+00 0.  1.
         23    2    1    2    0    0  0.38999491587E+03 -0.17566537826E+04  0.16322260582E+03  0.18092871816E+04  0.94604122026E+02 0.  0.
         13    1    3    3    0    0  0.11142433132E+03 -0.71457366685E+03  0.70566657046E+02  0.72664335135E+03  0.00000000000E+00 0.  1.
        -13    1    3    3    0    0  0.27857058454E+03 -0.10420801158E+04  0.92655948771E+02  0.10826438302E+04  0.00000000000E+00 0. -1.
         22    1    1    2    0    0 -0.38999491587E+03  0.17566537826E+04  0.14036353734E+04  0.22821307604E+04  0.00000000000E+00 0. -1.
<mgrwt>
<rscale>  0 0.37795048E+04</rscale>
<asrwt>0</asrwt>
<pdfrwt beam="1">  1        2 0.43525199E+00 0.37795048E+04</pdfrwt>
<pdfrwt beam="2">  1       -2 0.19419692E+00 0.37795048E+04</pdfrwt>
<totfact> 0.25898057E-01</totfact>
</mgrwt>
</event>
<event>
 6    1  0.1762360E-005  0.1540636E+04  0.7818608E-02  0.8857871E-01
          2   -1    0    0  501    0  0.00000000000E+00  0.00000000000E+00  0.16919564674E+04  0.16919564674E+04  0.00000000000E+00 0. -1.
         -2   -1    0    0    0  501 -0.00000000000E+00 -0.00000000000E+00 -0.35071227004E+03  0.35071227004E+03  0.00000000000E+00 0.  1.
         23    2    1    2    0    0  0.53894228671E+03  0.24402923841E+03  0.24328835077E+02  0.59896685373E+03  0.90334611598E+02 0.  0.
         13    1    3    3    0    0  0.29447966494E+03  0.99236799815E+02  0.45454728389E+02  0.31405787338E+03  0.00000000000E+00 0.  1.
        -13    1    3    3    0    0  0.24446262177E+03  0.14479243859E+03 -0.21125893311E+02  0.28490898035E+03  0.00000000000E+00 0. -1.
         22    1    1    2    0    0 -0.53894228671E+03 -0.24402923841E+03  0.13169153622E+04  0.14437018837E+04  0.00000000000E+00 0. -1.
<mgrwt>
<rscale>  0 0.15406361E+04</rscale>
<asrwt>0</asrwt>
<pdfrwt beam="1">  1        2 0.26030099E+00 0.15406361E+04</pdfrwt>
<pdfrwt beam="2">  1       -2 0.53955735E-01 0.15406361E+04</pdfrwt>
<totfact> 0.30875151E+01</totfact>
</mgrwt>
</event>
<event>
 6    1  0.1762360E-005  0.1913946E+04  0.7818608E-02  0.8647945E-01
          2   -1    0    0  501    0  0.00000000000E+00  0.00000000000E+00  0.17224462967E+04  0.17224462967E+04  0.00000000000E+00 0.  1.
         -2   -1    0    0    0  501 -0.00000000000E+00 -0.00000000000E+00 -0.53168418636E+03  0.53168418636E+03  0.00000000000E+00 0. -1.
         23    2    1    2    0    0  0.35481555094E+03  0.30638249402E+03 -0.38270107799E+03  0.61231724372E+03  0.93316579638E+02 0.  0.
         13    1    3    3    0    0  0.23560210031E+03  0.23684844239E+03 -0.31261795623E+03  0.45753198892E+03  0.00000000000E+00 0. -1.
        -13    1    3    3    0    0  0.11921345063E+03  0.69534051625E+02 -0.70083121762E+02  0.15478525480E+03  0.00000000000E+00 0.  1.
         22    1    1    2    0    0 -0.35481555094E+03 -0.30638249402E+03  0.15734631883E+04  0.16418132393E+04  0.00000000000E+00 0.  1.
<mgrwt>
<rscale>  0 0.19139461E+04</rscale>
<asrwt>0</asrwt>
<pdfrwt beam="1">  1        2 0.26499173E+00 0.19139461E+04</pdfrwt>
<pdfrwt beam="2">  1       -2 0.81797568E-01 0.19139461E+04</pdfrwt>
<totfact> 0.11719032E+01</totfact>
</mgrwt>
</event>
<event>
 6    1  0.1762360E-005  0.3171669E+04  0.7818608E-02  0.8196340E-01
         -2   -1    0    0    0  501 -0.00000000000E+00  0.00000000000E+00  0.11698248873E+04  0.11698248873E+04  0.00000000000E+00 0.  1.
          2   -1    0    0  501    0  0.00000000000E+00 -0.00000000000E+00 -0.21497835702E+04  0.21497835702E+04  0.00000000000E+00 0. -1.
         23    2    1    2    0    0 -0.52723856908E+03 -0.11552530504E+04  0.50166026896E+03  0.13682538414E+04  0.88687258406E+02 0.  0.
         11    1    3    3    0    0 -0.50838135055E+02 -0.14947394716E+03  0.36469226065E+02  0.16204006081E+03  0.00000000000E+00 0. -1.
        -11    1    3    3    0    0 -0.47640043403E+03 -0.10057791033E+04  0.46519104289E+03  0.12062137806E+04  0.00000000000E+00 0.  1.
         22    1    1    2    0    0  0.52723856908E+03  0.11552530504E+04 -0.14816189519E+04  0.19513546161E+04  0.00000000000E+00 0. -1.
<mgrwt>
<rscale>  0 0.31716685E+04</rscale>
<asrwt>0</asrwt>
<pdfrwt beam="1">  1        2 0.33073593E+00 0.31716685E+04</pdfrwt>
<pdfrwt beam="2">  1       -2 0.17997306E+00 0.31716685E+04</pdfrwt>
<totfact> 0.84373797E-01</totfact>
</mgrwt>
</event>
<event>
 6    1  0.1762360E-005  0.3254963E+04  0.7818608E-02  0.8174451E-01
          2   -1    0    0  501    0  0.00000000000E+00  0.00000000000E+00  0.24357506454E+04  0.24357506454E+04  0.00000000000E+00 0. -1.
         -2   -1    0    0    0  501 -0.00000000000E+00 -0.00000000000E+00 -0.10874250255E+04  0.10874250255E+04  0.00000000000E+00 0.  1.
         23    2    1    2    0    0 -0.12135413815E+04  0.82484618461E+03 -0.84084717169E+02  0.14726017789E+04  0.91825087058E+02 0.  0.
         13    1    3    3    0    0 -0.24942927223E+03  0.18885603715E+03  0.16123916677E+02  0.31327551022E+03  0.00000000000E+00 0.  1.
        -13    1    3    3    0    0 -0.96411210926E+03  0.63599014745E+03 -0.10020863385E+03  0.11593262687E+04  0.00000000000E+00 0. -1.
         22    1    1    2    0    0  0.12135413815E+04 -0.82484618461E+03  0.14324103371E+04  0.20505738920E+04  0.00000000000E+00 0. -1.
<mgrwt>
<rscale>  0 0.32549631E+04</rscale>
<asrwt>0</asrwt>
<pdfrwt beam="1">  1        2 0.37473087E+00 0.32549631E+04</pdfrwt>
<pdfrwt beam="2">  1       -2 0.16729616E+00 0.32549631E+04</pdfrwt>
<totfact> 0.70823329E-01</totfact>
</mgrwt>
</event>
<event>
 6    1  0.1762360E-005  0.1535728E+04  0.7818608E-02  0.8861036E-01
         -2   -1    0    0    0  501 -0.00000000000E+00  0.00000000000E+00  0.29744301131E+03  0.29744301131E+03  0.00000000000E+00 0. -1.
          2   -1    0    0  501    0  0.00000000000E+00 -0.00000000000E+00 -0.19822794209E+04  0.19822794209E+04  0.00000000000E+00 0.  1.
         23    2    1    2    0    0  0.27667732509E+03 -0.65908931138E+03 -0.12504552527E+04  0.14432799345E+04  0.92030254082E+02 0.  0.
         13    1    3    3    0    0  0.22264782466E+03 -0.60292931831E+03 -0.11205187057E+04  0.12917654534E+04  0.00000000000E+00 0.  1.
        -13    1    3    3    0    0  0.54029500428E+02 -0.56159993077E+02 -0.12993654695E+03  0.15151448106E+03  0.00000000000E+00 0. -1.
         22    1    1    2    0    0 -0.27667732509E+03  0.65908931138E+03 -0.43438115695E+03  0.83644249779E+03  0.00000000000E+00 0.  1.
<mgrwt>
<rscale>  0 0.15357280E+04</rscale>
<asrwt>0</asrwt>
<pdfrwt beam="1">  1        2 0.30496607E+00 0.15357280E+04</pdfrwt>
<pdfrwt beam="2">  1       -2 0.45760463E-01 0.15357280E+04</pdfrwt>
<totfact> 0.29831403E+01</totfact>
</mgrwt>
</event>
<event>
 6    1  0.1762360E-005  0.1079058E+04  0.7818608E-02  0.9225847E-01
          2   -1    0    0  501    0  0.00000000000E+00  0.00000000000E+00  0.15010539991E+04  0.15010539991E+04  0.00000000000E+00 0. -1.
         -2   -1    0    0    0  501 -0.00000000000E+00 -0.00000000000E+00 -0.19392471590E+03  0.19392471590E+03  0.00000000000E+00 0.  1.
         23    2    1    2    0    0 -0.28095993264E+03 -0.40349564087E+03  0.32443495249E+03  0.59614507719E+03  0.91562539919E+02 0.  0.
         13    1    3    3    0    0 -0.17127294065E+03 -0.23331747035E+03  0.13691883240E+03  0.32018467926E+03  0.00000000000E+00 0. -1.
        -13    1    3    3    0    0 -0.10968699199E+03 -0.17017817052E+03  0.18751612009E+03  0.27596039793E+03  0.00000000000E+00 0.  1.
         22    1    1    2    0    0  0.28095993264E+03  0.40349564087E+03  0.98269433069E+03  0.10988336378E+04  0.00000000000E+00 0. -1.
<mgrwt>
<rscale>  0 0.10790579E+04</rscale>
<asrwt>0</asrwt>
<pdfrwt beam="1">  1        2 0.23093138E+00 0.10790579E+04</pdfrwt>
<pdfrwt beam="2">  1       -2 0.29834573E-01 0.10790579E+04</pdfrwt>
<totfact> 0.13045672E+02</totfact>
</mgrwt>
</event>
<event>
 6    1  0.1762360E-005  0.3934669E+04  0.7818608E-02  0.8017857E-01
          2   -1    0    0  501    0  0.00000000000E+00  0.00000000000E+00  0.17060680955E+04  0.17060680955E+04  0.00000000000E+00 0. -1.
         -2   -1    0    0    0  501 -0.00000000000E+00 -0.00000000000E+00 -0.22686111173E+04  0.22686111173E+04  0.00000000000E+00 0.  1.
         23    2    1    2    0    0  0.13301541018E+04  0.24969989999E+03  0.11595296114E+04  0.17844294260E+04  0.89551561006E+02 0.  0.
         13    1    3    3    0    0  0.29059964195E+03  0.86102643873E+02  0.23244125069E+03  0.38195647947E+03  0.00000000000E+00 0. -1.
        -13    1    3    3    0    0  0.10395544599E+04  0.16359725612E+03  0.92708836073E+03  0.14024729466E+04  0.00000000000E+00 0.  1.
         22    1    1    2    0    0 -0.13301541018E+04 -0.24969989999E+03 -0.17220726332E+04  0.21902497868E+04  0.00000000000E+00 0.  1.
<mgrwt>
<rscale>  0 0.39346690E+04</rscale>
<asrwt>0</asrwt>
<pdfrwt beam="1">  1        2 0.26247202E+00 0.39346690E+04</pdfrwt>
<pdfrwt beam="2">  1       -2 0.34901709E+00 0.39346690E+04</pdfrwt>
<totfact> 0.12175560E-01</totfact>
</mgrwt>
</event>
<event>
 6    1  0.1762360E-005  0.3035736E+04  0.7818608E-02  0.8233599E-01
          2   -1    0    0  501    0  0.00000000000E+00  0.00000000000E+00  0.27353396285E+04  0.27353396285E+04  0.00000000000E+00 0. -1.
         -2   -1    0    0    0  501 -0.00000000000E+00 -0.00000000000E+00 -0.84228032173E+03  0.84228032173E+03  0.00000000000E+00 0.  1.
         23    2    1    2    0    0 -0.71836964593E+03  0.11738914589E+04  0.19679000507E+03  0.13932652058E+04  0.91572497088E+02 0.  0.
         13    1    3    3    0    0 -0.39690198083E+03  0.57839510920E+03  0.12788952672E+03  0.71304124409E+03  0.00000000000E+00 0. -1.
        -13    1    3    3    0    0 -0.32146766510E+03  0.59549634969E+03  0.68900478346E+02  0.68022396174E+03  0.00000000000E+00 0.  1.
         22    1    1    2    0    0  0.71836964593E+03 -0.11738914589E+04  0.16962693017E+04  0.21843547444E+04  0.00000000000E+00 0. -1.
<mgrwt>
<rscale>  0 0.30357357E+04</rscale>
<asrwt>0</asrwt>
<pdfrwt beam="1">  1        2 0.42082148E+00 0.30357357E+04</pdfrwt>
<pdfrwt beam="2">  1       -2 0.12958159E+00 0.30357357E+04</pdfrwt>
<totfact> 0.94491762E-01</totfact>
</mgrwt>
</event>
<event>
 6    1  0.1762360E-005  0.1423189E+04  0.7818608E-02  0.8937202E-01
          1   -1    0    0  501    0  0.00000000000E+00  0.00000000000E+00  0.48125130936E+03  0.48125130936E+03  0.00000000000E+00 0. -1.
         -1   -1    0    0    0  501 -0.00000000000E+00 -0.00000000000E+00 -0.10521877654E+04  0.10521877654E+04  0.00000000000E+00 0.  1.
         23    2    1    2    0    0 -0.53426236895E+03 -0.43988587848E+03 -0.12254437071E+03  0.70882320837E+03  0.92072541854E+02 0.  0.
         13    1    3    3    0    0 -0.33030704773E+03 -0.26729188011E+03 -0.29610403191E+02  0.42593951558E+03  0.00000000000E+00 0.  1.
        -13    1    3    3    0    0 -0.20395532121E+03 -0.17259399838E+03 -0.92933967517E+02  0.28288369279E+03  0.00000000000E+00 0. -1.
         22    1    1    2    0    0  0.53426236895E+03  0.43988587848E+03 -0.44839208538E+03  0.82461586644E+03  0.00000000000E+00 0. -1.
<mgrwt>
<rscale>  0 0.14231890E+04</rscale>
<asrwt>0</asrwt>
<pdfrwt beam="1">  1        1 0.74038663E-01 0.14231890E+04</pdfrwt>
<pdfrwt beam="2">  1       -1 0.16187504E+00 0.14231890E+04</pdfrwt>
<totfact> 0.12861510E+01</totfact>
</mgrwt>
</event>
<event>
 6    1  0.1762360E-005  0.9682287E+03  0.7818608E-02  0.9344094E-01
          2   -1    0    0  501    0  0.00000000000E+00  0.00000000000E+00  0.15185899922E+04  0.15185899922E+04  0.00000000000E+00 0.  1.
         -2   -1    0    0    0  501 -0.00000000000E+00 -0.00000000000E+00 -0.15433177651E+03  0.15433177651E+03  0.00000000000E+00 0. -1.
         23    2    1    2    0    0  0.17317841756E+03  0.17784219846E+03 -0.21145149266E+02  0.26545557178E+03  0.91656594914E+02 0.  0.
         13    1    3    3    0    0  0.14177294547E+03  0.98359915149E+02  0.13848173553E+02  0.17310694061E+03  0.00000000000E+00 0. -1.
        -13    1    3    3    0    0  0.31405472081E+02  0.79482283311E+02 -0.34993322819E+02  0.92348631169E+02  0.00000000000E+00 0.  1.
         22    1    1    2    0    0 -0.17317841756E+03 -0.17784219846E+03  0.13854033650E+04  0.14074661969E+04  0.00000000000E+00 0.  1.
<mgrwt>
<rscale>  0 0.96822867E+03</rscale>
<asrwt>0</asrwt>
<pdfrwt beam="1">  1        2 0.23362922E+00 0.96822867E+03</pdfrwt>
<pdfrwt beam="2">  1       -2 0.23743351E-01 0.96822867E+03</pdfrwt>
<totfact> 0.19500326E+02</totfact>
</mgrwt>
</event>
<event>
 6    1  0.1762360E-005  0.2653605E+04  0.7818608E-02  0.8350217E-01
         -2   -1    0    0    0  501 -0.00000000000E+00  0.00000000000E+00  0.46990123042E+03  0.46990123042E+03  0.00000000000E+00 0.  1.
          2   -1    0    0  501    0  0.00000000000E+00 -0.00000000000E+00 -0.37463302116E+04  0.37463302116E+04  0.00000000000E+00 0. -1.
         23    2    1    2    0    0 -0.13016233003E+04 -0.37279126645E+02 -0.12484859949E+04  0.18062178104E+04  0.89958601428E+02 0.  0.
         11    1    3    3    0    0 -0.84761966379E+03 -0.15375897587E+02 -0.86993576812E+03  0.12146949219E+04  0.00000000000E+00 0. -1.
        -11    1    3    3    0    0 -0.45400363649E+03 -0.21903229058E+02 -0.37855022680E+03  0.59152288848E+03  0.00000000000E+00 0.  1.
         22    1    1    2    0    0  0.13016233003E+04  0.37279126645E+02 -0.20279429863E+04  0.24100136316E+04  0.00000000000E+00 0. -1.
<mgrwt>
<rscale>  0 0.26536052E+04</rscale>
<asrwt>0</asrwt>
<pdfrwt beam="1">  1        2 0.57635849E+00 0.26536052E+04</pdfrwt>
<pdfrwt beam="2">  1       -2 0.72292498E-01 0.26536052E+04</pdfrwt>
<totfact> 0.82322881E-01</totfact>
</mgrwt>
</event>
<event>
 6    1  0.1762360E-005  0.2149191E+04  0.7818608E-02  0.8539879E-01
          1   -1    0    0  501    0  0.00000000000E+00  0.00000000000E+00  0.11245659337E+04  0.11245659337E+04  0.00000000000E+00 0. -1.
         -1   -1    0    0    0  501 -0.00000000000E+00 -0.00000000000E+00 -0.10268455208E+04  0.10268455208E+04  0.00000000000E+00 0.  1.
         23    2    1    2    0    0 -0.14345269702E+03 -0.95075585433E+03 -0.42690474311E+03  0.10560818579E+04  0.92443821695E+02 0.  0.
         11    1    3    3    0    0 -0.67276812518E+02 -0.71211985078E+03 -0.32459126490E+03  0.78549369229E+03  0.00000000000E+00 0. -1.
        -11    1    3    3    0    0 -0.76175884505E+02 -0.23863600355E+03 -0.10231347821E+03  0.27058816566E+03  0.00000000000E+00 0.  1.
         22    1    1    2    0    0  0.14345269702E+03  0.95075585433E+03  0.52462515593E+03  0.10953295965E+04  0.00000000000E+00 0. -1.
<mgrwt>
<rscale>  0 0.21491910E+04</rscale>
<asrwt>0</asrwt>
<pdfrwt beam="1">  1        1 0.17301014E+00 0.21491910E+04</pdfrwt>
<pdfrwt beam="2">  1       -1 0.15797623E+00 0.21491910E+04</pdfrwt>
<totfact> 0.33695831E+00</totfact>
</mgrwt>
</event>
<event>
 6    1  0.1762360E-005  0.1674988E+04  0.7818608E-02  0.8775760E-01
          2   -1    0    0  501    0  0.00000000000E+00  0.00000000000E+00  0.15030179544E+04  0.15030179544E+04  0.00000000000E+00 0. -1.
         -2   -1    0    0    0  501 -0.00000000000E+00 -0.00000000000E+00 -0.46665849148E+03  0.46665849148E+03  0.00000000000E+00 0.  1.
         23    2    1    2    0    0 -0.12250563433E+03  0.66888053844E+03 -0.49916149499E+02  0.68811352847E+03  0.92735111687E+02 0.  0.
         11    1    3    3    0    0 -0.10257403752E+03  0.38750086499E+03 -0.62790664026E+02  0.40573516120E+03  0.00000000000E+00 0. -1.
        -11    1    3    3    0    0 -0.19931596812E+02  0.28137967344E+03  0.12874514527E+02  0.28237836727E+03  0.00000000000E+00 0.  1.
         22    1    1    2    0    0  0.12250563433E+03 -0.66888053844E+03  0.10862756124E+04  0.12815629174E+04  0.00000000000E+00 0. -1.
<mgrwt>
<rscale>  0 0.16749879E+04</rscale>
<asrwt>0</asrwt>
<pdfrwt beam="1">  1        2 0.23123353E+00 0.16749879E+04</pdfrwt>
<pdfrwt beam="2">  1       -2 0.71793615E-01 0.16749879E+04</pdfrwt>
<totfact> 0.21198710E+01</totfact>
</mgrwt>
</event>
<event>
 6    1  0.1762360E-005  0.1480175E+04  0.7818608E-02  0.8897744E-01
          2   -1    0    0  501    0  0.00000000000E+00  0.00000000000E+00  0.14929984840E+04  0.14929984840E+04  0.00000000000E+00 0.  1.
         -2   -1    0    0    0  501 -0.00000000000E+00 -0.00000000000E+00 -0.36686547953E+03  0.36686547953E+03  0.00000000000E+00 0. -1.
         23    2    1    2    0    0 -0.71221032274E+03  0.18880112825E+03  0.59571809032E+03  0.95199316272E+03  0.92312127471E+02 0.  0.
         11    1    3    3    0    0 -0.39650800129E+03  0.14618210507E+03  0.31049967137E+03  0.52440237304E+03  0.00000000000E+00 0.  1.
        -11    1    3    3    0    0 -0.31570232144E+03  0.42619023172E+02  0.28521841896E+03  0.42759078967E+03  0.00000000000E+00 0. -1.
         22    1    1    2    0    0  0.71221032274E+03 -0.18880112825E+03  0.53041491417E+03  0.90787080084E+03  0.00000000000E+00 0. -1.
<mgrwt>
<rscale>  0 0.14801751E+04</rscale>
<asrwt>0</asrwt>
<pdfrwt beam="1">  1        2 0.22969207E+00 0.14801751E+04</pdfrwt>
<pdfrwt beam="2">  1       -2 0.56440844E-01 0.14801751E+04</pdfrwt>
<totfact> 0.36506189E+01</totfact>
</mgrwt>
</event>
<event>
 6    1  0.1762360E-005  0.2752515E+04  0.7818608E-02  0.8318164E-01
         -2   -1    0    0    0  501 -0.00000000000E+00  0.00000000000E+00  0.12293162182E+04  0.12293162182E+04  0.00000000000E+00 0.  1.
          2   -1    0    0  501    0  0.00000000000E+00 -0.00000000000E+00 -0.15407632016E+04  0.15407632016E+04  0.00000000000E+00 0. -1.
         23    2    1    2    0    0  0.95748620706E+03  0.58253497616E+03  0.64512867964E+03  0.12965924553E+04  0.93990141779E+02 0.  0.
         13    1    3    3    0    0  0.23927702080E+03  0.10443560037E+03  0.17130500502E+03  0.31225901437E+03  0.00000000000E+00 0.  1.
        -13    1    3    3    0    0  0.71820918626E+03  0.47809937579E+03  0.47382367462E+03  0.98433344096E+03  0.00000000000E+00 0. -1.
         22    1    1    2    0    0 -0.95748620706E+03 -0.58253497616E+03 -0.95657566306E+03  0.14734869644E+04  0.00000000000E+00 0. -1.
<mgrwt>
<rscale>  0 0.27525154E+04</rscale>
<asrwt>0</asrwt>
<pdfrwt beam="1">  1        2 0.23704049E+00 0.27525154E+04</pdfrwt>
<pdfrwt beam="2">  1       -2 0.18912557E+00 0.27525154E+04</pdfrwt>
<totfact> 0.16525551E+00</totfact>
</mgrwt>
</event>
<event>
 6    1  0.1762360E-005  0.5398091E+04  0.7818608E-02  0.7769870E-01
          2   -1    0    0  501    0  0.00000000000E+00  0.00000000000E+00  0.26120138944E+04  0.26120138944E+04  0.00000000000E+00 0. -1.
         -2   -1    0    0    0  501 -0.00000000000E+00 -0.00000000000E+00 -0.27889767502E+04  0.27889767502E+04  0.00000000000E+00 0.  1.
         23    2    1    2    0    0 -0.20566095245E+04  0.48108705502E+03 -0.17685519319E+04  0.27563274756E+04  0.92074568883E+02 0.  0.
         11    1    3    3    0    0 -0.11443540632E+04  0.30904679329E+03 -0.96359731804E+03  0.15276046392E+04  0.00000000000E+00 0. -1.
        -11    1    3    3    0    0 -0.91225546128E+03  0.17204026173E+03 -0.80495461383E+03  0.12287228364E+04  0.00000000000E+00 0.  1.
         22    1    1    2    0    0  0.20566095245E+04 -0.48108705502E+03  0.15915890761E+04  0.26446631691E+04  0.00000000000E+00 0. -1.
<mgrwt>
<rscale>  0 0.53980908E+04</rscale>
<asrwt>0</asrwt>
<pdfrwt beam="1">  1        2 0.40184829E+00 0.53980908E+04</pdfrwt>
<pdfrwt beam="2">  1       -2 0.42907335E+00 0.53980908E+04</pdfrwt>
<totfact> 0.10109575E-02</totfact>
</mgrwt>
</event>
<event>
 6    1  0.1762360E-005  0.2958888E+04  0.7818608E-02  0.8255569E-01
         -2   -1    0    0    0  501 -0.00000000000E+00  0.00000000000E+00  0.10346884702E+04  0.10346884702E+04  0.00000000000E+00 0.  1.
          2   -1    0    0  501    0  0.00000000000E+00 -0.00000000000E+00 -0.21153752109E+04  0.21153752109E+04  0.00000000000E+00 0. -1.
         23    2    1    2    0    0 -0.86322221548E+03  0.34941422276E+02 -0.18175987629E+04  0.20145405308E+04  0.91295075434E+02 0.  0.
         13    1    3    3    0    0 -0.36947574268E+03  0.40348123211E+02 -0.86827373690E+03  0.94447846861E+03  0.00000000000E+00 0.  1.
        -13    1    3    3    0    0 -0.49374647280E+03 -0.54067009347E+01 -0.94932502603E+03  0.10700620622E+04  0.00000000000E+00 0. -1.
         22    1    1    2    0    0  0.86322221548E+03 -0.34941422276E+02  0.73691202224E+03  0.11355231503E+04  0.00000000000E+00 0.  1.
<mgrwt>
<rscale>  0 0.29588879E+04</rscale>
<asrwt>0</asrwt>
<pdfrwt beam="1">  1        2 0.32544234E+00 0.29588879E+04</pdfrwt>
<pdfrwt beam="2">  1       -2 0.15918284E+00 0.29588879E+04</pdfrwt>
<totfact> 0.12638582E+00</totfact>
</mgrwt>
</event>
<event>
 6    1  0.1762360E-005  0.7247644E+03  0.7818608E-02  0.9675795E-01
         -2   -1    0    0    0  501 -0.00000000000E+00  0.00000000000E+00  0.78722921214E+02  0.78722921214E+02  0.00000000000E+00 0.  1.
          2   -1    0    0  501    0  0.00000000000E+00 -0.00000000000E+00 -0.16681398966E+04  0.16681398966E+04  0.00000000000E+00 0. -1.
         23    2    1    2    0    0 -0.23518219078E+03  0.80502756928E+02 -0.18825876666E+03  0.32382533320E+03  0.87350595098E+02 0.  0.
         11    1    3    3    0    0 -0.42164627532E+02  0.30913226069E+02 -0.40421033278E+01  0.52438744838E+02  0.00000000000E+00 0.  1.
        -11    1    3    3    0    0 -0.19301756325E+03  0.49589530859E+02 -0.18421666333E+03  0.27138658836E+03  0.00000000000E+00 0. -1.
         22    1    1    2    0    0  0.23518219078E+03 -0.80502756928E+02 -0.14011582087E+04  0.14230374846E+04  0.00000000000E+00 0. -1.
<mgrwt>
<rscale>  0 0.72476436E+03</rscale>
<asrwt>0</asrwt>
<pdfrwt beam="1">  1        2 0.25663692E+00 0.72476436E+03</pdfrwt>
<pdfrwt beam="2">  1       -2 0.12111218E-01 0.72476436E+03</pdfrwt>
<totfact> 0.52088899E+02</totfact>
</mgrwt>
</event>
<event>
 6    1  0.1762360E-005  0.3492233E+04  0.7818608E-02  0.8115633E-01
          2   -1    0    0  501    0  0.00000000000E+00  0.00000000000E+00  0.11748823826E+04  0.11748823826E+04  0.00000000000E+00 0. -1.
         -2   -1    0    0    0  501 -0.00000000000E+00 -0.00000000000E+00 -0.25950878698E+04  0.25950878698E+04  0.00000000000E+00 0.  1.
         23    2    1    2    0    0 -0.43135125300E+03  0.11140230834E+04  0.66245991084E+03  0.13690107579E+04  0.90697232744E+02 0.  0.
         11    1    3    3    0    0 -0.23718397816E+03  0.51443337106E+03  0.34584439442E+03  0.66370646969E+03  0.00000000000E+00 0.  1.
        -11    1    3    3    0    0 -0.19416727484E+03  0.59958971234E+03  0.31661551642E+03  0.70530428823E+03  0.00000000000E+00 0. -1.
         22    1    1    2    0    0  0.43135125300E+03 -0.11140230834E+04 -0.20826653980E+04  0.24009594944E+04  0.00000000000E+00 0.  1.
<mgrwt>
<rscale>  0 0.34922331E+04</rscale>
<asrwt>0</asrwt>
<pdfrwt beam="1">  1        2 0.18075114E+00 0.34922331E+04</pdfrwt>
<pdfrwt beam="2">  1       -2 0.39924428E+00 0.34922331E+04</pdfrwt>
<totfact> 0.12094722E-01</totfact>
</mgrwt>
</event>
<event>
 6    1  0.1762360E-005  0.3991868E+04  0.7818608E-02  0.8006189E-01
         -2   -1    0    0    0  501 -0.00000000000E+00  0.00000000000E+00  0.12210574080E+04  0.12210574080E+04  0.00000000000E+00 0.  1.
          2   -1    0    0  501    0  0.00000000000E+00 -0.00000000000E+00 -0.32625438161E+04  0.32625438161E+04  0.00000000000E+00 0. -1.
         23    2    1    2    0    0 -0.34442486358E+03 -0.11844990071E+04 -0.27821670142E+04  0.30447564984E+04  0.91773933696E+02 0.  0.
         11    1    3    3    0    0 -0.21916454792E+03 -0.65866678466E+03 -0.16546003143E+04  0.17943180410E+04  0.00000000000E+00 0. -1.
        -11    1    3    3    0    0 -0.12526031566E+03 -0.52583222249E+03 -0.11275666999E+04  0.12504384573E+04  0.00000000000E+00 0.  1.
         22    1    1    2    0    0  0.34442486358E+03  0.11844990071E+04  0.74068060603E+03  0.14388447257E+04  0.00000000000E+00 0.  1.
<mgrwt>
<rscale>  0 0.39918684E+04</rscale>
<asrwt>0</asrwt>
<pdfrwt beam="1">  1        2 0.50192982E+00 0.39918684E+04</pdfrwt>
<pdfrwt beam="2">  1       -2 0.18785499E+00 0.39918684E+04</pdfrwt>
<totfact> 0.14904119E-01</totfact>
</mgrwt>
</event>
<event>
 6    1  0.1762360E-005  0.3578983E+04  0.7818608E-02  0.8095323E-01
          1   -1    0    0  501    0  0.00000000000E+00  0.00000000000E+00  0.18559778393E+04  0.18559778393E+04  0.00000000000E+00 0. -1.
         -1   -1    0    0    0  501 -0.00000000000E+00 -0.00000000000E+00 -0.17253869972E+04  0.17253869972E+04  0.00000000000E+00 0.  1.
         23    2    1    2    0    0  0.13522064499E+04  0.25563054934E+03 -0.10774842057E+04  0.17501754465E+04  0.91283181239E+02 0.  0.
         13    1    3    3    0    0  0.59915317550E+03  0.76480736758E+02 -0.43773555272E+03  0.74595324581E+03  0.00000000000E+00 0. -1.
        -13    1    3    3    0    0  0.75305327437E+03  0.17914981258E+03 -0.63974865300E+03  0.10042222007E+04  0.00000000000E+00 0.  1.
         22    1    1    2    0    0 -0.13522064499E+04 -0.25563054934E+03  0.12080750478E+04  0.18311893900E+04  0.00000000000E+00 0. -1.
<mgrwt>
<rscale>  0 0.35789831E+04</rscale>
<asrwt>0</asrwt>
<pdfrwt beam="1">  1        1 0.28553505E+00 0.35789831E+04</pdfrwt>
<pdfrwt beam="2">  1       -1 0.26544415E+00 0.35789831E+04</pdfrwt>
<totfact> 0.16731648E-01</totfact>
</mgrwt>
</event>
<event>
 6    1  0.1762360E-005  0.2021569E+04  0.7818608E-02  0.8596602E-01
          1   -1    0    0  501    0  0.00000000000E+00  0.00000000000E+00  0.13436496572E+04  0.13436496572E+04  0.00000000000E+00 0.  1.
         -1   -1    0    0    0  501 -0.00000000000E+00 -0.00000000000E+00 -0.76038089242E+03  0.76038089242E+03  0.00000000000E+00 0. -1.
         23    2    1    2    0    0 -0.22996165799E+03  0.61707683789E+03 -0.50302746181E+03  0.83371339241E+03  0.91516148016E+02 0.  0.
         13    1    3    3    0    0 -0.15268416178E+03  0.28267957316E+03 -0.25716804175E+03  0.41152836602E+03  0.00000000000E+00 0. -1.
        -13    1    3    3    0    0 -0.77277496210E+02  0.33439726473E+03 -0.24585942005E+03  0.42218502639E+03  0.00000000000E+00 0.  1.
         22    1    1    2    0    0  0.22996165799E+03 -0.61707683789E+03  0.10862962266E+04  0.12703171572E+04  0.00000000000E+00 0.  1.
<mgrwt>
<rscale>  0 0.20215692E+04</rscale>
<asrwt>0</asrwt>
<pdfrwt beam="1">  1        1 0.20671533E+00 0.20215692E+04</pdfrwt>
<pdfrwt beam="2">  1       -1 0.11698168E+00 0.20215692E+04</pdfrwt>
<totfact> 0.51360011E+00</totfact>
</mgrwt>
</event>
<event>
 6    1  0.1762360E-005  0.2593067E+04  0.7818608E-02  0.8370560E-01
          2   -1    0    0  501    0  0.00000000000E+00  0.00000000000E+00  0.18288591698E+04  0.18288591698E+04  0.00000000000E+00 0. -1.
         -2   -1    0    0    0  501 -0.00000000000E+00 -0.00000000000E+00 -0.91915141970E+03  0.91915141970E+03  0.00000000000E+00 0.  1.
         23    2    1    2    0    0  0.56782184032E+03  0.32751506844E+03 -0.72818459820E+03  0.98381697568E+03  0.89192321333E+02 0.  0.
         11    1    3    3    0    0  0.45272873556E+03  0.25670255111E+03 -0.52063367071E+03  0.73615142927E+03  0.00000000000E+00 0. -1.
        -11    1    3    3    0    0  0.11509310475E+03  0.70812517328E+02 -0.20755092750E+03  0.24766554641E+03  0.00000000000E+00 0.  1.
         22    1    1    2    0    0 -0.56782184032E+03 -0.32751506844E+03  0.16378923483E+04  0.17641936138E+04  0.00000000000E+00 0. -1.
<mgrwt>
<rscale>  0 0.25930665E+04</rscale>
<asrwt>0</asrwt>
<pdfrwt beam="1">  1        2 0.28136295E+00 0.25930665E+04</pdfrwt>
<pdfrwt beam="2">  1       -2 0.14140791E+00 0.25930665E+04</pdfrwt>
<totfact> 0.25758856E+00</totfact>
</mgrwt>
</event>
<event>
 6    1  0.1762360E-005  0.2591147E+04  0.7818608E-02  0.8371214E-01
         -2   -1    0    0    0  501 -0.00000000000E+00  0.00000000000E+00  0.13371552089E+04  0.13371552089E+04  0.00000000000E+00 0. -1.
          2   -1    0    0  501    0  0.00000000000E+00 -0.00000000000E+00 -0.12552851349E+04  0.12552851349E+04  0.00000000000E+00 0.  1.
         23    2    1    2    0    0 -0.82623194253E+02  0.12405175272E+04 -0.31758466622E+03  0.12865787825E+04  0.93352106008E+02 0.  0.
         11    1    3    3    0    0 -0.35671750249E+01  0.46801732087E+03 -0.15658033363E+03  0.49352845739E+03  0.00000000000E+00 0. -1.
        -11    1    3    3    0    0 -0.79056019228E+02  0.77250020638E+03 -0.16100433259E+03  0.79305032510E+03  0.00000000000E+00 0.  1.
         22    1    1    2    0    0  0.82623194253E+02 -0.12405175272E+04  0.39945474021E+03  0.13058615612E+04  0.00000000000E+00 0. -1.
<mgrwt>
<rscale>  0 0.25911473E+04</rscale>
<asrwt>0</asrwt>
<pdfrwt beam="1">  1        2 0.19312079E+00 0.25911473E+04</pdfrwt>
<pdfrwt beam="2">  1       -2 0.20571619E+00 0.25911473E+04</pdfrwt>
<totfact> 0.18972392E+00</totfact>
</mgrwt>
</event>
<event>
 6    1  0.1762360E-005  0.4335329E+04  0.7818608E-02  0.7940118E-01
          2   -1    0    0  501    0  0.00000000000E+00  0.00000000000E+00  0.29721275077E+04  0.29721275077E+04  0.00000000000E+00 0. -1.
         -2   -1    0    0    0  501 -0.00000000000E+00 -0.00000000000E+00 -0.15809447689E+04  0.15809447689E+04  0.00000000000E+00 0.  1.
         23    2    1    2    0    0 -0.18450775856E+04 -0.32965195128E+03 -0.44584388537E+03  0.19286392858E+04  0.88831406596E+02 0.  0.
         11    1    3    3    0    0 -0.13524672488E+04 -0.22266585272E+03 -0.36143353874E+03  0.14175266996E+04  0.00000000000E+00 0.  1.
        -11    1    3    3    0    0 -0.49261033677E+03 -0.10698609856E+03 -0.84410346625E+02  0.51111258622E+03  0.00000000000E+00 0. -1.
         22    1    1    2    0    0  0.18450775856E+04  0.32965195128E+03  0.18370266241E+04  0.26244329909E+04  0.00000000000E+00 0.  1.
<mgrwt>
<rscale>  0 0.43353290E+04</rscale>
<asrwt>0</asrwt>
<pdfrwt beam="1">  1        2 0.45725038E+00 0.43353290E+04</pdfrwt>
<pdfrwt beam="2">  1       -2 0.24322227E+00 0.43353290E+04</pdfrwt>
<totfact> 0.98416918E-02</totfact>
</mgrwt>
</event>
<event>
 6    1  0.1762360E-005  0.2386743E+04  0.7818608E-02  0.8444483E-01
         -1   -1    0    0    0  501 -0.00000000000E+00  0.00000000000E+00  0.12468458926E+04  0.12468458926E+04  0.00000000000E+00 0.  1.
          1   -1    0    0  501    0  0.00000000000E+00 -0.00000000000E+00 -0.11421909425E+04  0.11421909425E+04  0.00000000000E+00 0. -1.
         23    2    1    2    0    0 -0.69035665628E+03 -0.80944708617E+03  0.58975752193E+03  0.12197971662E+04  0.91073014007E+02 0.  0.
         11    1    3    3    0    0 -0.11829295979E+03 -0.19609844242E+03  0.12390607565E+03  0.26038536641E+03  0.00000000000E+00 0. -1.
        -11    1    3    3    0    0 -0.57206369649E+03 -0.61334864375E+03  0.46585144628E+03  0.95941179982E+03  0.00000000000E+00 0.  1.
         22    1    1    2    0    0  0.69035665628E+03  0.80944708617E+03 -0.48510257183E+03  0.11692396689E+04  0.00000000000E+00 0. -1.
<mgrwt>
<rscale>  0 0.23867435E+04</rscale>
<asrwt>0</asrwt>
<pdfrwt beam="1">  1        1 0.17572168E+00 0.23867435E+04</pdfrwt>
<pdfrwt beam="2">  1       -1 0.19182244E+00 0.23867435E+04</pdfrwt>
<totfact> 0.18146781E+00</totfact>
</mgrwt>
</event>
<event>
 6    1  0.1762360E-005  0.3542181E+04  0.7818608E-02  0.8103866E-01
         -2   -1    0    0    0  501 -0.00000000000E+00  0.00000000000E+00  0.12754697599E+04  0.12754697599E+04  0.00000000000E+00 0.  1.
          2   -1    0    0  501    0  0.00000000000E+00 -0.00000000000E+00 -0.24592986385E+04  0.24592986385E+04  0.00000000000E+00 0. -1.
         23    2    1    2    0    0  0.62684334607E+03  0.10857513859E+04  0.72490619237E+03  0.14511182011E+04  0.92013006714E+02 0.  0.
         11    1    3    3    0    0  0.36405559270E+03  0.71497146011E+03  0.44753371139E+03  0.91869858288E+03  0.00000000000E+00 0.  1.
        -11    1    3    3    0    0  0.26278775337E+03  0.37077992577E+03  0.27737248098E+03  0.53241961823E+03  0.00000000000E+00 0. -1.
         22    1    1    2    0    0 -0.62684334607E+03 -0.10857513859E+04 -0.19087350710E+04  0.22836501973E+04  0.00000000000E+00 0. -1.
<mgrwt>
<rscale>  0 0.35421807E+04</rscale>
<asrwt>0</asrwt>
<pdfrwt beam="1">  1        2 0.37835363E+00 0.35421807E+04</pdfrwt>
<pdfrwt beam="2">  1       -2 0.19622612E+00 0.35421807E+04</pdfrwt>
<totfact> 0.42386612E-01</totfact>
</mgrwt>
</event>
<event>
 6    1  0.1762360E-005  0.2058925E+04  0.7818608E-02  0.8579556E-01
         -2   -1    0    0    0  501 -0.00000000000E+00  0.00000000000E+00  0.45574023855E+03  0.45574023855E+03  0.00000000000E+00 0.  1.
          2   -1    0    0  501    0  0.00000000000E+00 -0.00000000000E+00 -0.23254319862E+04  0.23254319862E+04  0.00000000000E+00 0. -1.
         23    2    1    2    0    0 -0.64472242661E+03 -0.53692250712E+03 -0.17378145913E+04  0.19318522790E+04  0.90004932655E+02 0.  0.
         13    1    3    3    0    0 -0.30459617907E+03 -0.20053445683E+03 -0.79297206170E+03  0.87281016911E+03  0.00000000000E+00 0. -1.
        -13    1    3    3    0    0 -0.34012624754E+03 -0.33638805029E+03 -0.94484252962E+03  0.10590421098E+04  0.00000000000E+00 0.  1.
         22    1    1    2    0    0  0.64472242661E+03  0.53692250712E+03 -0.13187715638E+03  0.84931994584E+03  0.00000000000E+00 0. -1.
<mgrwt>
<rscale>  0 0.20589249E+04</rscale>
<asrwt>0</asrwt>
<pdfrwt beam="1">  1        2 0.35775877E+00 0.20589249E+04</pdfrwt>
<pdfrwt beam="2">  1       -2 0.70113882E-01 0.20589249E+04</pdfrwt>
<totfact> 0.75113692E+00</totfact>
</mgrwt>
</event>
<event>
 6    1  0.1762360E-005  0.3399599E+04  0.7818608E-02  0.8138005E-01
         -1   -1    0    0    0  501 -0.00000000000E+00  0.00000000000E+00  0.21594955208E+04  0.21594955208E+04  0.00000000000E+00 0.  1.
          1   -1    0    0  501    0  0.00000000000E+00 -0.00000000000E+00 -0.13379595643E+04  0.13379595643E+04  0.00000000000E+00 0. -1.
         23    2    1    2    0    0 -0.97100657579E+03  0.56981413493E+03  0.17195656702E+04  0.20573164511E+04  0.90016484813E+02 0.  0.
         13    1    3    3    0    0 -0.23768840140E+03  0.17368323639E+03  0.40204770203E+03  0.49830111125E+03  0.00000000000E+00 0. -1.
        -13    1    3    3    0    0 -0.73331817439E+03  0.39613089854E+03  0.13175179681E+04  0.15590153399E+04  0.00000000000E+00 0.  1.
         22    1    1    2    0    0  0.97100657579E+03 -0.56981413493E+03 -0.89802971368E+03  0.14401386340E+04  0.00000000000E+00 0. -1.
<mgrwt>
<rscale>  0 0.33995986E+04</rscale>
<asrwt>0</asrwt>
<pdfrwt beam="1">  1        1 0.20583993E+00 0.33995986E+04</pdfrwt>
<pdfrwt beam="2">  1       -1 0.33223008E+00 0.33995986E+04</pdfrwt>
<totfact> 0.14227581E-01</totfact>
</mgrwt>
</event>
<event>
 6    1  0.1762360E-005  0.3872356E+04  0.7818608E-02  0.8030803E-01
          1   -1    0    0  501    0  0.00000000000E+00  0.00000000000E+00  0.36476027839E+04  0.36476027839E+04  0.00000000000E+00 0. -1.
         -1   -1    0    0    0  501 -0.00000000000E+00 -0.00000000000E+00 -0.10277395579E+04  0.10277395579E+04  0.00000000000E+00 0.  1.
         23    2    1    2    0    0  0.13370296180E+04  0.70508597805E+03  0.27694511347E+04  0.31564048914E+04  0.90762410778E+02 0.  0.
         13    1    3    3    0    0  0.93752323653E+03  0.47819096772E+03  0.20078661308E+04  0.22669677589E+04  0.00000000000E+00 0.  1.
        -13    1    3    3    0    0  0.39950638148E+03  0.22689501033E+03  0.76158500394E+03  0.88943713256E+03  0.00000000000E+00 0. -1.
         22    1    1    2    0    0 -0.13370296180E+04 -0.70508597805E+03 -0.14958790872E+03  0.15189374504E+04  0.00000000000E+00 0. -1.
<mgrwt>
<rscale>  0 0.38723562E+04</rscale>
<asrwt>0</asrwt>
<pdfrwt beam="1">  1        1 0.56116965E+00 0.38723562E+04</pdfrwt>
<pdfrwt beam="2">  1       -1 0.15811378E+00 0.38723562E+04</pdfrwt>
<totfact> 0.45391408E-02</totfact>
</mgrwt>
</event>
<event>
 6    1  0.1762360E-005  0.3620525E+04  0.7818608E-02  0.8085806E-01
          2   -1    0    0  501    0  0.00000000000E+00  0.00000000000E+00  0.38368597515E+04  0.38368597515E+04  0.00000000000E+00 0.  1.
         -2   -1    0    0    0  501 -0.00000000000E+00 -0.00000000000E+00 -0.85409676781E+03  0.85409676781E+03  0.00000000000E+00 0. -1.
         23    2    1    2    0    0 -0.23764317764E+03  0.11514444335E+03  0.38114822956E+04  0.38211817090E+04  0.65573172582E+02 0.  0.
         11    1    3    3    0    0 -0.12345202174E+03  0.95197198917E+02  0.22703387930E+04  0.22756847636E+04  0.00000000000E+00 0. -1.
        -11    1    3    3    0    0 -0.11419115590E+03  0.19947244433E+02  0.15411435026E+04  0.15454969454E+04  0.00000000000E+00 0.  1.
         22    1    1    2    0    0  0.23764317764E+03 -0.11514444335E+03 -0.82871931191E+03  0.86977481030E+03  0.00000000000E+00 0. -1.
<mgrwt>
<rscale>  0 0.36205246E+04</rscale>
<asrwt>0</asrwt>
<pdfrwt beam="1">  1        2 0.59028611E+00 0.36205246E+04</pdfrwt>
<pdfrwt beam="2">  1       -2 0.13139950E+00 0.36205246E+04</pdfrwt>
<totfact> 0.15787929E-01</totfact>
</mgrwt>
</event>
<event>
 6    1  0.1762360E-005  0.1090905E+04  0.7818608E-02  0.9214102E-01
          1   -1    0    0  501    0  0.00000000000E+00  0.00000000000E+00  0.11597696709E+04  0.11597696709E+04  0.00000000000E+00 0. -1.
         -1   -1    0    0    0  501 -0.00000000000E+00 -0.00000000000E+00 -0.25653230154E+03  0.25653230154E+03  0.00000000000E+00 0.  1.
         23    2    1    2    0    0  0.28846917893E+03 -0.42622683925E+03  0.67370946755E+03  0.85277127816E+03  0.91927256499E+02 0.  0.
         13    1    3    3    0    0  0.13756107864E+03 -0.22601119154E+03  0.27365994426E+03  0.38064927972E+03  0.00000000000E+00 0. -1.
        -13    1    3    3    0    0  0.15090810030E+03 -0.20021564771E+03  0.40004952329E+03  0.47212199844E+03  0.00000000000E+00 0.  1.
         22    1    1    2    0    0 -0.28846917893E+03  0.42622683925E+03  0.22952790181E+03  0.56353069429E+03  0.00000000000E+00 0. -1.
<mgrwt>
<rscale>  0 0.10909049E+04</rscale>
<asrwt>0</asrwt>
<pdfrwt beam="1">  1        1 0.17842610E+00 0.10909049E+04</pdfrwt>
<pdfrwt beam="2">  1       -1 0.39466509E-01 0.10909049E+04</pdfrwt>
<totfact> 0.71151941E+01</totfact>
</mgrwt>
</event>
<event>
 6    1  0.1762360E-005  0.3746185E+04  0.7818608E-02  0.8057803E-01
         -3   -1    0    0    0  501 -0.00000000000E+00  0.00000000000E+00  0.22854434141E+04  0.22854434141E+04  0.00000000000E+00 0.  1.
          3   -1    0    0  501    0  0.00000000000E+00 -0.00000000000E+00 -0.15351399719E+04  0.15351399719E+04  0.00000000000E+00 0. -1.
         23    2    1    2    0    0 -0.13847669093E+04  0.78408238802E+03  0.13803000603E+04  0.21090751847E+04  0.10298200898E+03 0.  0.
         13    1    3    3    0    0 -0.67313603629E+03  0.35364637470E+03  0.71956703154E+03  0.10468785004E+04  0.00000000000E+00 0.  1.
        -13    1    3    3    0    0 -0.71163087300E+03  0.43043601332E+03  0.66073302876E+03  0.10621966844E+04  0.00000000000E+00 0. -1.
         22    1    1    2    0    0  0.13847669093E+04 -0.78408238802E+03 -0.62999661802E+03  0.17115082013E+04  0.00000000000E+00 0. -1.
<mgrwt>
<rscale>  0 0.37461850E+04</rscale>
<asrwt>0</asrwt>
<pdfrwt beam="1">  1        3 0.23617538E+00 0.37461850E+04</pdfrwt>
<pdfrwt beam="2">  1       -3 0.35160668E+00 0.37461850E+04</pdfrwt>
<totfact> 0.36172086E-03</totfact>
</mgrwt>
</event>
<event>
 6    1  0.1762360E-005  0.4830015E+03  0.7818608E-02  0.1018314E+00
         -4   -1    0    0    0  501 -0.00000000000E+00  0.00000000000E+00  0.29011817160E+03  0.29011817160E+03  0.00000000000E+00 0.  1.
          4   -1    0    0  501    0  0.00000000000E+00 -0.00000000000E+00 -0.20103054966E+03  0.20103054966E+03  0.00000000000E+00 0. -1.
         23    2    1    2    0    0 -0.15590668672E+03 -0.76932992417E+02  0.20405276469E+03  0.28271992207E+03  0.89818947166E+02 0.  0.
         11    1    3    3    0    0  0.28766483840E+01  0.92903554015E+01 -0.56941232617E+00  0.97421783913E+01  0.00000000000E+00 0. -1.
        -11    1    3    3    0    0 -0.15878333510E+03 -0.86223347819E+02  0.20462217702E+03  0.27297774367E+03  0.00000000000E+00 0.  1.
         22    1    1    2    0    0  0.15590668672E+03  0.76932992417E+02 -0.11496514275E+03  0.20842879919E+03  0.00000000000E+00 0.  1.
<mgrwt>
<rscale>  0 0.48300151E+03</rscale>
<asrwt>0</asrwt>
<pdfrwt beam="1">  1        4 0.30927777E-01 0.48300151E+03</pdfrwt>
<pdfrwt beam="2">  1       -4 0.44633565E-01 0.48300151E+03</pdfrwt>
<totfact> 0.95998065E+01</totfact>
</mgrwt>
</event>
<event>
 6    1  0.1762360E-005  0.2295980E+04  0.7818608E-02  0.8479508E-01
          1   -1    0    0  501    0  0.00000000000E+00  0.00000000000E+00  0.21063287331E+04  0.21063287331E+04  0.00000000000E+00 0. -1.
         -1   -1    0    0    0  501 -0.00000000000E+00 -0.00000000000E+00 -0.62567655519E+03  0.62567655519E+03  0.00000000000E+00 0.  1.
         23    2    1    2    0    0  0.11185656820E+04 -0.11807493451E+03  0.47910289741E+03  0.12259402710E+04  0.90879517873E+02 0.  0.
         13    1    3    3    0    0  0.46324829134E+03 -0.67577606085E+02  0.24380060824E+03  0.52782994311E+03  0.00000000000E+00 0. -1.
        -13    1    3    3    0    0  0.65531739061E+03 -0.50497328428E+02  0.23530228917E+03  0.69811032789E+03  0.00000000000E+00 0.  1.
         22    1    1    2    0    0 -0.11185656820E+04  0.11807493451E+03  0.10015492805E+04  0.15060650173E+04  0.00000000000E+00 0.  1.
<mgrwt>
<rscale>  0 0.22959795E+04</rscale>
<asrwt>0</asrwt>
<pdfrwt beam="1">  1        1 0.32405057E+00 0.22959795E+04</pdfrwt>
<pdfrwt beam="2">  1       -1 0.96257933E-01 0.22959795E+04</pdfrwt>
<totfact> 0.23711638E+00</totfact>
</mgrwt>
</event>
<event>
 6    1  0.1762360E-005  0.5750276E+03  0.7818608E-02  0.9958615E-01
          1   -1    0    0  501    0  0.00000000000E+00  0.00000000000E+00  0.25600014642E+03  0.25600014642E+03  0.00000000000E+00 0. -1.
         -1   -1    0    0    0  501 -0.00000000000E+00 -0.00000000000E+00 -0.32290673707E+03  0.32290673707E+03  0.00000000000E+00 0.  1.
         23    2    1    2    0    0  0.21665129715E+03  0.16470674196E+03  0.34319781317E+02  0.28854009168E+03  0.89506657361E+02 0.  0.
         11    1    3    3    0    0  0.42046496195E+02  0.20687587221E+02 -0.26949612896E+02  0.54057060062E+02  0.00000000000E+00 0.  1.
        -11    1    3    3    0    0  0.17460480095E+03  0.14401915474E+03  0.61269394214E+02  0.23448303161E+03  0.00000000000E+00 0. -1.
         22    1    1    2    0    0 -0.21665129715E+03 -0.16470674196E+03 -0.10122637197E+03  0.29036679181E+03  0.00000000000E+00 0.  1.
<mgrwt>
<rscale>  0 0.57502755E+03</rscale>
<asrwt>0</asrwt>
<pdfrwt beam="1">  1        1 0.39384638E-01 0.57502755E+03</pdfrwt>
<pdfrwt beam="2">  1       -1 0.49677960E-01 0.57502755E+03</pdfrwt>
<totfact> 0.44352434E+02</totfact>
</mgrwt>
</event>
<event>
 6    1  0.1762360E-005  0.1173516E+04  0.7818608E-02  0.9136359E-01
          1   -1    0    0  501    0  0.00000000000E+00  0.00000000000E+00  0.13341389888E+04  0.13341389888E+04  0.00000000000E+00 0.  1.
         -1   -1    0    0    0  501 -0.00000000000E+00 -0.00000000000E+00 -0.25805788564E+03  0.25805788564E+03  0.00000000000E+00 0. -1.
         23    2    1    2    0    0  0.43723440340E+01  0.46739328083E+03  0.67880456130E+02  0.48091646833E+03  0.90538924384E+02 0.  0.
         11    1    3    3    0    0  0.16823141334E+02  0.11869588742E+03 -0.18910718639E+02  0.12136452140E+03  0.00000000000E+00 0. -1.
        -11    1    3    3    0    0 -0.12450797300E+02  0.34869739341E+03  0.86791174769E+02  0.35955194693E+03  0.00000000000E+00 0.  1.
         22    1    1    2    0    0 -0.43723440340E+01 -0.46739328083E+03  0.10082006471E+04  0.11112804062E+04  0.00000000000E+00 0.  1.
<mgrwt>
<rscale>  0 0.11735162E+04</rscale>
<asrwt>0</asrwt>
<pdfrwt beam="1">  1        1 0.20525215E+00 0.11735162E+04</pdfrwt>
<pdfrwt beam="2">  1       -1 0.39701214E-01 0.11735162E+04</pdfrwt>
<totfact> 0.52342352E+01</totfact>
</mgrwt>
</event>
<event>
 6    1  0.1762360E-005  0.1402388E+04  0.7818608E-02  0.8952092E-01
          1   -1    0    0  501    0  0.00000000000E+00  0.00000000000E+00  0.78653004810E+03  0.78653004810E+03  0.00000000000E+00 0. -1.
         -1   -1    0    0    0  501 -0.00000000000E+00 -0.00000000000E+00 -0.62511620028E+03  0.62511620028E+03  0.00000000000E+00 0.  1.
         23    2    1    2    0    0  0.43331156071E+03  0.39999590504E+03  0.45744072431E+03  0.75180721930E+03  0.90589436718E+02 0.  0.
         11    1    3    3    0    0  0.28088676040E+03  0.28693461822E+03  0.35597108508E+03  0.53660438008E+03  0.00000000000E+00 0. -1.
        -11    1    3    3    0    0  0.15242480031E+03  0.11306128682E+03  0.10146963923E+03  0.21520283923E+03  0.00000000000E+00 0.  1.
         22    1    1    2    0    0 -0.43331156071E+03 -0.39999590504E+03 -0.29602687649E+03  0.65983902908E+03  0.00000000000E+00 0.  1.
<mgrwt>
<rscale>  0 0.14023875E+04</rscale>
<asrwt>0</asrwt>
<pdfrwt beam="1">  1        1 0.12100462E+00 0.14023875E+04</pdfrwt>
<pdfrwt beam="2">  1       -1 0.96171724E-01 0.14023875E+04</pdfrwt>
<totfact> 0.23079374E+01</totfact>
</mgrwt>
</event>
<event>
 6    1  0.1762360E-005  0.7237622E+03  0.7818608E-02  0.9677437E-01
         -1   -1    0    0    0  501 -0.00000000000E+00  0.00000000000E+00  0.73675942150E+02  0.73675942150E+02  0.00000000000E+00 0.  1.
          1   -1    0    0  501    0  0.00000000000E+00 -0.00000000000E+00 -0.17774858224E+04  0.17774858224E+04  0.00000000000E+00 0. -1.
         23    2    1    2    0    0  0.21975025708E+03 -0.13493660887E+03 -0.14936462069E+04  0.15184955151E+04  0.91386947708E+02 0.  0.
         13    1    3    3    0    0  0.45117641766E+02  0.73452191824E+01 -0.34046349478E+03  0.34351847857E+03  0.00000000000E+00 0. -1.
        -13    1    3    3    0    0  0.17463261532E+03 -0.14228182805E+03 -0.11531827121E+04  0.11749770366E+04  0.00000000000E+00 0.  1.
         22    1    1    2    0    0 -0.21975025708E+03  0.13493660887E+03 -0.21016367336E+03  0.33266624942E+03  0.00000000000E+00 0. -1.
<mgrwt>
<rscale>  0 0.72376223E+03</rscale>
<asrwt>0</asrwt>
<pdfrwt beam="1">  1        1 0.27345933E+00 0.72376223E+03</pdfrwt>
<pdfrwt beam="2">  1       -1 0.11334762E-01 0.72376223E+03</pdfrwt>
<totfact> 0.22386876E+02</totfact>
</mgrwt>
</event>
<event>
 6    1  0.1762360E-005  0.1009100E+04  0.7818608E-02  0.9298620E-01
         -2   -1    0    0    0  501 -0.00000000000E+00  0.00000000000E+00  0.13572894491E+03  0.13572894491E+03  0.00000000000E+00 0.  1.
          2   -1    0    0  501    0  0.00000000000E+00 -0.00000000000E+00 -0.18755809706E+04  0.18755809706E+04  0.00000000000E+00 0. -1.
         23    2    1    2    0    0  0.48773760520E+03  0.75163975655E+02 -0.10428787965E+04  0.11573138517E+04  0.90783106525E+02 0.  0.
         13    1    3    3    0    0  0.31840105635E+03  0.60405694434E+02 -0.77532778965E+03  0.84033401812E+03  0.00000000000E+00 0. -1.
        -13    1    3    3    0    0  0.16933654886E+03  0.14758281221E+02 -0.26755100681E+03  0.31697983357E+03  0.00000000000E+00 0.  1.
         22    1    1    2    0    0 -0.48773760520E+03 -0.75163975655E+02 -0.69697322920E+03  0.85399606380E+03  0.00000000000E+00 0.  1.
<mgrwt>
<rscale>  0 0.10090998E+04</rscale>
<asrwt>0</asrwt>
<pdfrwt beam="1">  1        2 0.28855089E+00 0.10090998E+04</pdfrwt>
<pdfrwt beam="2">  1       -2 0.20881378E-01 0.10090998E+04</pdfrwt>
<totfact> 0.15517823E+02</totfact>
</mgrwt>
</event>
<event>
 6    1  0.1762360E-005  0.1132461E+04  0.7818608E-02  0.9174118E-01
          1   -1    0    0  501    0  0.00000000000E+00  0.00000000000E+00  0.14206188905E+04  0.14206188905E+04  0.00000000000E+00 0. -1.
         -1   -1    0    0    0  501 -0.00000000000E+00 -0.00000000000E+00 -0.22568843738E+03  0.22568843738E+03  0.00000000000E+00 0.  1.
         23    2    1    2    0    0  0.50627274989E+03 -0.24499686227E+03  0.58648520958E+03  0.81772952574E+03  0.91548437460E+02 0.  0.
         11    1    3    3    0    0  0.36233276643E+03 -0.15306414989E+03  0.45976502299E+03  0.60505995073E+03  0.00000000000E+00 0. -1.
        -11    1    3    3    0    0  0.14393998346E+03 -0.91932712389E+02  0.12672018659E+03  0.21266957501E+03  0.00000000000E+00 0.  1.
         22    1    1    2    0    0 -0.50627274989E+03  0.24499686227E+03  0.60844524350E+03  0.82857780210E+03  0.00000000000E+00 0. -1.
<mgrwt>
<rscale>  0 0.11324615E+04</rscale>
<asrwt>0</asrwt>
<pdfrwt beam="1">  1        1 0.21855675E+00 0.11324615E+04</pdfrwt>
<pdfrwt beam="2">  1       -1 0.34721299E-01 0.11324615E+04</pdfrwt>
<totfact> 0.58139884E+01</totfact>
</mgrwt>
</event>
<event>
 6    1  0.1762360E-005  0.1672341E+04  0.7818608E-02  0.8777298E-01
          2   -1    0    0  501    0  0.00000000000E+00  0.00000000000E+00  0.13105751041E+04  0.13105751041E+04  0.00000000000E+00 0. -1.
         -2   -1    0    0    0  501 -0.00000000000E+00 -0.00000000000E+00 -0.53349208741E+03  0.53349208741E+03  0.00000000000E+00 0.  1.
         23    2    1    2    0    0 -0.50676488250E+02 -0.65318344270E+03  0.95808742922E+03  0.11643765901E+04  0.92868753272E+02 0.  0.
         13    1    3    3    0    0 -0.20092365103E-02 -0.33317421394E+03  0.55360529618E+03  0.64612992564E+03  0.00000000000E+00 0. -1.
        -13    1    3    3    0    0 -0.50674479013E+02 -0.32000922875E+03  0.40448213304E+03  0.51824666449E+03  0.00000000000E+00 0.  1.
         22    1    1    2    0    0  0.50676488250E+02  0.65318344270E+03 -0.18100441252E+03  0.67969060140E+03  0.00000000000E+00 0.  1.
<mgrwt>
<rscale>  0 0.16723414E+04</rscale>
<asrwt>0</asrwt>
<pdfrwt beam="1">  1        2 0.20162694E+00 0.16723414E+04</pdfrwt>
<pdfrwt beam="2">  1       -2 0.82075706E-01 0.16723414E+04</pdfrwt>
<totfact> 0.20278384E+01</totfact>
</mgrwt>
</event>
<event>
 6    1  0.1762360E-005  0.2183501E+04  0.7818608E-02  0.8525327E-01
          1   -1    0    0  501    0  0.00000000000E+00  0.00000000000E+00  0.19778519170E+04  0.19778519170E+04  0.00000000000E+00 0. -1.
         -1   -1    0    0    0  501 -0.00000000000E+00 -0.00000000000E+00 -0.60263336991E+03  0.60263336991E+03  0.00000000000E+00 0.  1.
         23    2    1    2    0    0 -0.27748698274E+03  0.82666354079E+03  0.14613562731E+04  0.17042482510E+04  0.92348843008E+02 0.  0.
         13    1    3    3    0    0 -0.24437014928E+03  0.64405013291E+03  0.10970118758E+04  0.12953580197E+04  0.00000000000E+00 0. -1.
        -13    1    3    3    0    0 -0.33116833466E+02  0.18261340787E+03  0.36434439734E+03  0.40889023132E+03  0.00000000000E+00 0.  1.
         22    1    1    2    0    0  0.27748698274E+03 -0.82666354079E+03 -0.86137726024E+02  0.87623703591E+03  0.00000000000E+00 0.  1.
<mgrwt>
<rscale>  0 0.21835014E+04</rscale>
<asrwt>0</asrwt>
<pdfrwt beam="1">  1        1 0.30428491E+00 0.21835014E+04</pdfrwt>
<pdfrwt beam="2">  1       -1 0.92712827E-01 0.21835014E+04</pdfrwt>
<totfact> 0.31846996E+00</totfact>
</mgrwt>
</event>
<event>
 6    1  0.1762360E-005  0.4710478E+03  0.7818608E-02  0.1021625E+00
         -1   -1    0    0    0  501 -0.00000000000E+00  0.00000000000E+00  0.42275877355E+02  0.42275877355E+02  0.00000000000E+00 0.  1.
          1   -1    0    0  501    0  0.00000000000E+00 -0.00000000000E+00 -0.13121315334E+04  0.13121315334E+04  0.00000000000E+00 0. -1.
         23    2    1    2    0    0 -0.40067890491E+02  0.20456923536E+03 -0.91360179234E+03  0.94164740384E+03  0.92615281027E+02 0.  0.
         13    1    3    3    0    0 -0.39819942594E+02  0.19234655000E+03 -0.68199684494E+03  0.70972002905E+03  0.00000000000E+00 0. -1.
        -13    1    3    3    0    0 -0.24794789715E+00  0.12222685364E+02 -0.23160494741E+03  0.23192737480E+03  0.00000000000E+00 0.  1.
         22    1    1    2    0    0  0.40067890491E+02 -0.20456923536E+03 -0.35625386369E+03  0.41276000691E+03  0.00000000000E+00 0.  1.
<mgrwt>
<rscale>  0 0.47104782E+03</rscale>
<asrwt>0</asrwt>
<pdfrwt beam="1">  1        1 0.20186642E+00 0.47104782E+03</pdfrwt>
<pdfrwt beam="2">  1       -1 0.65039803E-02 0.47104782E+03</pdfrwt>
<totfact> 0.11230114E+03</totfact>
</mgrwt>
</event>
<event>
 6    1  0.1762360E-005  0.2443695E+04  0.7818608E-02  0.8423324E-01
          1   -1    0    0  501    0  0.00000000000E+00  0.00000000000E+00  0.81719830589E+03  0.81719830589E+03  0.00000000000E+00 0. -1.
         -1   -1    0    0    0  501 -0.00000000000E+00 -0.00000000000E+00 -0.18268657943E+04  0.18268657943E+04  0.00000000000E+00 0.  1.
         23    2    1    2    0    0  0.12017443592E+04  0.48336888463E+02 -0.28332222864E+03  0.12390362015E+04  0.91723845204E+02 0.  0.
         13    1    3    3    0    0  0.34311698517E+03 -0.24250294384E+02 -0.97714377438E+02  0.35758277622E+03  0.00000000000E+00 0.  1.
        -13    1    3    3    0    0  0.85862737404E+03  0.72587182847E+02 -0.18560785120E+03  0.88145342531E+03  0.00000000000E+00 0. -1.
         22    1    1    2    0    0 -0.12017443592E+04 -0.48336888463E+02 -0.72634525982E+03  0.14050278987E+04  0.00000000000E+00 0.  1.
<mgrwt>
<rscale>  0 0.24436953E+04</rscale>
<asrwt>0</asrwt>
<pdfrwt beam="1">  1        1 0.12572282E+00 0.24436953E+04</pdfrwt>
<pdfrwt beam="2">  1       -1 0.28105627E+00 0.24436953E+04</pdfrwt>
<totfact> 0.83556295E-01</totfact>
</mgrwt>
</event>
<event>
 6    1  0.1762360E-005  0.1182063E+04  0.7818608E-02  0.9128704E-01
          1   -1    0    0  501    0  0.00000000000E+00  0.00000000000E+00  0.10203265545E+04  0.10203265545E+04  0.00000000000E+00 0. -1.
         -1   -1    0    0    0  501 -0.00000000000E+00 -0.00000000000E+00 -0.34235904712E+03  0.34235904712E+03  0.00000000000E+00 0.  1.
         23    2    1    2    0    0  0.82757927296E+02  0.52557668294E+03  0.53509490610E+02  0.54230304518E+03  0.90275151882E+02 0.  0.
         13    1    3    3    0    0 -0.12008260967E+02  0.20526810493E+03  0.21448386291E+02  0.20673467660E+03  0.00000000000E+00 0. -1.
        -13    1    3    3    0    0  0.94766188262E+02  0.32030857801E+03  0.32061104319E+02  0.33556836858E+03  0.00000000000E+00 0.  1.
         22    1    1    2    0    0 -0.82757927296E+02 -0.52557668294E+03  0.62445801675E+03  0.82038255641E+03  0.00000000000E+00 0.  1.
<mgrwt>
<rscale>  0 0.11820626E+04</rscale>
<asrwt>0</asrwt>
<pdfrwt beam="1">  1        1 0.15697331E+00 0.11820626E+04</pdfrwt>
<pdfrwt beam="2">  1       -1 0.52670623E-01 0.11820626E+04</pdfrwt>
<totfact> 0.52509836E+01</totfact>
</mgrwt>
</event>
<event>
 6    1  0.1762360E-005  0.8800031E+03  0.7818608E-02  0.9450930E-01
          2   -1    0    0  501    0  0.00000000000E+00  0.00000000000E+00  0.56190828793E+03  0.56190828793E+03  0.00000000000E+00 0. -1.
         -2   -1    0    0    0  501 -0.00000000000E+00 -0.00000000000E+00 -0.34454266500E+03  0.34454266500E+03  0.00000000000E+00 0.  1.
         23    2    1    2    0    0  0.41000385311E+03  0.24823436579E+02 -0.36638558764E+02  0.42350428208E+03  0.96406070265E+02 0.  0.
         13    1    3    3    0    0  0.35700658473E+03 -0.10224565115E+02 -0.19448935453E+02  0.35768212754E+03  0.00000000000E+00 0.  1.
        -13    1    3    3    0    0  0.52997268377E+02  0.35048001695E+02 -0.17189623311E+02  0.65822154536E+02  0.00000000000E+00 0. -1.
         22    1    1    2    0    0 -0.41000385311E+03 -0.24823436579E+02  0.25400418170E+03  0.48294667085E+03  0.00000000000E+00 0. -1.
<mgrwt>
<rscale>  0 0.88000313E+03</rscale>
<asrwt>0</asrwt>
<pdfrwt beam="1">  1        2 0.86447429E-01 0.88000313E+03</pdfrwt>
<pdfrwt beam="2">  1       -2 0.53006564E-01 0.88000313E+03</pdfrwt>
<totfact> 0.18091571E+02</totfact>
</mgrwt>
</event>
<event>
 6    1  0.1762360E-005  0.1146521E+04  0.7818608E-02  0.9160999E-01
          1   -1    0    0  501    0  0.00000000000E+00  0.00000000000E+00  0.15328623182E+03  0.15328623182E+03  0.00000000000E+00 0. -1.
         -1   -1    0    0    0  501 -0.00000000000E+00 -0.00000000000E+00 -0.21438824311E+04  0.21438824311E+04  0.00000000000E+00 0.  1.
         23    2    1    2    0    0 -0.34538496179E+03  0.15299301017E+03 -0.18562065454E+04  0.18962220180E+04  0.86357219748E+02 0.  0.
         13    1    3    3    0    0 -0.25524376559E+03  0.13496859619E+03 -0.15439475048E+04  0.15707131500E+04  0.00000000000E+00 0. -1.
        -13    1    3    3    0    0 -0.90141196193E+02  0.18024413986E+02 -0.31225904054E+03  0.32550886801E+03  0.00000000000E+00 0.  1.
         22    1    1    2    0    0  0.34538496179E+03 -0.15299301017E+03 -0.13438965387E+03  0.40094664490E+03  0.00000000000E+00 0. -1.
<mgrwt>
<rscale>  0 0.11465211E+04</rscale>
<asrwt>0</asrwt>
<pdfrwt beam="1">  1        1 0.23582499E-01 0.11465211E+04</pdfrwt>
<pdfrwt beam="2">  1       -1 0.32982805E+00 0.11465211E+04</pdfrwt>
<totfact> 0.44719455E+00</totfact>
</mgrwt>
</event>
<event>
 6    1  0.1762360E-005  0.2554089E+04  0.7818608E-02  0.8383965E-01
         -2   -1    0    0    0  501 -0.00000000000E+00  0.00000000000E+00  0.16442900431E+04  0.16442900431E+04  0.00000000000E+00 0.  1.
          2   -1    0    0  501    0  0.00000000000E+00 -0.00000000000E+00 -0.99182202817E+03  0.99182202817E+03  0.00000000000E+00 0. -1.
         23    2    1    2    0    0  0.65385408748E+03  0.53410601729E+03 -0.66006140385E+03  0.10754942832E+04  0.90622794170E+02 0.  0.
         11    1    3    3    0    0  0.32627897345E+03  0.23641781321E+03 -0.36380014295E+03  0.54286452723E+03  0.00000000000E+00 0. -1.
        -11    1    3    3    0    0  0.32757511403E+03  0.29768820408E+03 -0.29626126090E+03  0.53262975592E+03  0.00000000000E+00 0.  1.
         22    1    1    2    0    0 -0.65385408748E+03 -0.53410601729E+03  0.13125294188E+04  0.15606177881E+04  0.00000000000E+00 0.  1.
<mgrwt>
<rscale>  0 0.25540893E+04</rscale>
<asrwt>0</asrwt>
<pdfrwt beam="1">  1        2 0.15258800E+00 0.25540893E+04</pdfrwt>
<pdfrwt beam="2">  1       -2 0.25296770E+00 0.25540893E+04</pdfrwt>
<totfact> 0.13947801E+00</totfact>
</mgrwt>
</event>
<event>
 6    1  0.1762360E-005  0.2981574E+04  0.7818608E-02  0.8249012E-01
         -1   -1    0    0    0  501 -0.00000000000E+00  0.00000000000E+00  0.19401196889E+04  0.19401196889E+04  0.00000000000E+00 0. -1.
          1   -1    0    0  501    0  0.00000000000E+00 -0.00000000000E+00 -0.11455201457E+04  0.11455201457E+04  0.00000000000E+00 0.  1.
         23    2    1    2    0    0 -0.62187702145E+03  0.10511970775E+03 -0.99856366534E+03  0.11847938453E+04  0.93946150991E+02 0.  0.
         11    1    3    3    0    0 -0.26997535227E+02  0.41929001640E+01 -0.90569464747E+02  0.94600609219E+02  0.00000000000E+00 0.  1.
        -11    1    3    3    0    0 -0.59487948623E+03  0.10092680759E+03 -0.90799420059E+03  0.10901932360E+04  0.00000000000E+00 0. -1.
         22    1    1    2    0    0  0.62187702145E+03 -0.10511970775E+03  0.17931632085E+04  0.19008459893E+04  0.00000000000E+00 0. -1.
<mgrwt>
<rscale>  0 0.29815742E+04</rscale>
<asrwt>0</asrwt>
<pdfrwt beam="1">  1        1 0.17623387E+00 0.29815742E+04</pdfrwt>
<pdfrwt beam="2">  1       -1 0.29847995E+00 0.29815742E+04</pdfrwt>
<totfact> 0.33751097E-01</totfact>
</mgrwt>
</event>
<event>
 6    1  0.1762360E-005  0.2815491E+04  0.7818608E-02  0.8298475E-01
          1   -1    0    0  501    0  0.00000000000E+00  0.00000000000E+00  0.13643223194E+04  0.13643223194E+04  0.00000000000E+00 0. -1.
         -1   -1    0    0    0  501 -0.00000000000E+00 -0.00000000000E+00 -0.14525506645E+04  0.14525506645E+04  0.00000000000E+00 0.  1.
         23    2    1    2    0    0  0.98089713885E+03 -0.35052067316E+03 -0.98943521155E+03  0.14394849647E+04  0.90061015072E+02 0.  0.
         13    1    3    3    0    0  0.31840895580E+03 -0.15850250228E+03 -0.34597295489E+03  0.49619007636E+03  0.00000000000E+00 0. -1.
        -13    1    3    3    0    0  0.66248818305E+03 -0.19201817087E+03 -0.64346225665E+03  0.94329488834E+03  0.00000000000E+00 0.  1.
         22    1    1    2    0    0 -0.98089713885E+03  0.35052067316E+03  0.90120686641E+03  0.13773880192E+04  0.00000000000E+00 0. -1.
<mgrwt>
<rscale>  0 0.28154909E+04</rscale>
<asrwt>0</asrwt>
<pdfrwt beam="1">  1        1 0.20989574E+00 0.28154909E+04</pdfrwt>
<pdfrwt beam="2">  1       -1 0.22346933E+00 0.28154909E+04</pdfrwt>
<totfact> 0.73430713E-01</totfact>
</mgrwt>
</event>
<event>
 6    1  0.1762360E-005  0.3262005E+04  0.7818608E-02  0.8172631E-01
          2   -1    0    0  501    0  0.00000000000E+00  0.00000000000E+00  0.23871263949E+04  0.23871263949E+04  0.00000000000E+00 0. -1.
         -2   -1    0    0    0  501 -0.00000000000E+00 -0.00000000000E+00 -0.11143815407E+04  0.11143815407E+04  0.00000000000E+00 0.  1.
         23    2    1    2    0    0  0.40678517956E+03  0.13002460693E+04 -0.32338157834E+03  0.14030004632E+04  0.87867123729E+02 0.  0.
         11    1    3    3    0    0  0.30908960052E+03  0.10469873928E+04 -0.22747325097E+03  0.11151067490E+04  0.00000000000E+00 0. -1.
        -11    1    3    3    0    0  0.97695579047E+02  0.25325867652E+03 -0.95908327371E+02  0.28789371417E+03  0.00000000000E+00 0.  1.
         22    1    1    2    0    0 -0.40678517956E+03 -0.13002460693E+04  0.15961264325E+04  0.20985074724E+04  0.00000000000E+00 0. -1.
<mgrwt>
<rscale>  0 0.32620053E+04</rscale>
<asrwt>0</asrwt>
<pdfrwt beam="1">  1        2 0.36725021E+00 0.32620053E+04</pdfrwt>
<pdfrwt beam="2">  1       -2 0.17144332E+00 0.32620053E+04</pdfrwt>
<totfact> 0.70512273E-01</totfact>
</mgrwt>
</event>
<event>
 6    1  0.1762360E-005  0.1662873E+04  0.7818608E-02  0.8782827E-01
          2   -1    0    0  501    0  0.00000000000E+00  0.00000000000E+00  0.14915967624E+04  0.14915967624E+04  0.00000000000E+00 0. -1.
         -2   -1    0    0    0  501 -0.00000000000E+00 -0.00000000000E+00 -0.46345406442E+03  0.46345406442E+03  0.00000000000E+00 0.  1.
         23    2    1    2    0    0  0.39806260068E+03 -0.41385312796E+03  0.12184965181E+04  0.13501022154E+04  0.91181038240E+02 0.  0.
         11    1    3    3    0    0  0.95526386747E+02 -0.49878214752E+02  0.20805851643E+03  0.23431063384E+03  0.00000000000E+00 0. -1.
        -11    1    3    3    0    0  0.30253621393E+03 -0.36397491320E+03  0.10104380017E+04  0.11157915816E+04  0.00000000000E+00 0.  1.
         22    1    1    2    0    0 -0.39806260068E+03  0.41385312796E+03 -0.19035382019E+03  0.60494861140E+03  0.00000000000E+00 0.  1.
<mgrwt>
<rscale>  0 0.16628729E+04</rscale>
<asrwt>0</asrwt>
<pdfrwt beam="1">  1        2 0.22947642E+00 0.16628729E+04</pdfrwt>
<pdfrwt beam="2">  1       -2 0.71300626E-01 0.16628729E+04</pdfrwt>
<totfact> 0.21865049E+01</totfact>
</mgrwt>
</event>
<event>
 6    1  0.1762360E-005  0.3698596E+04  0.7818608E-02  0.8068273E-01
          2   -1    0    0  501    0  0.00000000000E+00  0.00000000000E+00  0.40477897820E+04  0.40477897820E+04  0.00000000000E+00 0. -1.
         -2   -1    0    0    0  501 -0.00000000000E+00 -0.00000000000E+00 -0.84488162108E+03  0.84488162108E+03  0.00000000000E+00 0.  1.
         23    2    1    2    0    0  0.13238596049E+04 -0.11099016468E+04  0.73383901138E+03  0.18792367540E+04  0.92331813817E+02 0.  0.
         11    1    3    3    0    0  0.40683540726E+03 -0.31380607560E+03  0.17866457402E+03  0.54397640730E+03  0.00000000000E+00 0.  1.
        -11    1    3    3    0    0  0.91702419768E+03 -0.79609557117E+03  0.55517443736E+03  0.13352603467E+04  0.00000000000E+00 0. -1.
         22    1    1    2    0    0 -0.13238596049E+04  0.11099016468E+04  0.24690691496E+04  0.30134346491E+04  0.00000000000E+00 0. -1.
<mgrwt>
<rscale>  0 0.36985961E+04</rscale>
<asrwt>0</asrwt>
<pdfrwt beam="1">  1        2 0.62273688E+00 0.36985961E+04</pdfrwt>
<pdfrwt beam="2">  1       -2 0.12998179E+00 0.36985961E+04</pdfrwt>
<totfact> 0.10947564E-01</totfact>
</mgrwt>
</event>
<event>
 6    1  0.1762360E-005  0.2067328E+04  0.7818608E-02  0.8575774E-01
         -1   -1    0    0    0  501 -0.00000000000E+00  0.00000000000E+00  0.24496979742E+04  0.24496979742E+04  0.00000000000E+00 0.  1.
          1   -1    0    0  501    0  0.00000000000E+00 -0.00000000000E+00 -0.43616037657E+03  0.43616037657E+03  0.00000000000E+00 0. -1.
         23    2    1    2    0    0 -0.54490151229E+03 -0.68515979188E+03  0.17706709593E+04  0.19773729065E+04  0.91467844883E+02 0.  0.
         11    1    3    3    0    0 -0.39002341291E+03 -0.44579759711E+03  0.11201049092E+04  0.12670788325E+04  0.00000000000E+00 0. -1.
        -11    1    3    3    0    0 -0.15487809938E+03 -0.23936219477E+03  0.65056605010E+03  0.71029407396E+03  0.00000000000E+00 0.  1.
         22    1    1    2    0    0  0.54490151229E+03  0.68515979188E+03  0.24286663834E+03  0.90848544431E+03  0.00000000000E+00 0. -1.
<mgrwt>
<rscale>  0 0.20673279E+04</rscale>
<asrwt>0</asrwt>
<pdfrwt beam="1">  1        1 0.67101598E-01 0.20673279E+04</pdfrwt>
<pdfrwt beam="2">  1       -1 0.37687660E+00 0.20673279E+04</pdfrwt>
<totfact> 0.50677780E-01</totfact>
</mgrwt>
</event>
<event>
 6    1  0.1762360E-005  0.2420821E+04  0.7818608E-02  0.8431749E-01
         -1   -1    0    0    0  501 -0.00000000000E+00  0.00000000000E+00  0.65627822542E+03  0.65627822542E+03  0.00000000000E+00 0. -1.
          1   -1    0    0  501    0  0.00000000000E+00 -0.00000000000E+00 -0.22324279315E+04  0.22324279315E+04  0.00000000000E+00 0.  1.
         23    2    1    2    0    0  0.77473351774E+03  0.64888137876E+03 -0.15801530449E+04  0.18781245947E+04  0.95964998263E+02 0.  0.
         11    1    3    3    0    0  0.34949040752E+03  0.34756335645E+03 -0.81078503152E+03  0.94884993494E+03  0.00000000000E+00 0.  1.
        -11    1    3    3    0    0  0.42524311022E+03  0.30131802232E+03 -0.76936801333E+03  0.92927465978E+03  0.00000000000E+00 0. -1.
         22    1    1    2    0    0 -0.77473351774E+03 -0.64888137876E+03  0.40033387417E+01  0.10105815622E+04  0.00000000000E+00 0. -1.
<mgrwt>
<rscale>  0 0.24208212E+04</rscale>
<asrwt>0</asrwt>
<pdfrwt beam="1">  1        1 0.34345045E+00 0.24208212E+04</pdfrwt>
<pdfrwt beam="2">  1       -1 0.10096588E+00 0.24208212E+04</pdfrwt>
<totfact> 0.17260408E+00</totfact>
</mgrwt>
</event>
<event>
 6    1  0.1762360E-005  0.1409718E+04  0.7818608E-02  0.8946814E-01
         -2   -1    0    0    0  501 -0.00000000000E+00  0.00000000000E+00  0.17797245890E+03  0.17797245890E+03  0.00000000000E+00 0.  1.
          2   -1    0    0  501    0  0.00000000000E+00 -0.00000000000E+00 -0.27915902410E+04  0.27915902410E+04  0.00000000000E+00 0. -1.
         23    2    1    2    0    0 -0.86367262047E+02 -0.16895512342E+03 -0.27357871096E+04  0.27438848714E+04  0.91476449354E+02 0.  0.
         13    1    3    3    0    0 -0.35751623311E+02 -0.11471410339E+03 -0.11268091219E+04  0.11331973796E+04  0.00000000000E+00 0.  1.
        -13    1    3    3    0    0 -0.50615638736E+02 -0.54241020033E+02 -0.16089779878E+04  0.16106874918E+04  0.00000000000E+00 0. -1.
         22    1    1    2    0    0  0.86367262047E+02  0.16895512342E+03  0.12216932752E+03  0.22567782848E+03  0.00000000000E+00 0.  1.
<mgrwt>
<rscale>  0 0.14097180E+04</rscale>
<asrwt>0</asrwt>
<pdfrwt beam="1">  1        2 0.42947545E+00 0.14097180E+04</pdfrwt>
<pdfrwt beam="2">  1       -2 0.27380376E-01 0.14097180E+04</pdfrwt>
<totfact> 0.27823350E+01</totfact>
</mgrwt>
</event>
<event>
 6    1  0.1762360E-005  0.2354221E+04  0.7818608E-02  0.8456844E-01
          2   -1    0    0  501    0  0.00000000000E+00  0.00000000000E+00  0.14148001712E+04  0.14148001712E+04  0.00000000000E+00 0. -1.
         -2   -1    0    0    0  501 -0.00000000000E+00 -0.00000000000E+00 -0.97935326538E+03  0.97935326538E+03  0.00000000000E+00 0.  1.
         23    2    1    2    0    0  0.11568848071E+04 -0.94423450931E+02  0.40661396587E+03  0.12330636108E+04  0.88389513085E+02 0.  0.
         13    1    3    3    0    0  0.62815320521E+03 -0.44810488367E+02  0.26663888786E+03  0.68387186344E+03  0.00000000000E+00 0. -1.
        -13    1    3    3    0    0  0.52873160192E+03 -0.49612962563E+02  0.13997507801E+03  0.54919174737E+03  0.00000000000E+00 0.  1.
         22    1    1    2    0    0 -0.11568848071E+04  0.94423450931E+02  0.28832939938E+02  0.11610898258E+04  0.00000000000E+00 0. -1.
<mgrwt>
<rscale>  0 0.23542210E+04</rscale>
<asrwt>0</asrwt>
<pdfrwt beam="1">  1        2 0.21766157E+00 0.23542210E+04</pdfrwt>
<pdfrwt beam="2">  1       -2 0.15066973E+00 0.23542210E+04</pdfrwt>
<totfact> 0.37932739E+00</totfact>
</mgrwt>
</event>
<event>
 6    1  0.1762360E-005  0.2571788E+04  0.7818608E-02  0.8377848E-01
          2   -1    0    0  501    0  0.00000000000E+00  0.00000000000E+00  0.22364349316E+04  0.22364349316E+04  0.00000000000E+00 0. -1.
         -2   -1    0    0    0  501 -0.00000000000E+00 -0.00000000000E+00 -0.73935668125E+03  0.73935668125E+03  0.00000000000E+00 0.  1.
         23    2    1    2    0    0 -0.10245193998E+04  0.29822348275E+03  0.15765676668E+04  0.19057935691E+04  0.88917228950E+02 0.  0.
         13    1    3    3    0    0 -0.95887213871E+03  0.25542595549E+03  0.14556472690E+04  0.17617000791E+04  0.00000000000E+00 0. -1.
        -13    1    3    3    0    0 -0.65647261136E+02  0.42797527259E+02  0.12092039788E+03  0.14409348999E+03  0.00000000000E+00 0.  1.
         22    1    1    2    0    0  0.10245193998E+04 -0.29822348275E+03 -0.79489416478E+02  0.10699980438E+04  0.00000000000E+00 0.  1.
<mgrwt>
<rscale>  0 0.25717878E+04</rscale>
<asrwt>0</asrwt>
<pdfrwt beam="1">  1        2 0.34406691E+00 0.25717878E+04</pdfrwt>
<pdfrwt beam="2">  1       -2 0.11374718E+00 0.25717878E+04</pdfrwt>
<totfact> 0.26443688E+00</totfact>
</mgrwt>
</event>
<event>
 6    1  0.1762360E-005  0.4721840E+04  0.7818608E-02  0.7872910E-01
         -2   -1    0    0    0  501 -0.00000000000E+00  0.00000000000E+00  0.15396422899E+04  0.15396422899E+04  0.00000000000E+00 0.  1.
          2   -1    0    0  501    0  0.00000000000E+00 -0.00000000000E+00 -0.36202845901E+04  0.36202845901E+04  0.00000000000E+00 0. -1.
         23    2    1    2    0    0  0.79644986321E+03  0.86403050819E+03 -0.32772697919E+04  0.34827869163E+04  0.91794945540E+02 0.  0.
         13    1    3    3    0    0  0.59162895853E+03  0.63649716430E+03 -0.25374425134E+04  0.26821200520E+04  0.00000000000E+00 0. -1.
        -13    1    3    3    0    0  0.20482090468E+03  0.22753334390E+03 -0.73982727849E+03  0.80066686430E+03  0.00000000000E+00 0.  1.
         22    1    1    2    0    0 -0.79644986321E+03 -0.86403050819E+03  0.11966274917E+04  0.16771399636E+04  0.00000000000E+00 0.  1.
<mgrwt>
<rscale>  0 0.47218400E+04</rscale>
<asrwt>0</asrwt>
<pdfrwt beam="1">  1        2 0.55696686E+00 0.47218400E+04</pdfrwt>
<pdfrwt beam="2">  1       -2 0.23686805E+00 0.47218400E+04</pdfrwt>
<totfact> 0.38392727E-02</totfact>
</mgrwt>
</event>
<event>
 6    1  0.1762360E-005  0.2381142E+04  0.7818608E-02  0.8446598E-01
          1   -1    0    0  501    0  0.00000000000E+00  0.00000000000E+00  0.89730241641E+03  0.89730241641E+03  0.00000000000E+00 0. -1.
         -1   -1    0    0    0  501 -0.00000000000E+00 -0.00000000000E+00 -0.15796898039E+04  0.15796898039E+04  0.00000000000E+00 0.  1.
         23    2    1    2    0    0  0.55691192973E+03 -0.30080532267E+03 -0.13884673046E+04  0.15287393063E+04  0.92561713796E+02 0.  0.
         13    1    3    3    0    0  0.30768032155E+03 -0.21175047580E+03 -0.76016568059E+03  0.84696948363E+03  0.00000000000E+00 0. -1.
        -13    1    3    3    0    0  0.24923160819E+03 -0.89054846877E+02 -0.62830162404E+03  0.68176982263E+03  0.00000000000E+00 0.  1.
         22    1    1    2    0    0 -0.55691192973E+03  0.30080532267E+03  0.70607991714E+03  0.94825291406E+03  0.00000000000E+00 0. -1.
<mgrwt>
<rscale>  0 0.23811421E+04</rscale>
<asrwt>0</asrwt>
<pdfrwt beam="1">  1        1 0.13804653E+00 0.23811421E+04</pdfrwt>
<pdfrwt beam="2">  1       -1 0.24302920E+00 0.23811421E+04</pdfrwt>
<totfact> 0.12712919E+00</totfact>
</mgrwt>
</event>
<event>
 6    1  0.1762360E-005  0.1458405E+04  0.7818608E-02  0.8912594E-01
          2   -1    0    0  501    0  0.00000000000E+00  0.00000000000E+00  0.18471088558E+04  0.18471088558E+04  0.00000000000E+00 0.  1.
         -2   -1    0    0    0  501 -0.00000000000E+00 -0.00000000000E+00 -0.28787478024E+03  0.28787478024E+03  0.00000000000E+00 0. -1.
         23    2    1    2    0    0 -0.18359111186E+03 -0.33672932282E+03  0.16855753713E+04  0.17311836160E+04  0.93488216084E+02 0.  0.
         11    1    3    3    0    0 -0.19556256814E+02 -0.25818837227E+02  0.29870021903E+03  0.30045112812E+03  0.00000000000E+00 0.  1.
        -11    1    3    3    0    0 -0.16403485505E+03 -0.31091048560E+03  0.13868751523E+04  0.14307324878E+04  0.00000000000E+00 0. -1.
         22    1    1    2    0    0  0.18359111186E+03  0.33672932282E+03 -0.12634129577E+03  0.40380002009E+03  0.00000000000E+00 0. -1.
<mgrwt>
<rscale>  0 0.14584047E+04</rscale>
<asrwt>0</asrwt>
<pdfrwt beam="1">  1        2 0.28417059E+00 0.14584047E+04</pdfrwt>
<pdfrwt beam="2">  1       -2 0.44288429E-01 0.14584047E+04</pdfrwt>
<totfact> 0.38073649E+01</totfact>
</mgrwt>
</event>
<event>
 6    1  0.1762360E-005  0.1370643E+04  0.7818608E-02  0.8975347E-01
          3   -1    0    0  501    0  0.00000000000E+00  0.00000000000E+00  0.40413567572E+03  0.40413567572E+03  0.00000000000E+00 0. -1.
         -3   -1    0    0    0  501 -0.00000000000E+00 -0.00000000000E+00 -0.11621489755E+04  0.11621489755E+04  0.00000000000E+00 0.  1.
         23    2    1    2    0    0  0.90170656241E+02  0.64677036235E+03 -0.60644748908E+03  0.89590054954E+03  0.91741968559E+02 0.  0.
         13    1    3    3    0    0  0.83888223247E+02  0.61218813232E+03 -0.53950151171E+03  0.82028862268E+03  0.00000000000E+00 0.  1.
        -13    1    3    3    0    0  0.62824329933E+01  0.34582230028E+02 -0.66945977373E+02  0.75611926866E+02  0.00000000000E+00 0. -1.
         22    1    1    2    0    0 -0.90170656241E+02 -0.64677036235E+03 -0.15156581075E+03  0.67038410173E+03  0.00000000000E+00 0. -1.
<mgrwt>
<rscale>  0 0.13706434E+04</rscale>
<asrwt>0</asrwt>
<pdfrwt beam="1">  1        3 0.62174719E-01 0.13706434E+04</pdfrwt>
<pdfrwt beam="2">  1       -3 0.17879215E+00 0.13706434E+04</pdfrwt>
<totfact> 0.12962425E+00</totfact>
</mgrwt>
</event>
<event>
 6    1  0.1762360E-005  0.1285692E+04  0.7818608E-02  0.9040989E-01
         -2   -1    0    0    0  501 -0.00000000000E+00  0.00000000000E+00  0.27331135476E+03  0.27331135476E+03  0.00000000000E+00 0.  1.
          2   -1    0    0  501    0  0.00000000000E+00 -0.00000000000E+00 -0.15120162206E+04  0.15120162206E+04  0.00000000000E+00 0. -1.
         23    2    1    2    0    0 -0.57772321640E+02 -0.23933526185E+03  0.19714145183E+03  0.32852502983E+03  0.91896324661E+02 0.  0.
         11    1    3    3    0    0 -0.15324524432E+02  0.28426395509E+01  0.20633566957E+02  0.25858571771E+02  0.00000000000E+00 0. -1.
        -11    1    3    3    0    0 -0.42447797208E+02 -0.24217790140E+03  0.17650788487E+03  0.30266645806E+03  0.00000000000E+00 0.  1.
         22    1    1    2    0    0  0.57772321640E+02  0.23933526185E+03 -0.14358463177E+04  0.14568025456E+04  0.00000000000E+00 0. -1.
<mgrwt>
<rscale>  0 0.12856923E+04</rscale>
<asrwt>0</asrwt>
<pdfrwt beam="1">  1        2 0.23261788E+00 0.12856923E+04</pdfrwt>
<pdfrwt beam="2">  1       -2 0.42047901E-01 0.12856923E+04</pdfrwt>
<totfact> 0.65698679E+01</totfact>
</mgrwt>
</event>
<event>
 6    1  0.1762360E-005  0.1746747E+04  0.7818608E-02  0.8735143E-01
         -2   -1    0    0    0  501 -0.00000000000E+00  0.00000000000E+00  0.25433110926E+03  0.25433110926E+03  0.00000000000E+00 0.  1.
          2   -1    0    0  501    0  0.00000000000E+00 -0.00000000000E+00 -0.29991659375E+04  0.29991659375E+04  0.00000000000E+00 0. -1.
         23    2    1    2    0    0  0.17033384636E+03 -0.14353566690E+03 -0.29446821610E+04  0.29542395268E+04  0.82231658590E+02 0.  0.
         13    1    3    3    0    0  0.13696152223E+03 -0.14345875452E+03 -0.27025563367E+04  0.27098246486E+04  0.00000000000E+00 0.  1.
        -13    1    3    3    0    0  0.33372324132E+02 -0.76912374966E-01 -0.24212582427E+03  0.24441487825E+03  0.00000000000E+00 0. -1.
         22    1    1    2    0    0 -0.17033384636E+03  0.14353566690E+03  0.19984733269E+03  0.29925751999E+03  0.00000000000E+00 0.  1.
<mgrwt>
<rscale>  0 0.17467469E+04</rscale>
<asrwt>0</asrwt>
<pdfrwt beam="1">  1        2 0.46141014E+00 0.17467469E+04</pdfrwt>
<pdfrwt beam="2">  1       -2 0.39127864E-01 0.17467469E+04</pdfrwt>
<totfact> 0.10250073E+01</totfact>
</mgrwt>
</event>
<event>
 6    1  0.1762360E-005  0.2511844E+04  0.7818608E-02  0.8398778E-01
          2   -1    0    0  501    0  0.00000000000E+00  0.00000000000E+00  0.24847501158E+04  0.24847501158E+04  0.00000000000E+00 0. -1.
         -2   -1    0    0    0  501 -0.00000000000E+00 -0.00000000000E+00 -0.63480823078E+03  0.63480823078E+03  0.00000000000E+00 0.  1.
         23    2    1    2    0    0  0.34955387219E+03 -0.68216637695E+03 -0.30688509048E+03  0.83057571719E+03  0.90214676377E+02 0.  0.
         13    1    3    3    0    0  0.99257087930E+02 -0.26834307729E+03 -0.84970421119E+02  0.29846264272E+03  0.00000000000E+00 0. -1.
        -13    1    3    3    0    0  0.25029678426E+03 -0.41382329966E+03 -0.22191466936E+03  0.53211307448E+03  0.00000000000E+00 0.  1.
         22    1    1    2    0    0 -0.34955387219E+03  0.68216637695E+03  0.21568269755E+04  0.22889826294E+04  0.00000000000E+00 0. -1.
<mgrwt>
<rscale>  0 0.25118438E+04</rscale>
<asrwt>0</asrwt>
<pdfrwt beam="1">  1        2 0.38226924E+00 0.25118438E+04</pdfrwt>
<pdfrwt beam="2">  1       -2 0.97662806E-01 0.25118438E+04</pdfrwt>
<totfact> 0.27644359E+00</totfact>
</mgrwt>
</event>
<event>
 6    1  0.1762360E-005  0.4055464E+04  0.7818608E-02  0.7993450E-01
         -2   -1    0    0    0  501 -0.00000000000E+00  0.00000000000E+00  0.15913895127E+04  0.15913895127E+04  0.00000000000E+00 0.  1.
          2   -1    0    0  501    0  0.00000000000E+00 -0.00000000000E+00 -0.25837149996E+04  0.25837149996E+04  0.00000000000E+00 0. -1.
         23    2    1    2    0    0  0.14975600286E+04  0.86681911407E+03  0.58946906861E+03  0.18307207058E+04  0.10001551912E+03 0.  0.
         13    1    3    3    0    0  0.60565691020E+03  0.32636297342E+03  0.28119634650E+03  0.74323917320E+03  0.00000000000E+00 0. -1.
        -13    1    3    3    0    0  0.89190311843E+03  0.54045614066E+03  0.30827272211E+03  0.10874815326E+04  0.00000000000E+00 0.  1.
         22    1    1    2    0    0 -0.14975600286E+04 -0.86681911407E+03 -0.15817945555E+04  0.23443838064E+04  0.00000000000E+00 0. -1.
<mgrwt>
<rscale>  0 0.40554639E+04</rscale>
<asrwt>0</asrwt>
<pdfrwt beam="1">  1        2 0.39749461E+00 0.40554639E+04</pdfrwt>
<pdfrwt beam="2">  1       -2 0.24482916E+00 0.40554639E+04</pdfrwt>
<totfact> 0.16895254E-01</totfact>
</mgrwt>
</event>
<event>
 6    1  0.1762360E-005  0.2050606E+04  0.7818608E-02  0.8583319E-01
          1   -1    0    0  501    0  0.00000000000E+00  0.00000000000E+00  0.58503346632E+03  0.58503346632E+03  0.00000000000E+00 0. -1.
         -1   -1    0    0    0  501 -0.00000000000E+00 -0.00000000000E+00 -0.17969002025E+04  0.17969002025E+04  0.00000000000E+00 0.  1.
         23    2    1    2    0    0  0.29731035333E+03 -0.29247690482E+03 -0.16925886877E+04  0.17455141683E+04  0.89593862034E+02 0.  0.
         11    1    3    3    0    0  0.13815912517E+03 -0.11556094405E+03 -0.90543431726E+03  0.92317581128E+03  0.00000000000E+00 0. -1.
        -11    1    3    3    0    0  0.15915122816E+03 -0.17691596077E+03 -0.78715437042E+03  0.82233835705E+03  0.00000000000E+00 0.  1.
         22    1    1    2    0    0 -0.29731035333E+03  0.29247690482E+03  0.48072195146E+03  0.63641950054E+03  0.00000000000E+00 0. -1.
<mgrwt>
<rscale>  0 0.20506065E+04</rscale>
<asrwt>0</asrwt>
<pdfrwt beam="1">  1        1 0.90005146E-01 0.20506065E+04</pdfrwt>
<pdfrwt beam="2">  1       -1 0.27644619E+00 0.20506065E+04</pdfrwt>
<totfact> 0.15399826E+00</totfact>
</mgrwt>
</event>
<event>
 6    1  0.1762360E-005  0.2259977E+04  0.7818608E-02  0.8493871E-01
          2   -1    0    0  501    0  0.00000000000E+00  0.00000000000E+00  0.19617847158E+04  0.19617847158E+04  0.00000000000E+00 0.  1.
         -2   -1    0    0    0  501 -0.00000000000E+00 -0.00000000000E+00 -0.65087384796E+03  0.65087384796E+03  0.00000000000E+00 0. -1.
         23    2    1    2    0    0 -0.50881789893E+03 -0.55634810623E+03  0.16252473791E+04  0.17958193434E+04  0.12296016161E+03 0.  0.
         13    1    3    3    0    0 -0.13377418874E+03 -0.11044761524E+03  0.27392621936E+03  0.32423723250E+03  0.00000000000E+00 0.  1.
        -13    1    3    3    0    0 -0.37504371019E+03 -0.44590049098E+03  0.13513211597E+04  0.14715821109E+04  0.00000000000E+00 0. -1.
         22    1    1    2    0    0  0.50881789893E+03  0.55634810623E+03 -0.31433651127E+03  0.81683922034E+03  0.00000000000E+00 0. -1.
<mgrwt>
<rscale>  0 0.22599773E+04</rscale>
<asrwt>0</asrwt>
<pdfrwt beam="1">  1        2 0.30181303E+00 0.22599773E+04</pdfrwt>
<pdfrwt beam="2">  1       -2 0.10013444E+00 0.22599773E+04</pdfrwt>
<totfact> 0.52545042E+00</totfact>
</mgrwt>
</event>
<event>
 6    1  0.1762360E-005  0.2036742E+04  0.7818608E-02  0.8589633E-01
          1   -1    0    0  501    0  0.00000000000E+00  0.00000000000E+00  0.20459943997E+04  0.20459943997E+04  0.00000000000E+00 0. -1.
         -1   -1    0    0    0  501 -0.00000000000E+00 -0.00000000000E+00 -0.50688267622E+03  0.50688267622E+03  0.00000000000E+00 0.  1.
         23    2    1    2    0    0  0.81088781707E+03 -0.57187611918E+03  0.49518329722E+03  0.11126104663E+04  0.90078878488E+02 0.  0.
         11    1    3    3    0    0  0.44312321786E+03 -0.30754061635E+03  0.31889494421E+03  0.62660466193E+03  0.00000000000E+00 0.  1.
        -11    1    3    3    0    0  0.36776459920E+03 -0.26433550283E+03  0.17628835301E+03  0.48600580438E+03  0.00000000000E+00 0. -1.
         22    1    1    2    0    0 -0.81088781707E+03  0.57187611918E+03  0.10439284262E+04  0.14402666096E+04  0.00000000000E+00 0.  1.
<mgrwt>
<rscale>  0 0.20367416E+04</rscale>
<asrwt>0</asrwt>
<pdfrwt beam="1">  1        1 0.31476837E+00 0.20367416E+04</pdfrwt>
<pdfrwt beam="2">  1       -1 0.77981951E-01 0.20367416E+04</pdfrwt>
<totfact> 0.42231700E+00</totfact>
</mgrwt>
</event>
<event>
 6    1  0.1762360E-005  0.3196367E+04  0.7818608E-02  0.8189777E-01
          1   -1    0    0  501    0  0.00000000000E+00  0.00000000000E+00  0.28662448593E+04  0.28662448593E+04  0.00000000000E+00 0. -1.
         -1   -1    0    0    0  501 -0.00000000000E+00 -0.00000000000E+00 -0.89112786961E+03  0.89112786961E+03  0.00000000000E+00 0.  1.
         23    2    1    2    0    0 -0.38792520184E+03 -0.19621503011E+03  0.27946301213E+04  0.28296938658E+04  0.90683841021E+02 0.  0.
         11    1    3    3    0    0 -0.78110709713E+02 -0.72348868574E+02  0.85073130674E+03  0.85736771459E+03  0.00000000000E+00 0. -1.
        -11    1    3    3    0    0 -0.30981449213E+03 -0.12386616153E+03  0.19438988145E+04  0.19723261512E+04  0.00000000000E+00 0.  1.
         22    1    1    2    0    0  0.38792520184E+03  0.19621503011E+03 -0.81951313158E+03  0.92767886313E+03  0.00000000000E+00 0.  1.
<mgrwt>
<rscale>  0 0.31963671E+04</rscale>
<asrwt>0</asrwt>
<pdfrwt beam="1">  1        1 0.44096074E+00 0.31963671E+04</pdfrwt>
<pdfrwt beam="2">  1       -1 0.13709660E+00 0.31963671E+04</pdfrwt>
<totfact> 0.27663075E-01</totfact>
</mgrwt>
</event>
<event>
 6    1  0.1762360E-005  0.2964338E+04  0.7818608E-02  0.8253988E-01
          2   -1    0    0  501    0  0.00000000000E+00  0.00000000000E+00  0.30879021238E+04  0.30879021238E+04  0.00000000000E+00 0.  1.
         -2   -1    0    0    0  501 -0.00000000000E+00 -0.00000000000E+00 -0.71142963709E+03  0.71142963709E+03  0.00000000000E+00 0. -1.
         23    2    1    2    0    0 -0.13859947591E+04  0.26475055059E+03  0.17650085318E+04  0.22614883051E+04  0.89442218591E+02 0.  0.
         13    1    3    3    0    0 -0.66485228508E+03  0.13588414601E+03  0.77878071143E+03  0.10329532703E+04  0.00000000000E+00 0. -1.
        -13    1    3    3    0    0 -0.72114247403E+03  0.12886640458E+03  0.98622782040E+03  0.12285350348E+04  0.00000000000E+00 0.  1.
         22    1    1    2    0    0  0.13859947591E+04 -0.26475055059E+03  0.61146395490E+03  0.15378434558E+04  0.00000000000E+00 0.  1.
<mgrwt>
<rscale>  0 0.29643381E+04</rscale>
<asrwt>0</asrwt>
<pdfrwt beam="1">  1        2 0.47506186E+00 0.29643381E+04</pdfrwt>
<pdfrwt beam="2">  1       -2 0.10945071E+00 0.29643381E+04</pdfrwt>
<totfact> 0.87407599E-01</totfact>
</mgrwt>
</event>
<event>
 6    1  0.1762360E-005  0.4111851E+04  0.7818608E-02  0.7982355E-01
          2   -1    0    0  501    0  0.00000000000E+00  0.00000000000E+00  0.20810891252E+04  0.20810891252E+04  0.00000000000E+00 0. -1.
         -2   -1    0    0    0  501 -0.00000000000E+00 -0.00000000000E+00 -0.20310663284E+04  0.20310663284E+04  0.00000000000E+00 0.  1.
         23    2    1    2    0    0  0.42343049916E+03 -0.15702340042E+04  0.12813556026E+04  0.20722758752E+04  0.86757749452E+02 0.  0.
         11    1    3    3    0    0  0.19155854854E+03 -0.66017221746E+03  0.59371186156E+03  0.90830380864E+03  0.00000000000E+00 0.  1.
        -11    1    3    3    0    0  0.23187195062E+03 -0.91006178675E+03  0.68764374104E+03  0.11639720666E+04  0.00000000000E+00 0. -1.
         22    1    1    2    0    0 -0.42343049916E+03  0.15702340042E+04 -0.12313328058E+04  0.20398795784E+04  0.00000000000E+00 0.  1.
<mgrwt>
<rscale>  0 0.41118512E+04</rscale>
<asrwt>0</asrwt>
<pdfrwt beam="1">  1        2 0.32016756E+00 0.41118512E+04</pdfrwt>
<pdfrwt beam="2">  1       -2 0.31247174E+00 0.41118512E+04</pdfrwt>
<totfact> 0.12541842E-01</totfact>
</mgrwt>
</event>
<event>
 6    1  0.1762360E-005  0.1079477E+04  0.7818608E-02  0.9225429E-01
          2   -1    0    0  501    0  0.00000000000E+00  0.00000000000E+00  0.53952481904E+03  0.53952481904E+03  0.00000000000E+00 0. -1.
         -2   -1    0    0    0  501 -0.00000000000E+00 -0.00000000000E+00 -0.53995223797E+03  0.53995223797E+03  0.00000000000E+00 0.  1.
         23    2    1    2    0    0  0.52254313676E+03 -0.33069342673E+02 -0.11761476026E+03  0.54293462237E+03  0.82461270541E+02 0.  0.
         13    1    3    3    0    0  0.41131835421E+03 -0.59789748413E+02 -0.90749002139E+02  0.42543270198E+03  0.00000000000E+00 0. -1.
        -13    1    3    3    0    0  0.11122478255E+03  0.26720405740E+02 -0.26865758118E+02  0.11750192039E+03  0.00000000000E+00 0.  1.
         22    1    1    2    0    0 -0.52254313676E+03  0.33069342673E+02  0.11718734133E+03  0.53654243464E+03  0.00000000000E+00 0. -1.
<mgrwt>
<rscale>  0 0.10794770E+04</rscale>
<asrwt>0</asrwt>
<pdfrwt beam="1">  1        2 0.83003819E-01 0.10794770E+04</pdfrwt>
<pdfrwt beam="2">  1       -2 0.83069575E-01 0.10794770E+04</pdfrwt>
<totfact> 0.71117937E+01</totfact>
</mgrwt>
</event>
<event>
 6    1  0.1762360E-005  0.1665476E+04  0.7818608E-02  0.8781303E-01
         -1   -1    0    0    0  501 -0.00000000000E+00  0.00000000000E+00  0.54398498112E+03  0.54398498112E+03  0.00000000000E+00 0.  1.
          1   -1    0    0  501    0  0.00000000000E+00 -0.00000000000E+00 -0.12747644636E+04  0.12747644636E+04  0.00000000000E+00 0. -1.
         23    2    1    2    0    0 -0.40546110876E+03 -0.71864002371E+03 -0.26663132994E+03  0.87203105897E+03  0.92215548031E+02 0.  0.
         11    1    3    3    0    0 -0.69417586012E+02 -0.16708528446E+03 -0.25959673586E+02  0.18278456768E+03  0.00000000000E+00 0. -1.
        -11    1    3    3    0    0 -0.33604352275E+03 -0.55155473925E+03 -0.24067165636E+03  0.68924649128E+03  0.00000000000E+00 0.  1.
         22    1    1    2    0    0  0.40546110876E+03  0.71864002371E+03 -0.46414815251E+03  0.94671838573E+03  0.00000000000E+00 0.  1.
<mgrwt>
<rscale>  0 0.16654762E+04</rscale>
<asrwt>0</asrwt>
<pdfrwt beam="1">  1        1 0.19611761E+00 0.16654762E+04</pdfrwt>
<pdfrwt beam="2">  1       -1 0.83689998E-01 0.16654762E+04</pdfrwt>
<totfact> 0.12744739E+01</totfact>
</mgrwt>
</event>
<event>
 6    1  0.1762360E-005  0.1846094E+04  0.7818608E-02  0.8682164E-01
         -2   -1    0    0    0  501 -0.00000000000E+00  0.00000000000E+00  0.79141204620E+03  0.79141204620E+03  0.00000000000E+00 0.  1.
          2   -1    0    0  501    0  0.00000000000E+00 -0.00000000000E+00 -0.10765761144E+04  0.10765761144E+04  0.00000000000E+00 0. -1.
         23    2    1    2    0    0  0.38233822949E+03 -0.83102829450E+03 -0.24989432088E+03  0.95254591604E+03  0.90033341413E+02 0.  0.
         11    1    3    3    0    0  0.17248555756E+03 -0.46009439337E+03 -0.16214247238E+03  0.51742468024E+03  0.00000000000E+00 0.  1.
        -11    1    3    3    0    0  0.20985267193E+03 -0.37093390114E+03 -0.87751848501E+02  0.43512123580E+03  0.00000000000E+00 0. -1.
         22    1    1    2    0    0 -0.38233822949E+03  0.83102829450E+03 -0.35269747277E+02  0.91544224453E+03  0.00000000000E+00 0. -1.
<mgrwt>
<rscale>  0 0.18460935E+04</rscale>
<asrwt>0</asrwt>
<pdfrwt beam="1">  1        2 0.16562709E+00 0.18460935E+04</pdfrwt>
<pdfrwt beam="2">  1       -2 0.12175570E+00 0.18460935E+04</pdfrwt>
<totfact> 0.10852816E+01</totfact>
</mgrwt>
</event>
<event>
 6    1  0.1762360E-005  0.6371694E+03  0.7818608E-02  0.9831157E-01
         -2   -1    0    0    0  501 -0.00000000000E+00  0.00000000000E+00  0.42904727587E+02  0.42904727587E+02  0.00000000000E+00 0.  1.
          2   -1    0    0  501    0  0.00000000000E+00 -0.00000000000E+00 -0.23656180785E+04  0.23656180785E+04  0.00000000000E+00 0. -1.
         23    2    1    2    0    0 -0.39041766002E+02 -0.26901310984E+03 -0.17647109953E+04  0.17878304978E+04  0.90778185567E+02 0.  0.
         11    1    3    3    0    0 -0.42312921942E+02 -0.78510143927E+02 -0.75981176839E+03  0.76502820173E+03  0.00000000000E+00 0. -1.
        -11    1    3    3    0    0  0.32711559408E+01 -0.19050296591E+03 -0.10048992269E+04  0.10228022960E+04  0.00000000000E+00 0.  1.
         22    1    1    2    0    0  0.39041766002E+02  0.26901310984E+03 -0.55800235555E+03  0.62069230828E+03  0.00000000000E+00 0.  1.
<mgrwt>
<rscale>  0 0.63716936E+03</rscale>
<asrwt>0</asrwt>
<pdfrwt beam="1">  1        2 0.36394129E+00 0.63716936E+03</pdfrwt>
<pdfrwt beam="2">  1       -2 0.66007265E-02 0.63716936E+03</pdfrwt>
<totfact> 0.57973448E+02</totfact>
</mgrwt>
</event>
<event>
 6    1  0.1762360E-005  0.1203259E+04  0.7818608E-02  0.9110009E-01
         -1   -1    0    0    0  501 -0.00000000000E+00  0.00000000000E+00  0.54389603714E+03  0.54389603714E+03  0.00000000000E+00 0.  1.
          1   -1    0    0  501    0  0.00000000000E+00 -0.00000000000E+00 -0.66549123193E+03  0.66549123193E+03  0.00000000000E+00 0. -1.
         23    2    1    2    0    0 -0.17355510020E+03  0.33868845231E+03 -0.52536628389E+03  0.65453383533E+03  0.87026253565E+02 0.  0.
         11    1    3    3    0    0 -0.89048272683E+02  0.18531080858E+03 -0.21048790129E+03  0.29423604000E+03  0.00000000000E+00 0. -1.
        -11    1    3    3    0    0 -0.84506827514E+02  0.15337764374E+03 -0.31487838260E+03  0.36029779533E+03  0.00000000000E+00 0.  1.
         22    1    1    2    0    0  0.17355510020E+03 -0.33868845231E+03  0.40377108910E+03  0.55485343373E+03  0.00000000000E+00 0.  1.
<mgrwt>
<rscale>  0 0.12032590E+04</rscale>
<asrwt>0</asrwt>
<pdfrwt beam="1">  1        1 0.10238327E+00 0.12032590E+04</pdfrwt>
<pdfrwt beam="2">  1       -1 0.83676314E-01 0.12032590E+04</pdfrwt>
<totfact> 0.41235309E+01</totfact>
</mgrwt>
</event>
<event>
 6    1  0.1762360E-005  0.1322194E+04  0.7818608E-02  0.9012148E-01
         -1   -1    0    0    0  501 -0.00000000000E+00  0.00000000000E+00  0.36333089350E+03  0.36333089350E+03  0.00000000000E+00 0.  1.
          1   -1    0    0  501    0  0.00000000000E+00 -0.00000000000E+00 -0.12028952687E+04  0.12028952687E+04  0.00000000000E+00 0. -1.
         23    2    1    2    0    0  0.54151577615E+03  0.18477573244E+03 -0.80671117168E+03  0.99311121724E+03  0.90030928977E+02 0.  0.
         13    1    3    3    0    0  0.31162528983E+03  0.11223310338E+03 -0.38974928799E+03  0.51147932337E+03  0.00000000000E+00 0. -1.
        -13    1    3    3    0    0  0.22989048632E+03  0.72542629059E+02 -0.41696188369E+03  0.48163189386E+03  0.00000000000E+00 0.  1.
         22    1    1    2    0    0 -0.54151577615E+03 -0.18477573244E+03 -0.32853203476E+02  0.57311494492E+03  0.00000000000E+00 0.  1.
<mgrwt>
<rscale>  0 0.13221937E+04</rscale>
<asrwt>0</asrwt>
<pdfrwt beam="1">  1        1 0.18506081E+00 0.13221937E+04</pdfrwt>
<pdfrwt beam="2">  1       -1 0.55897061E-01 0.13221937E+04</pdfrwt>
<totfact> 0.33764757E+01</totfact>
</mgrwt>
</event>
<event>
 6    1  0.1762360E-005  0.2360048E+04  0.7818608E-02  0.8454614E-01
         -2   -1    0    0    0  501 -0.00000000000E+00  0.00000000000E+00  0.12867592878E+04  0.12867592878E+04  0.00000000000E+00 0. -1.
          2   -1    0    0  501    0  0.00000000000E+00 -0.00000000000E+00 -0.10821422223E+04  0.10821422223E+04  0.00000000000E+00 0.  1.
         23    2    1    2    0    0 -0.83352106559E+03  0.65715886068E+01 -0.73350300141E+03  0.11139633394E+04  0.89928392838E+02 0.  0.
         11    1    3    3    0    0 -0.15240627678E+03 -0.31465979442E+02 -0.15279046314E+03  0.21808875875E+03  0.00000000000E+00 0.  1.
        -11    1    3    3    0    0 -0.68111478881E+03  0.38037568049E+02 -0.58071253827E+03  0.89587458063E+03  0.00000000000E+00 0. -1.
         22    1    1    2    0    0  0.83352106559E+03 -0.65715886068E+01  0.93812006685E+03  0.12549381707E+04  0.00000000000E+00 0. -1.
<mgrwt>
<rscale>  0 0.23600479E+04</rscale>
<asrwt>0</asrwt>
<pdfrwt beam="1">  1        2 0.16648342E+00 0.23600479E+04</pdfrwt>
<pdfrwt beam="2">  1       -2 0.19796297E+00 0.23600479E+04</pdfrwt>
<totfact> 0.27653910E+00</totfact>
</mgrwt>
</event>
<event>
 6    1  0.1762360E-005  0.1300613E+04  0.7818608E-02  0.9029079E-01
         -1   -1    0    0    0  501 -0.00000000000E+00  0.00000000000E+00  0.21538764278E+03  0.21538764278E+03  0.00000000000E+00 0.  1.
          1   -1    0    0  501    0  0.00000000000E+00 -0.00000000000E+00 -0.19634311922E+04  0.19634311922E+04  0.00000000000E+00 0. -1.
         23    2    1    2    0    0  0.41828740939E+03  0.15005606613E+03 -0.16667485880E+04  0.17270555667E+04  0.84787351928E+02 0.  0.
         13    1    3    3    0    0  0.23275962703E+03  0.65421439775E+02 -0.75447509180E+03  0.79226868732E+03  0.00000000000E+00 0.  1.
        -13    1    3    3    0    0  0.18552778236E+03  0.84634626351E+02 -0.91227349615E+03  0.93478687934E+03  0.00000000000E+00 0. -1.
         22    1    1    2    0    0 -0.41828740939E+03 -0.15005606613E+03 -0.81294961468E+02  0.45176326831E+03  0.00000000000E+00 0.  1.
<mgrwt>
<rscale>  0 0.13006134E+04</rscale>
<asrwt>0</asrwt>
<pdfrwt beam="1">  1        1 0.30206633E+00 0.13006134E+04</pdfrwt>
<pdfrwt beam="2">  1       -1 0.33136561E-01 0.13006134E+04</pdfrwt>
<totfact> 0.26557702E+01</totfact>
</mgrwt>
</event>
<event>
 6    1  0.1762360E-005  0.5299877E+04  0.7818608E-02  0.7783843E-01
          2   -1    0    0  501    0  0.00000000000E+00  0.00000000000E+00  0.16709819469E+04  0.16709819469E+04  0.00000000000E+00 0. -1.
         -2   -1    0    0    0  501 -0.00000000000E+00 -0.00000000000E+00 -0.42024242342E+04  0.42024242342E+04  0.00000000000E+00 0.  1.
         23    2    1    2    0    0 -0.12969641282E+04 -0.20749360681E+04 -0.14106278078E+03  0.24526767528E+04  0.90823506983E+02 0.  0.
         11    1    3    3    0    0 -0.76334017733E+03 -0.12945221485E+04 -0.10773423275E+03  0.15066792904E+04  0.00000000000E+00 0.  1.
        -11    1    3    3    0    0 -0.53362395087E+03 -0.78041391958E+03 -0.33328548037E+02  0.94599746243E+03  0.00000000000E+00 0. -1.
         22    1    1    2    0    0  0.12969641282E+04  0.20749360681E+04 -0.23903795065E+04  0.34207294282E+04  0.00000000000E+00 0.  1.
<mgrwt>
<rscale>  0 0.52998774E+04</rscale>
<asrwt>0</asrwt>
<pdfrwt beam="1">  1        2 0.25707415E+00 0.52998774E+04</pdfrwt>
<pdfrwt beam="2">  1       -2 0.64652679E+00 0.52998774E+04</pdfrwt>
<totfact> 0.25319056E-03</totfact>
</mgrwt>
</event>
<event>
 6    1  0.1762360E-005  0.1190541E+04  0.7818608E-02  0.9121176E-01
         -1   -1    0    0    0  501 -0.00000000000E+00  0.00000000000E+00  0.60477853835E+03  0.60477853835E+03  0.00000000000E+00 0.  1.
          1   -1    0    0  501    0  0.00000000000E+00 -0.00000000000E+00 -0.58591216998E+03  0.58591216998E+03  0.00000000000E+00 0. -1.
         23    2    1    2    0    0 -0.45341497530E+03 -0.34087755740E+03 -0.15849777656E+03  0.59635015875E+03  0.93430817757E+02 0.  0.
         11    1    3    3    0    0 -0.26974432182E+03 -0.15156081272E+03 -0.62528415338E+02  0.31566197400E+03  0.00000000000E+00 0. -1.
        -11    1    3    3    0    0 -0.18367065348E+03 -0.18931674469E+03 -0.95969361218E+02  0.28068818476E+03  0.00000000000E+00 0.  1.
         22    1    1    2    0    0  0.45341497530E+03  0.34087755740E+03  0.17736414492E+03  0.59434054958E+03  0.00000000000E+00 0.  1.
<mgrwt>
<rscale>  0 0.11905412E+04</rscale>
<asrwt>0</asrwt>
<pdfrwt beam="1">  1        1 0.90140334E-01 0.11905412E+04</pdfrwt>
<pdfrwt beam="2">  1       -1 0.93042852E-01 0.11905412E+04</pdfrwt>
<totfact> 0.39404439E+01</totfact>
</mgrwt>
</event>
<event>
 6    1  0.1762360E-005  0.1422686E+04  0.7818608E-02  0.8937559E-01
          1   -1    0    0  501    0  0.00000000000E+00  0.00000000000E+00  0.34162298294E+04  0.34162298294E+04  0.00000000000E+00 0. -1.
         -1   -1    0    0    0  501 -0.00000000000E+00 -0.00000000000E+00 -0.14811905369E+03  0.14811905369E+03  0.00000000000E+00 0.  1.
         23    2    1    2    0    0 -0.43215123492E+03 -0.49301589572E+03  0.23147360563E+04  0.24073083829E+04  0.85506006714E+02 0.  0.
         13    1    3    3    0    0 -0.15589269558E+03 -0.24170808517E+03  0.10251799906E+04  0.10647625764E+04  0.00000000000E+00 0. -1.
        -13    1    3    3    0    0 -0.27625853935E+03 -0.25130781055E+03  0.12895560657E+04  0.13425458065E+04  0.00000000000E+00 0.  1.
         22    1    1    2    0    0  0.43215123492E+03  0.49301589572E+03  0.95337471949E+03  0.11570405002E+04  0.00000000000E+00 0.  1.
<mgrwt>
<rscale>  0 0.14226858E+04</rscale>
<asrwt>0</asrwt>
<pdfrwt beam="1">  1        1 0.52557376E+00 0.14226858E+04</pdfrwt>
<pdfrwt beam="2">  1       -1 0.22787549E-01 0.14226858E+04</pdfrwt>
<totfact> 0.47012396E+00</totfact>
</mgrwt>
</event>
<event>
 6    1  0.1762360E-005  0.3330696E+04  0.7818608E-02  0.8155128E-01
          2   -1    0    0  501    0  0.00000000000E+00  0.00000000000E+00  0.19208753832E+04  0.19208753832E+04  0.00000000000E+00 0. -1.
         -2   -1    0    0    0  501 -0.00000000000E+00 -0.00000000000E+00 -0.14438122932E+04  0.14438122932E+04  0.00000000000E+00 0.  1.
         23    2    1    2    0    0  0.11589641301E+04 -0.97552595466E+03  0.93449507568E+03  0.17822551298E+04  0.91123862061E+02 0.  0.
         13    1    3    3    0    0  0.61906168202E+03 -0.50826599173E+03  0.44181100276E+03  0.91475059259E+03  0.00000000000E+00 0.  1.
        -13    1    3    3    0    0  0.53990244806E+03 -0.46725996294E+03  0.49268407292E+03  0.86750453722E+03  0.00000000000E+00 0. -1.
         22    1    1    2    0    0 -0.11589641301E+04  0.97552595466E+03 -0.45743198573E+03  0.15824325466E+04  0.00000000000E+00 0.  1.
<mgrwt>
<rscale>  0 0.33306957E+04</rscale>
<asrwt>0</asrwt>
<pdfrwt beam="1">  1        2 0.29551929E+00 0.33306957E+04</pdfrwt>
<pdfrwt beam="2">  1       -2 0.22212497E+00 0.33306957E+04</pdfrwt>
<totfact> 0.59027116E-01</totfact>
</mgrwt>
</event>
<event>
 6    1  0.1762360E-005  0.1142331E+04  0.7818608E-02  0.9164888E-01
         -1   -1    0    0    0  501 -0.00000000000E+00  0.00000000000E+00  0.25928918704E+03  0.25928918704E+03  0.00000000000E+00 0.  1.
          1   -1    0    0  501    0  0.00000000000E+00 -0.00000000000E+00 -0.12581705839E+04  0.12581705839E+04  0.00000000000E+00 0. -1.
         23    2    1    2    0    0  0.82875865640E+02  0.13070993618E+03 -0.12279985224E+04  0.12409671783E+04  0.89809076124E+02 0.  0.
         11    1    3    3    0    0  0.37869200580E+02  0.10860381412E+03 -0.59693421064E+03  0.60791390561E+03  0.00000000000E+00 0. -1.
        -11    1    3    3    0    0  0.45006665060E+02  0.22106122060E+02 -0.63106431175E+03  0.63305327271E+03  0.00000000000E+00 0.  1.
         22    1    1    2    0    0 -0.82875865640E+02 -0.13070993618E+03  0.22911712557E+03  0.27649259258E+03  0.00000000000E+00 0.  1.
<mgrwt>
<rscale>  0 0.11423310E+04</rscale>
<asrwt>0</asrwt>
<pdfrwt beam="1">  1        1 0.19356470E+00 0.11423310E+04</pdfrwt>
<pdfrwt beam="2">  1       -1 0.39890644E-01 0.11423310E+04</pdfrwt>
<totfact> 0.58934359E+01</totfact>
</mgrwt>
</event>
<event>
 6    1  0.1762360E-005  0.1596054E+04  0.7818608E-02  0.8822976E-01
         -2   -1    0    0    0  501 -0.00000000000E+00  0.00000000000E+00  0.26580595295E+03  0.26580595295E+03  0.00000000000E+00 0.  1.
          2   -1    0    0  501    0  0.00000000000E+00 -0.00000000000E+00 -0.23959095451E+04  0.23959095451E+04  0.00000000000E+00 0. -1.
         23    2    1    2    0    0  0.30372316701E+03 -0.73044929152E+03 -0.94348952861E+03  0.12355819610E+04  0.10337486210E+03 0.  0.
         13    1    3    3    0    0  0.11080785934E+03 -0.17364590498E+03 -0.20263559896E+03  0.28895063241E+03  0.00000000000E+00 0. -1.
        -13    1    3    3    0    0  0.19291530767E+03 -0.55680338655E+03 -0.74085392965E+03  0.94663132859E+03  0.00000000000E+00 0.  1.
         22    1    1    2    0    0 -0.30372316701E+03  0.73044929152E+03 -0.11866140635E+04  0.14261335370E+04  0.00000000000E+00 0. -1.
<mgrwt>
<rscale>  0 0.15960539E+04</rscale>
<asrwt>0</asrwt>
<pdfrwt beam="1">  1        2 0.36860149E+00 0.15960539E+04</pdfrwt>
<pdfrwt beam="2">  1       -2 0.40893222E-01 0.15960539E+04</pdfrwt>
<totfact> 0.21747776E+01</totfact>
</mgrwt>
</event>
<event>
 6    1  0.1762360E-005  0.2361490E+04  0.7818608E-02  0.8454063E-01
         -1   -1    0    0    0  501 -0.00000000000E+00  0.00000000000E+00  0.74134282832E+03  0.74134282832E+03  0.00000000000E+00 0.  1.
          1   -1    0    0  501    0  0.00000000000E+00 -0.00000000000E+00 -0.18805863582E+04  0.18805863582E+04  0.00000000000E+00 0. -1.
         23    2    1    2    0    0  0.14369038544E+03  0.10372391965E+04 -0.11717849762E+04  0.15742789475E+04  0.93606069456E+02 0.  0.
         13    1    3    3    0    0  0.45097404743E+02  0.37449498644E+03 -0.35677613135E+03  0.51920080767E+03  0.00000000000E+00 0.  1.
        -13    1    3    3    0    0  0.98592980699E+02  0.66274421008E+03 -0.81500884487E+03  0.10550781398E+04  0.00000000000E+00 0. -1.
         22    1    1    2    0    0 -0.14369038544E+03 -0.10372391965E+04  0.32541446358E+02  0.10476502391E+04  0.00000000000E+00 0.  1.
<mgrwt>
<rscale>  0 0.23614904E+04</rscale>
<asrwt>0</asrwt>
<pdfrwt beam="1">  1        1 0.28932098E+00 0.23614904E+04</pdfrwt>
<pdfrwt beam="2">  1       -1 0.11405274E+00 0.23614904E+04</pdfrwt>
<totfact> 0.22605686E+00</totfact>
</mgrwt>
</event>
<event>
 6    1  0.1762360E-005  0.1621321E+04  0.7818608E-02  0.8807556E-01
          1   -1    0    0  501    0  0.00000000000E+00  0.00000000000E+00  0.13379202188E+04  0.13379202188E+04  0.00000000000E+00 0. -1.
         -1   -1    0    0    0  501 -0.00000000000E+00 -0.00000000000E+00 -0.49118797975E+03  0.49118797975E+03  0.00000000000E+00 0.  1.
         23    2    1    2    0    0 -0.58009455012E+03 -0.54528362244E+02 -0.20706611795E+03  0.62495953391E+03  0.90636705874E+02 0.  0.
         13    1    3    3    0    0 -0.57442173651E+02  0.21628799245E+01 -0.50253840116E+02  0.76352667338E+02  0.00000000000E+00 0.  1.
        -13    1    3    3    0    0 -0.52265237647E+03 -0.56691242168E+02 -0.15681227783E+03  0.54860686657E+03  0.00000000000E+00 0. -1.
         22    1    1    2    0    0  0.58009455012E+03  0.54528362244E+02  0.10537983570E+04  0.12041486646E+04  0.00000000000E+00 0. -1.
<mgrwt>
<rscale>  0 0.16213209E+04</rscale>
<asrwt>0</asrwt>
<pdfrwt beam="1">  1        1 0.20583388E+00 0.16213209E+04</pdfrwt>
<pdfrwt beam="2">  1       -1 0.75567382E-01 0.16213209E+04</pdfrwt>
<totfact> 0.14327855E+01</totfact>
</mgrwt>
</event>
<event>
 6    1  0.1762360E-005  0.2865776E+04  0.7818608E-02  0.8283133E-01
          2   -1    0    0  501    0  0.00000000000E+00  0.00000000000E+00  0.33278048895E+04  0.33278048895E+04  0.00000000000E+00 0. -1.
         -2   -1    0    0    0  501 -0.00000000000E+00 -0.00000000000E+00 -0.61697374521E+03  0.61697374521E+03  0.00000000000E+00 0.  1.
         23    2    1    2    0    0  0.91710822330E+03 -0.84366407595E+03  0.23263202881E+04  0.26406677633E+04  0.92214898318E+02 0.  0.
         13    1    3    3    0    0  0.37718312686E+03 -0.37250800380E+03  0.90218814663E+03  0.10464094686E+04  0.00000000000E+00 0.  1.
        -13    1    3    3    0    0  0.53992509644E+03 -0.47115607215E+03  0.14241321414E+04  0.15942582947E+04  0.00000000000E+00 0. -1.
         22    1    1    2    0    0 -0.91710822330E+03  0.84366407595E+03  0.38451085626E+03  0.13041108714E+04  0.00000000000E+00 0.  1.
<mgrwt>
<rscale>  0 0.28657762E+04</rscale>
<asrwt>0</asrwt>
<pdfrwt beam="1">  1        2 0.51196997E+00 0.28657762E+04</pdfrwt>
<pdfrwt beam="2">  1       -2 0.94919039E-01 0.28657762E+04</pdfrwt>
<totfact> 0.86206837E-01</totfact>
</mgrwt>
</event>
<event>
 6    1  0.1762360E-005  0.1215320E+04  0.7818608E-02  0.9099552E-01
          2   -1    0    0  501    0  0.00000000000E+00  0.00000000000E+00  0.57082334838E+03  0.57082334838E+03  0.00000000000E+00 0.  1.
         -2   -1    0    0    0  501 -0.00000000000E+00 -0.00000000000E+00 -0.64687398066E+03  0.64687398066E+03  0.00000000000E+00 0. -1.
         23    2    1    2    0    0  0.59743707119E+03 -0.77927397178E+02 -0.83463768003E+02  0.61515381372E+03  0.91892767405E+02 0.  0.
         11    1    3    3    0    0  0.72094311274E+02 -0.25783863190E+02 -0.37432261713E+02  0.85226589372E+02  0.00000000000E+00 0. -1.
        -11    1    3    3    0    0  0.52534275992E+03 -0.52143533988E+02 -0.46031506290E+02  0.52992722435E+03  0.00000000000E+00 0.  1.
         22    1    1    2    0    0 -0.59743707119E+03  0.77927397178E+02  0.74131357312E+01  0.60254351532E+03  0.00000000000E+00 0.  1.
<mgrwt>
<rscale>  0 0.12153202E+04</rscale>
<asrwt>0</asrwt>
<pdfrwt beam="1">  1        2 0.87818977E-01 0.12153202E+04</pdfrwt>
<pdfrwt beam="2">  1       -2 0.99519074E-01 0.12153202E+04</pdfrwt>
<totfact> 0.43386453E+01</totfact>
</mgrwt>
</event>
<event>
 6    1  0.1762360E-005  0.9033876E+03  0.7818608E-02  0.9421357E-01
          1   -1    0    0  501    0  0.00000000000E+00  0.00000000000E+00  0.38457358385E+03  0.38457358385E+03  0.00000000000E+00 0. -1.
         -1   -1    0    0    0  501 -0.00000000000E+00 -0.00000000000E+00 -0.53052857890E+03  0.53052857890E+03  0.00000000000E+00 0.  1.
         23    2    1    2    0    0 -0.14051845051E+03 -0.34504235960E+03  0.17666049656E+03  0.42227316576E+03  0.91137427108E+02 0.  0.
         11    1    3    3    0    0 -0.77331613338E+02 -0.10585252603E+03  0.94462913086E+02  0.16158025138E+03  0.00000000000E+00 0. -1.
        -11    1    3    3    0    0 -0.63186837174E+02 -0.23918983357E+03  0.82197583478E+02  0.26069291437E+03  0.00000000000E+00 0.  1.
         22    1    1    2    0    0  0.14051845051E+03  0.34504235960E+03 -0.32261549161E+03  0.49282899700E+03  0.00000000000E+00 0.  1.
<mgrwt>
<rscale>  0 0.90338757E+03</rscale>
<asrwt>0</asrwt>
<pdfrwt beam="1">  1        1 0.59165167E-01 0.90338757E+03</pdfrwt>
<pdfrwt beam="2">  1       -1 0.81619781E-01 0.90338757E+03</pdfrwt>
<totfact> 0.95272381E+01</totfact>
</mgrwt>
</event>
<event>
 6    1  0.1762360E-005  0.2547445E+04  0.7818608E-02  0.8386275E-01
          2   -1    0    0  501    0  0.00000000000E+00  0.00000000000E+00  0.13674584888E+04  0.13674584888E+04  0.00000000000E+00 0.  1.
         -2   -1    0    0    0  501 -0.00000000000E+00 -0.00000000000E+00 -0.11864121458E+04  0.11864121458E+04  0.00000000000E+00 0. -1.
         23    2    1    2    0    0 -0.96875108300E+03 -0.20650806677E+03  0.89088317795E+03  0.13352679206E+04  0.90240459272E+02 0.  0.
         13    1    3    3    0    0 -0.49268110934E+03 -0.15046187654E+03  0.45121059362E+03  0.68480979227E+03  0.00000000000E+00 0.  1.
        -13    1    3    3    0    0 -0.47606997366E+03 -0.56046190235E+02  0.43967258433E+03  0.65045812830E+03  0.00000000000E+00 0. -1.
         22    1    1    2    0    0  0.96875108300E+03  0.20650806677E+03 -0.70983683493E+03  0.12186027140E+04  0.00000000000E+00 0. -1.
<mgrwt>
<rscale>  0 0.25474453E+04</rscale>
<asrwt>0</asrwt>
<pdfrwt beam="1">  1        2 0.21037823E+00 0.25474453E+04</pdfrwt>
<pdfrwt beam="2">  1       -2 0.18252494E+00 0.25474453E+04</pdfrwt>
<totfact> 0.23383433E+00</totfact>
</mgrwt>
</event>
<event>
 6    1  0.1762360E-005  0.2772823E+04  0.7818608E-02  0.8311756E-01
         -2   -1    0    0    0  501 -0.00000000000E+00  0.00000000000E+00  0.94503587154E+03  0.94503587154E+03  0.00000000000E+00 0.  1.
          2   -1    0    0  501    0  0.00000000000E+00 -0.00000000000E+00 -0.20339300743E+04  0.20339300743E+04  0.00000000000E+00 0. -1.
         23    2    1    2    0    0 -0.40300237869E+03 -0.18197290747E+03  0.86441672558E+03  0.97623065653E+03  0.10141480667E+03 0.  0.
         11    1    3    3    0    0 -0.30019333111E+03 -0.16169162627E+03  0.57584850984E+03  0.66922471886E+03  0.00000000000E+00 0. -1.
        -11    1    3    3    0    0 -0.10280904758E+03 -0.20281281195E+02  0.28856821574E+03  0.30700593767E+03  0.00000000000E+00 0.  1.
         22    1    1    2    0    0  0.40300237869E+03  0.18197290747E+03 -0.19533109283E+04  0.20027352893E+04  0.00000000000E+00 0. -1.
<mgrwt>
<rscale>  0 0.27728230E+04</rscale>
<asrwt>0</asrwt>
<pdfrwt beam="1">  1        2 0.31291231E+00 0.27728230E+04</pdfrwt>
<pdfrwt beam="2">  1       -2 0.14539014E+00 0.27728230E+04</pdfrwt>
<totfact> 0.18151781E+00</totfact>
</mgrwt>
</event>
<event>
 6    1  0.1762360E-005  0.2019825E+04  0.7818608E-02  0.8597407E-01
         -2   -1    0    0    0  501 -0.00000000000E+00  0.00000000000E+00  0.60825604116E+03  0.60825604116E+03  0.00000000000E+00 0.  1.
          2   -1    0    0  501    0  0.00000000000E+00 -0.00000000000E+00 -0.16767999538E+04  0.16767999538E+04  0.00000000000E+00 0. -1.
         23    2    1    2    0    0 -0.85290429071E+03  0.17603645961E+03  0.38722178437E+02  0.87634283726E+03  0.89681642954E+02 0.  0.
         11    1    3    3    0    0 -0.33437711175E+03  0.96324922816E+02  0.50331606234E+02  0.35159609526E+03  0.00000000000E+00 0.  1.
        -11    1    3    3    0    0 -0.51852717897E+03  0.79711536792E+02 -0.11609427797E+02  0.52474674200E+03  0.00000000000E+00 0. -1.
         22    1    1    2    0    0  0.85290429071E+03 -0.17603645961E+03 -0.11072660910E+04  0.14087131577E+04  0.00000000000E+00 0. -1.
<mgrwt>
<rscale>  0 0.20198254E+04</rscale>
<asrwt>0</asrwt>
<pdfrwt beam="1">  1        2 0.25796922E+00 0.20198254E+04</pdfrwt>
<pdfrwt beam="2">  1       -2 0.93577853E-01 0.20198254E+04</pdfrwt>
<totfact> 0.90474363E+00</totfact>
</mgrwt>
</event>
<event>
 6    1  0.1762360E-005  0.7005656E+03  0.7818608E-02  0.9716265E-01
          2   -1    0    0  501    0  0.00000000000E+00  0.00000000000E+00  0.89914627403E+03  0.89914627403E+03  0.00000000000E+00 0. -1.
         -2   -1    0    0    0  501 -0.00000000000E+00 -0.00000000000E+00 -0.13646058984E+03  0.13646058984E+03  0.00000000000E+00 0.  1.
         23    2    1    2    0    0 -0.21580530462E+03  0.50762674907E+02 -0.23686649093E+01  0.23907881304E+03  0.89466695513E+02 0.  0.
         13    1    3    3    0    0 -0.64727525038E+02 -0.24338590778E+02 -0.11569479497E+02  0.70113282297E+02  0.00000000000E+00 0. -1.
        -13    1    3    3    0    0 -0.15107777958E+03  0.75101265685E+02  0.92008145873E+01  0.16896553075E+03  0.00000000000E+00 0.  1.
         22    1    1    2    0    0  0.21580530462E+03 -0.50762674907E+02  0.76505434910E+03  0.79652805082E+03  0.00000000000E+00 0. -1.
<mgrwt>
<rscale>  0 0.70056557E+03</rscale>
<asrwt>0</asrwt>
<pdfrwt beam="1">  1        2 0.13833019E+00 0.70056557E+03</pdfrwt>
<pdfrwt beam="2">  1       -2 0.20993937E-01 0.70056557E+03</pdfrwt>
<totfact> 0.57883651E+02</totfact>
</mgrwt>
</event>
<event>
 6    1  0.1762360E-005  0.5298935E+04  0.7818608E-02  0.7783978E-01
         -2   -1    0    0    0  501 -0.00000000000E+00  0.00000000000E+00  0.31975931682E+04  0.31975931682E+04  0.00000000000E+00 0.  1.
          2   -1    0    0  501    0  0.00000000000E+00 -0.00000000000E+00 -0.21953002235E+04  0.21953002235E+04  0.00000000000E+00 0. -1.
         23    2    1    2    0    0  0.10661944794E+04  0.13183271879E+04  0.25721652971E+04  0.30822102795E+04  0.96065855790E+02 0.  0.
         13    1    3    3    0    0  0.80077129186E+03  0.92445392393E+03  0.18301568368E+04  0.22012096144E+04  0.00000000000E+00 0. -1.
        -13    1    3    3    0    0  0.26542318753E+03  0.39387326401E+03  0.74200846034E+03  0.88100066504E+03  0.00000000000E+00 0.  1.
         22    1    1    2    0    0 -0.10661944794E+04 -0.13183271879E+04 -0.15698723525E+04  0.23106831123E+04  0.00000000000E+00 0. -1.
<mgrwt>
<rscale>  0 0.52989346E+04</rscale>
<asrwt>0</asrwt>
<pdfrwt beam="1">  1        2 0.33773849E+00 0.52989346E+04</pdfrwt>
<pdfrwt beam="2">  1       -2 0.49193741E+00 0.52989346E+04</pdfrwt>
<totfact> 0.68956243E-03</totfact>
</mgrwt>
</event>
<event>
 6    1  0.1762360E-005  0.3371847E+04  0.7818608E-02  0.8144851E-01
          2   -1    0    0  501    0  0.00000000000E+00  0.00000000000E+00  0.21955535012E+04  0.21955535012E+04  0.00000000000E+00 0. -1.
         -2   -1    0    0    0  501 -0.00000000000E+00 -0.00000000000E+00 -0.12945880595E+04  0.12945880595E+04  0.00000000000E+00 0.  1.
         23    2    1    2    0    0  0.26139206582E+03  0.88569014343E+02  0.21710534982E+04  0.21904131452E+04  0.90918492150E+02 0.  0.
         13    1    3    3    0    0  0.82310523708E+02  0.42353947018E+02  0.44809659182E+03  0.45755812171E+03  0.00000000000E+00 0.  1.
        -13    1    3    3    0    0  0.17908154211E+03  0.46215067326E+02  0.17229569064E+04  0.17328550235E+04  0.00000000000E+00 0. -1.
         22    1    1    2    0    0 -0.26139206582E+03 -0.88569014343E+02 -0.12700880566E+04  0.12997284155E+04  0.00000000000E+00 0.  1.
<mgrwt>
<rscale>  0 0.33718466E+04</rscale>
<asrwt>0</asrwt>
<pdfrwt beam="1">  1        2 0.33777746E+00 0.33718466E+04</pdfrwt>
<pdfrwt beam="2">  1       -2 0.19916739E+00 0.33718466E+04</pdfrwt>
<totfact> 0.58085291E-01</totfact>
</mgrwt>
</event>
<event>
 6    1  0.1762360E-005  0.2828134E+04  0.7818608E-02  0.8294587E-01
          1   -1    0    0  501    0  0.00000000000E+00  0.00000000000E+00  0.32271526658E+04  0.32271526658E+04  0.00000000000E+00 0. -1.
         -1   -1    0    0    0  501 -0.00000000000E+00 -0.00000000000E+00 -0.61961285977E+03  0.61961285977E+03  0.00000000000E+00 0.  1.
         23    2    1    2    0    0 -0.12014275825E+04 -0.31798476629E+03  0.22186317291E+04  0.25445397233E+04  0.88391779125E+02 0.  0.
         11    1    3    3    0    0 -0.85917667792E+03 -0.25568997610E+03  0.15383741644E+04  0.17804934702E+04  0.00000000000E+00 0.  1.
        -11    1    3    3    0    0 -0.34225090461E+03 -0.62294790185E+02  0.68025756465E+03  0.76404625309E+03  0.00000000000E+00 0. -1.
         22    1    1    2    0    0  0.12014275825E+04  0.31798476629E+03  0.38890807693E+03  0.13022258022E+04  0.00000000000E+00 0.  1.
<mgrwt>
<rscale>  0 0.28281339E+04</rscale>
<asrwt>0</asrwt>
<pdfrwt beam="1">  1        1 0.49648501E+00 0.28281339E+04</pdfrwt>
<pdfrwt beam="2">  1       -1 0.95325057E-01 0.28281339E+04</pdfrwt>
<totfact> 0.37194700E-01</totfact>
</mgrwt>
</event>
<event>
 6    1  0.1762360E-005  0.3520473E+04  0.7818608E-02  0.8108955E-01
          1   -1    0    0  501    0  0.00000000000E+00  0.00000000000E+00  0.15181100021E+04  0.15181100021E+04  0.00000000000E+00 0. -1.
         -1   -1    0    0    0  501 -0.00000000000E+00 -0.00000000000E+00 -0.20409806872E+04  0.20409806872E+04  0.00000000000E+00 0.  1.
         23    2    1    2    0    0 -0.96889179549E+03  0.12264324748E+04 -0.10776050160E+04  0.19005919390E+04  0.90162195961E+02 0.  0.
         11    1    3    3    0    0 -0.64497351602E+03  0.87142891073E+03 -0.77530822147E+03  0.13328473360E+04  0.00000000000E+00 0. -1.
        -11    1    3    3    0    0 -0.32391827947E+03  0.35500356410E+03 -0.30229679453E+03  0.56774460304E+03  0.00000000000E+00 0.  1.
         22    1    1    2    0    0  0.96889179549E+03 -0.12264324748E+04  0.55473433086E+03  0.16584987502E+04  0.00000000000E+00 0.  1.
<mgrwt>
<rscale>  0 0.35204734E+04</rscale>
<asrwt>0</asrwt>
<pdfrwt beam="1">  1        1 0.23355538E+00 0.35204734E+04</pdfrwt>
<pdfrwt beam="2">  1       -1 0.31399703E+00 0.35204734E+04</pdfrwt>
<totfact> 0.13860175E-01</totfact>
</mgrwt>
</event>
<event>
 6    1  0.1762360E-005  0.7007336E+03  0.7818608E-02  0.9715979E-01
          2   -1    0    0  501    0  0.00000000000E+00  0.00000000000E+00  0.81783414787E+03  0.81783414787E+03  0.00000000000E+00 0. -1.
         -2   -1    0    0    0  501 -0.00000000000E+00 -0.00000000000E+00 -0.15009996691E+03  0.15009996691E+03  0.00000000000E+00 0.  1.
         23    2    1    2    0    0  0.16037023166E+03  0.11613948834E+03 -0.49287111723E+02  0.22407490356E+03  0.92592392067E+02 0.  0.
         11    1    3    3    0    0  0.39704438211E+02  0.52818782764E+01 -0.44883633282E+02  0.60157137469E+02  0.00000000000E+00 0.  1.
        -11    1    3    3    0    0  0.12066579345E+03  0.11085761007E+03 -0.44034784406E+01  0.16391776609E+03  0.00000000000E+00 0. -1.
         22    1    1    2    0    0 -0.16037023166E+03 -0.11613948834E+03  0.71702129268E+03  0.74385921122E+03  0.00000000000E+00 0. -1.
<mgrwt>
<rscale>  0 0.70073355E+03</rscale>
<asrwt>0</asrwt>
<pdfrwt beam="1">  1        2 0.12582064E+00 0.70073355E+03</pdfrwt>
<pdfrwt beam="2">  1       -2 0.23092303E-01 0.70073355E+03</pdfrwt>
<totfact> 0.55635463E+02</totfact>
</mgrwt>
</event>
<event>
 6    1  0.1762360E-005  0.2957871E+04  0.7818608E-02  0.8255864E-01
          2   -1    0    0  501    0  0.00000000000E+00  0.00000000000E+00  0.28727162301E+04  0.28727162301E+04  0.00000000000E+00 0. -1.
         -2   -1    0    0    0  501 -0.00000000000E+00 -0.00000000000E+00 -0.76138764862E+03  0.76138764862E+03  0.00000000000E+00 0.  1.
         23    2    1    2    0    0 -0.68822511147E+03  0.11308033932E+04  0.18630143022E+04  0.22872445322E+04  0.91077667210E+02 0.  0.
         13    1    3    3    0    0 -0.56938685662E+02  0.12801556251E+03  0.16188014295E+03  0.21409151980E+03  0.00000000000E+00 0. -1.
        -13    1    3    3    0    0 -0.63128642581E+03  0.10027878307E+04  0.17011341593E+04  0.20731530124E+04  0.00000000000E+00 0.  1.
         22    1    1    2    0    0  0.68822511147E+03 -0.11308033932E+04  0.24831427923E+03  0.13468593465E+04  0.00000000000E+00 0.  1.
<mgrwt>
<rscale>  0 0.29578713E+04</rscale>
<asrwt>0</asrwt>
<pdfrwt beam="1">  1        2 0.44195634E+00 0.29578713E+04</pdfrwt>
<pdfrwt beam="2">  1       -2 0.11713656E+00 0.29578713E+04</pdfrwt>
<totfact> 0.10105390E+00</totfact>
</mgrwt>
</event>
<event>
 6    1  0.1762360E-005  0.1100175E+04  0.7818608E-02  0.9205021E-01
         -2   -1    0    0    0  501 -0.00000000000E+00  0.00000000000E+00  0.36467907398E+03  0.36467907398E+03  0.00000000000E+00 0.  1.
          2   -1    0    0  501    0  0.00000000000E+00 -0.00000000000E+00 -0.82976091892E+03  0.82976091892E+03  0.00000000000E+00 0. -1.
         23    2    1    2    0    0  0.20690837423E+03 -0.25605531207E+03  0.23889510924E+03  0.41729203389E+03  0.93200698315E+02 0.  0.
         11    1    3    3    0    0  0.11813728574E+03 -0.17747901387E+03  0.20052167492E+03  0.29268440471E+03  0.00000000000E+00 0.  1.
        -11    1    3    3    0    0  0.88771088487E+02 -0.78576298199E+02  0.38373434324E+02  0.12460762919E+03  0.00000000000E+00 0. -1.
         22    1    1    2    0    0 -0.20690837423E+03  0.25605531207E+03 -0.70397695418E+03  0.77714795901E+03  0.00000000000E+00 0. -1.
<mgrwt>
<rscale>  0 0.11001753E+04</rscale>
<asrwt>0</asrwt>
<pdfrwt beam="1">  1        2 0.12765552E+00 0.11001753E+04</pdfrwt>
<pdfrwt beam="2">  1       -2 0.56104473E-01 0.11001753E+04</pdfrwt>
<totfact> 0.97143237E+01</totfact>
</mgrwt>
</event>
<event>
 6    1  0.1762360E-005  0.2755544E+04  0.7818608E-02  0.8317204E-01
         -2   -1    0    0    0  501 -0.00000000000E+00  0.00000000000E+00  0.12461694134E+04  0.12461694134E+04  0.00000000000E+00 0. -1.
          2   -1    0    0  501    0  0.00000000000E+00 -0.00000000000E+00 -0.15232728977E+04  0.15232728977E+04  0.00000000000E+00 0.  1.
         23    2    1    2    0    0 -0.12696141337E+04  0.19716840692E+01 -0.67285378452E+03  0.14395768157E+04  0.87893440610E+02 0.  0.
         11    1    3    3    0    0 -0.93671001955E+03  0.37846128489E+02 -0.48085372533E+03  0.10536025319E+04  0.00000000000E+00 0.  1.
        -11    1    3    3    0    0 -0.33290411414E+03 -0.35874444420E+02 -0.19200005919E+03  0.38597428373E+03  0.00000000000E+00 0. -1.
         22    1    1    2    0    0  0.12696141337E+04 -0.19716840692E+01  0.39575030022E+03  0.13298654955E+04  0.00000000000E+00 0.  1.
<mgrwt>
<rscale>  0 0.27555443E+04</rscale>
<asrwt>0</asrwt>
<pdfrwt beam="1">  1        2 0.23434968E+00 0.27555443E+04</pdfrwt>
<pdfrwt beam="2">  1       -2 0.19171837E+00 0.27555443E+04</pdfrwt>
<totfact> 0.16236902E+00</totfact>
</mgrwt>
</event>
<event>
 6    1  0.1762360E-005  0.1148759E+04  0.7818608E-02  0.9158929E-01
          2   -1    0    0  501    0  0.00000000000E+00  0.00000000000E+00  0.12688498702E+04  0.12688498702E+04  0.00000000000E+00 0. -1.
         -2   -1    0    0    0  501 -0.00000000000E+00 -0.00000000000E+00 -0.26000861763E+03  0.26000861763E+03  0.00000000000E+00 0.  1.
         23    2    1    2    0    0 -0.43286348340E+03  0.31344247666E+03  0.24210997246E+03  0.59424956569E+03  0.94330939354E+02 0.  0.
         13    1    3    3    0    0 -0.27871999061E+03  0.17966009366E+03  0.10294634753E+03  0.34721827845E+03  0.00000000000E+00 0.  1.
        -13    1    3    3    0    0 -0.15414349279E+03  0.13378238300E+03  0.13916362493E+03  0.24703128723E+03  0.00000000000E+00 0. -1.
         22    1    1    2    0    0  0.43286348340E+03 -0.31344247666E+03  0.76673128011E+03  0.93460892214E+03  0.00000000000E+00 0. -1.
<mgrwt>
<rscale>  0 0.11487592E+04</rscale>
<asrwt>0</asrwt>
<pdfrwt beam="1">  1        2 0.19520767E+00 0.11487592E+04</pdfrwt>
<pdfrwt beam="2">  1       -2 0.40001327E-01 0.11487592E+04</pdfrwt>
<totfact> 0.10086373E+02</totfact>
</mgrwt>
</event>
<event>
 6    1  0.1762360E-005  0.2900110E+04  0.7818608E-02  0.8272845E-01
          2   -1    0    0  501    0  0.00000000000E+00  0.00000000000E+00  0.27700229295E+04  0.27700229295E+04  0.00000000000E+00 0. -1.
         -2   -1    0    0    0  501 -0.00000000000E+00 -0.00000000000E+00 -0.75907634675E+03  0.75907634675E+03  0.00000000000E+00 0.  1.
         23    2    1    2    0    0 -0.97861828957E+03  0.86380999643E+03  0.24189667025E+03  0.13306000018E+04  0.90116031855E+02 0.  0.
         11    1    3    3    0    0 -0.50778140033E+03  0.39239548792E+03  0.13565133102E+03  0.65590963788E+03  0.00000000000E+00 0.  1.
        -11    1    3    3    0    0 -0.47083688924E+03  0.47141450851E+03  0.10624533922E+03  0.67469036395E+03  0.00000000000E+00 0. -1.
         22    1    1    2    0    0  0.97861828957E+03 -0.86380999643E+03  0.17690499125E+04  0.21984992744E+04  0.00000000000E+00 0. -1.
<mgrwt>
<rscale>  0 0.29001096E+04</rscale>
<asrwt>0</asrwt>
<pdfrwt beam="1">  1        2 0.42615737E+00 0.29001096E+04</pdfrwt>
<pdfrwt beam="2">  1       -2 0.11678098E+00 0.29001096E+04</pdfrwt>
<totfact> 0.11811364E+00</totfact>
</mgrwt>
</event>
<event>
 6    1  0.1762360E-005  0.1783552E+04  0.7818608E-02  0.8715095E-01
         -2   -1    0    0    0  501 -0.00000000000E+00  0.00000000000E+00  0.47664549814E+03  0.47664549814E+03  0.00000000000E+00 0. -1.
          2   -1    0    0  501    0  0.00000000000E+00 -0.00000000000E+00 -0.16684617327E+04  0.16684617327E+04  0.00000000000E+00 0.  1.
         23    2    1    2    0    0  0.78624384901E+03 -0.24814597310E+03 -0.19544827246E+03  0.85185360917E+03  0.87742408096E+02 0.  0.
         11    1    3    3    0    0  0.48103838752E+03 -0.10725040322E+03 -0.12335655792E+03  0.50805257566E+03  0.00000000000E+00 0. -1.
        -11    1    3    3    0    0  0.30520546149E+03 -0.14089556987E+03 -0.72091714546E+02  0.34380103351E+03  0.00000000000E+00 0.  1.
         22    1    1    2    0    0 -0.78624384901E+03  0.24814597310E+03 -0.99636796211E+03  0.12932536217E+04  0.00000000000E+00 0.  1.
<mgrwt>
<rscale>  0 0.17835524E+04</rscale>
<asrwt>0</asrwt>
<pdfrwt beam="1">  1        2 0.25668642E+00 0.17835524E+04</pdfrwt>
<pdfrwt beam="2">  1       -2 0.73330076E-01 0.17835524E+04</pdfrwt>
<totfact> 0.16200897E+01</totfact>
</mgrwt>
</event>
<event>
 6    1  0.1762360E-005  0.1601772E+04  0.7818608E-02  0.8819460E-01
         -2   -1    0    0    0  501 -0.00000000000E+00  0.00000000000E+00  0.32696741086E+03  0.32696741086E+03  0.00000000000E+00 0.  1.
          2   -1    0    0  501    0  0.00000000000E+00 -0.00000000000E+00 -0.19617200026E+04  0.19617200026E+04  0.00000000000E+00 0. -1.
         23    2    1    2    0    0  0.16033808716E+03 -0.30359586165E+03 -0.18497870421E+04  0.18835719186E+04  0.90842291253E+02 0.  0.
         13    1    3    3    0    0  0.15121594810E+03 -0.19945143820E+03 -0.12681338697E+04  0.12925984104E+04  0.00000000000E+00 0.  1.
        -13    1    3    3    0    0  0.91221390582E+01 -0.10414442345E+03 -0.58165317242E+03  0.59097350816E+03  0.00000000000E+00 0. -1.
         22    1    1    2    0    0 -0.16033808716E+03  0.30359586165E+03  0.21503445033E+03  0.40511549493E+03  0.00000000000E+00 0.  1.
<mgrwt>
<rscale>  0 0.16017722E+04</rscale>
<asrwt>0</asrwt>
<pdfrwt beam="1">  1        2 0.30180308E+00 0.16017722E+04</pdfrwt>
<pdfrwt beam="2">  1       -2 0.50302678E-01 0.16017722E+04</pdfrwt>
<totfact> 0.25151574E+01</totfact>
</mgrwt>
</event>
<event>
 6    1  0.1762360E-005  0.3662074E+04  0.7818608E-02  0.8076419E-01
         -2   -1    0    0    0  501 -0.00000000000E+00  0.00000000000E+00  0.10610494591E+04  0.10610494591E+04  0.00000000000E+00 0. -1.
          2   -1    0    0  501    0  0.00000000000E+00 -0.00000000000E+00 -0.31597927940E+04  0.31597927940E+04  0.00000000000E+00 0.  1.
         23    2    1    2    0    0  0.16596731097E+04 -0.77045509625E+03 -0.10695505293E+04  0.21214724150E+04  0.92687574529E+02 0.  0.
         11    1    3    3    0    0  0.13726964549E+04 -0.67073249367E+03 -0.91075810228E+03  0.17786674664E+04  0.00000000000E+00 0. -1.
        -11    1    3    3    0    0  0.28697665478E+03 -0.99722602581E+02 -0.15879242698E+03  0.34280494851E+03  0.00000000000E+00 0.  1.
         22    1    1    2    0    0 -0.16596731097E+04  0.77045509625E+03 -0.10291928057E+04  0.20993698382E+04  0.00000000000E+00 0. -1.
<mgrwt>
<rscale>  0 0.36620740E+04</rscale>
<asrwt>0</asrwt>
<pdfrwt beam="1">  1        2 0.48612197E+00 0.36620740E+04</pdfrwt>
<pdfrwt beam="2">  1       -2 0.16323838E+00 0.36620740E+04</pdfrwt>
<totfact> 0.26605340E-01</totfact>
</mgrwt>
</event>
<event>
 6    1  0.1847733E-005  0.2220310E+04  0.7818608E-02  0.8510022E-01
         -2   -1    0    0    0  501 -0.00000000000E+00  0.00000000000E+00  0.87811324282E+03  0.87811324282E+03  0.00000000000E+00 0.  1.
          2   -1    0    0  501    0  0.00000000000E+00 -0.00000000000E+00 -0.14035140378E+04  0.14035140378E+04  0.00000000000E+00 0. -1.
         23    2    1    2    0    0  0.36904976352E+03  0.71672089179E+03  0.51855175339E+03  0.96264150060E+03  0.88860413349E+02 0.  0.
         11    1    3    3    0    0  0.23472426737E+03  0.35896746024E+03  0.27361051753E+03  0.50873945641E+03  0.00000000000E+00 0. -1.
        -11    1    3    3    0    0  0.13432549615E+03  0.35775343155E+03  0.24494123586E+03  0.45390204419E+03  0.00000000000E+00 0.  1.
         22    1    1    2    0    0 -0.36904976352E+03 -0.71672089179E+03 -0.10439525484E+04  0.13189857801E+04  0.00000000000E+00 0. -1.
<mgrwt>
<rscale>  0 0.22203101E+04</rscale>
<asrwt>0</asrwt>
<pdfrwt beam="1">  1        2 0.21592523E+00 0.22203101E+04</pdfrwt>
<pdfrwt beam="2">  1       -2 0.13509435E+00 0.22203101E+04</pdfrwt>
<totfact> 0.51770270E+00</totfact>
</mgrwt>
</event>
<event>
 6    1  0.1762360E-005  0.1240823E+04  0.7818608E-02  0.9077856E-01
          2   -1    0    0  501    0  0.00000000000E+00  0.00000000000E+00  0.93539403947E+03  0.93539403947E+03  0.00000000000E+00 0. -1.
         -2   -1    0    0    0  501 -0.00000000000E+00 -0.00000000000E+00 -0.41149551224E+03  0.41149551224E+03  0.00000000000E+00 0.  1.
         23    2    1    2    0    0  0.78864092904E+02 -0.59689969972E+03  0.11941148346E+03  0.62154924175E+03  0.97752549119E+02 0.  0.
         13    1    3    3    0    0  0.32067926894E+02 -0.51219292592E+03  0.99975407726E+02  0.52284321498E+03  0.00000000000E+00 0. -1.
        -13    1    3    3    0    0  0.46796166010E+02 -0.84706773801E+02  0.19436075732E+02  0.98706026771E+02  0.00000000000E+00 0.  1.
         22    1    1    2    0    0 -0.78864092904E+02  0.59689969972E+03  0.40448704377E+03  0.72534030996E+03  0.00000000000E+00 0. -1.
<mgrwt>
<rscale>  0 0.12408230E+04</rscale>
<asrwt>0</asrwt>
<pdfrwt beam="1">  1        2 0.14390677E+00 0.12408230E+04</pdfrwt>
<pdfrwt beam="2">  1       -2 0.63307002E-01 0.12408230E+04</pdfrwt>
<totfact> 0.63134560E+01</totfact>
</mgrwt>
</event>
<event>
 6    1  0.1762360E-005  0.1678173E+04  0.7818608E-02  0.8773912E-01
         -2   -1    0    0    0  501 -0.00000000000E+00  0.00000000000E+00  0.54013144268E+03  0.54013144268E+03  0.00000000000E+00 0.  1.
          2   -1    0    0  501    0  0.00000000000E+00 -0.00000000000E+00 -0.13035089122E+04  0.13035089122E+04  0.00000000000E+00 0. -1.
         23    2    1    2    0    0  0.61650868769E+03  0.23758334843E+02  0.23788367307E+03  0.66755732374E+03  0.91633607832E+02 0.  0.
         13    1    3    3    0    0  0.49882115617E+03  0.49181853093E+02  0.21295254718E+03  0.54460094369E+03  0.00000000000E+00 0. -1.
        -13    1    3    3    0    0  0.11768753152E+03 -0.25423518250E+02  0.24931125893E+02  0.12295638005E+03  0.00000000000E+00 0.  1.
         22    1    1    2    0    0 -0.61650868769E+03 -0.23758334843E+02 -0.10012611426E+04  0.11760830312E+04  0.00000000000E+00 0. -1.
<mgrwt>
<rscale>  0 0.16781730E+04</rscale>
<asrwt>0</asrwt>
<pdfrwt beam="1">  1        2 0.20053983E+00 0.16781730E+04</pdfrwt>
<pdfrwt beam="2">  1       -2 0.83097145E-01 0.16781730E+04</pdfrwt>
<totfact> 0.19896820E+01</totfact>
</mgrwt>
</event>
<event>
 6    1  0.1762360E-005  0.2043707E+04  0.7818608E-02  0.8586454E-01
         -1   -1    0    0    0  501 -0.00000000000E+00  0.00000000000E+00  0.49022621201E+03  0.49022621201E+03  0.00000000000E+00 0.  1.
          1   -1    0    0  501    0  0.00000000000E+00 -0.00000000000E+00 -0.21300064671E+04  0.21300064671E+04  0.00000000000E+00 0. -1.
         23    2    1    2    0    0  0.29923801023E+03  0.97499902544E+03 -0.82843976254E+03  0.13169906136E+04  0.89360784852E+02 0.  0.
         11    1    3    3    0    0  0.23478077284E+03  0.65211519205E+03 -0.59392341736E+03  0.91275476481E+03  0.00000000000E+00 0. -1.
        -11    1    3    3    0    0  0.64457237387E+02  0.32288383340E+03 -0.23451634518E+03  0.40423584883E+03  0.00000000000E+00 0.  1.
         22    1    1    2    0    0 -0.29923801023E+03 -0.97499902544E+03 -0.81134049257E+03  0.13032420655E+04  0.00000000000E+00 0. -1.
<mgrwt>
<rscale>  0 0.20437074E+04</rscale>
<asrwt>0</asrwt>
<pdfrwt beam="1">  1        1 0.32769331E+00 0.20437074E+04</pdfrwt>
<pdfrwt beam="2">  1       -1 0.75419416E-01 0.20437074E+04</pdfrwt>
<totfact> 0.39706408E+00</totfact>
</mgrwt>
</event>
<event>
 6    1  0.1762360E-005  0.2318150E+04  0.7818608E-02  0.8470799E-01
          1   -1    0    0  501    0  0.00000000000E+00  0.00000000000E+00  0.23477444250E+04  0.23477444250E+04  0.00000000000E+00 0. -1.
         -1   -1    0    0    0  501 -0.00000000000E+00 -0.00000000000E+00 -0.57223209769E+03  0.57223209769E+03  0.00000000000E+00 0.  1.
         23    2    1    2    0    0 -0.56539030512E+03  0.82259583810E+03  0.16267937160E+04  0.19107950051E+04  0.91376404000E+02 0.  0.
         13    1    3    3    0    0 -0.46812716449E+03  0.62221710253E+03  0.12986857137E+04  0.15142264519E+04  0.00000000000E+00 0. -1.
        -13    1    3    3    0    0 -0.97263140634E+02  0.20037873558E+03  0.32810800230E+03  0.39656855318E+03  0.00000000000E+00 0.  1.
         22    1    1    2    0    0  0.56539030512E+03 -0.82259583810E+03  0.14871861128E+03  0.10091815175E+04  0.00000000000E+00 0.  1.
<mgrwt>
<rscale>  0 0.23181499E+04</rscale>
<asrwt>0</asrwt>
<pdfrwt beam="1">  1        1 0.36119144E+00 0.23181499E+04</pdfrwt>
<pdfrwt beam="2">  1       -1 0.88035709E-01 0.23181499E+04</pdfrwt>
<totfact> 0.19747743E+00</totfact>
</mgrwt>
</event>
<event>
 6    1  0.1762360E-005  0.4238213E+04  0.7818608E-02  0.7958143E-01
         -2   -1    0    0    0  501 -0.00000000000E+00  0.00000000000E+00  0.34747778603E+04  0.34747778603E+04  0.00000000000E+00 0.  1.
          2   -1    0    0  501    0  0.00000000000E+00 -0.00000000000E+00 -0.12923449365E+04  0.12923449365E+04  0.00000000000E+00 0. -1.
         23    2    1    2    0    0 -0.20086784303E+04 -0.61273571553E+03  0.14022710675E+04  0.25268356242E+04  0.91104508488E+02 0.  0.
         13    1    3    3    0    0 -0.76686219746E+03 -0.26108774760E+03  0.49774300027E+03  0.95078522084E+03  0.00000000000E+00 0. -1.
        -13    1    3    3    0    0 -0.12418162328E+04 -0.35164796794E+03  0.90452806725E+03  0.15760504034E+04  0.00000000000E+00 0.  1.
         22    1    1    2    0    0  0.20086784303E+04  0.61273571553E+03  0.78016185632E+03  0.22402871725E+04  0.00000000000E+00 0.  1.
<mgrwt>
<rscale>  0 0.42382126E+04</rscale>
<asrwt>0</asrwt>
<pdfrwt beam="1">  1        2 0.19882230E+00 0.42382126E+04</pdfrwt>
<pdfrwt beam="2">  1       -2 0.53458121E+00 0.42382126E+04</pdfrwt>
<totfact> 0.13380936E-02</totfact>
</mgrwt>
</event>
<event>
 6    1  0.1762360E-005  0.1936949E+04  0.7818608E-02  0.8636680E-01
          2   -1    0    0  501    0  0.00000000000E+00  0.00000000000E+00  0.17122769697E+04  0.17122769697E+04  0.00000000000E+00 0. -1.
         -2   -1    0    0    0  501 -0.00000000000E+00 -0.00000000000E+00 -0.54777542402E+03  0.54777542402E+03  0.00000000000E+00 0.  1.
         23    2    1    2    0    0  0.67498500074E+03 -0.35538768904E+03  0.12757803489E+04  0.14891515358E+04  0.89730915227E+02 0.  0.
         13    1    3    3    0    0  0.10253884566E+03 -0.88207224457E+02  0.25657011614E+03  0.29003957284E+03  0.00000000000E+00 0.  1.
        -13    1    3    3    0    0  0.57244615508E+03 -0.26718046458E+03  0.10192102327E+04  0.11991119629E+04  0.00000000000E+00 0. -1.
         22    1    1    2    0    0 -0.67498500074E+03  0.35538768904E+03 -0.11127880321E+03  0.77090085795E+03  0.00000000000E+00 0.  1.
<mgrwt>
<rscale>  0 0.19369494E+04</rscale>
<asrwt>0</asrwt>
<pdfrwt beam="1">  1        2 0.26342722E+00 0.19369494E+04</pdfrwt>
<pdfrwt beam="2">  1       -2 0.84273143E-01 0.19369494E+04</pdfrwt>
<totfact> 0.11075903E+01</totfact>
</mgrwt>
</event>
<event>
 6    1  0.1762360E-005  0.1094115E+04  0.7818608E-02  0.9210947E-01
          2   -1    0    0  501    0  0.00000000000E+00  0.00000000000E+00  0.46601460708E+04  0.46601460708E+04  0.00000000000E+00 0. -1.
         -2   -1    0    0    0  501 -0.00000000000E+00 -0.00000000000E+00 -0.64219429735E+02  0.64219429735E+02  0.00000000000E+00 0.  1.
         23    2    1    2    0    0 -0.41679471807E+02 -0.52584882438E+03  0.28759406693E+04  0.29253085510E+04  0.90228714777E+02 0.  0.
         13    1    3    3    0    0 -0.42186208279E+02 -0.12840622411E+03  0.86108264001E+03  0.87162557757E+03  0.00000000000E+00 0. -1.
        -13    1    3    3    0    0  0.50673647192E+00 -0.39744260027E+03  0.20148580293E+04  0.20536829734E+04  0.00000000000E+00 0.  1.
         22    1    1    2    0    0  0.41679471807E+02  0.52584882438E+03  0.17199859718E+04  0.17990569495E+04  0.00000000000E+00 0.  1.
<mgrwt>
<rscale>  0 0.10941150E+04</rscale>
<asrwt>0</asrwt>
<pdfrwt beam="1">  1        2 0.71694529E+00 0.10941150E+04</pdfrwt>
<pdfrwt beam="2">  1       -2 0.98799159E-02 0.10941150E+04</pdfrwt>
<totfact> 0.63586542E+00</totfact>
</mgrwt>
</event>
<event>
 6    1  0.1762360E-005  0.3367777E+04  0.7818608E-02  0.8145860E-01
         -1   -1    0    0    0  501 -0.00000000000E+00  0.00000000000E+00  0.15340869979E+04  0.15340869979E+04  0.00000000000E+00 0.  1.
          1   -1    0    0  501    0  0.00000000000E+00 -0.00000000000E+00 -0.18483183428E+04  0.18483183428E+04  0.00000000000E+00 0. -1.
         23    2    1    2    0    0  0.30540702609E+03 -0.16545792671E+04 -0.13355553473E+03  0.16902027077E+04  0.89677809209E+02 0.  0.
         13    1    3    3    0    0  0.15340273146E+03 -0.73938666484E+03 -0.10145678020E+03  0.76191765724E+03  0.00000000000E+00 0. -1.
        -13    1    3    3    0    0  0.15200429463E+03 -0.91519260224E+03 -0.32098754524E+02  0.92828505042E+03  0.00000000000E+00 0.  1.
         22    1    1    2    0    0 -0.30540702609E+03  0.16545792671E+04 -0.18067581019E+03  0.16922026330E+04  0.00000000000E+00 0.  1.
<mgrwt>
<rscale>  0 0.33677774E+04</rscale>
<asrwt>0</asrwt>
<pdfrwt beam="1">  1        1 0.28435667E+00 0.33677774E+04</pdfrwt>
<pdfrwt beam="2">  1       -1 0.23601339E+00 0.33677774E+04</pdfrwt>
<totfact> 0.26838925E-01</totfact>
</mgrwt>
</event>
<event>
 6    1  0.1762360E-005  0.3152943E+04  0.7818608E-02  0.8201356E-01
         -2   -1    0    0    0  501 -0.00000000000E+00  0.00000000000E+00  0.24160284097E+04  0.24160284097E+04  0.00000000000E+00 0.  1.
          2   -1    0    0  501    0  0.00000000000E+00 -0.00000000000E+00 -0.10286562587E+04  0.10286562587E+04  0.00000000000E+00 0. -1.
         23    2    1    2    0    0  0.12502321319E+04  0.12340405576E+03 -0.34380125565E+03  0.13056965178E+04  0.91297034601E+02 0.  0.
         13    1    3    3    0    0  0.32295939902E+03  0.62560424575E+02 -0.63102266024E+02  0.33496040978E+03  0.00000000000E+00 0. -1.
        -13    1    3    3    0    0  0.92727273291E+03  0.60843631186E+02 -0.28069898962E+03  0.97073610803E+03  0.00000000000E+00 0.  1.
         22    1    1    2    0    0 -0.12502321319E+04 -0.12340405576E+03  0.17311734066E+04  0.21389881506E+04  0.00000000000E+00 0.  1.
<mgrwt>
<rscale>  0 0.31529432E+04</rscale>
<asrwt>0</asrwt>
<pdfrwt beam="1">  1        2 0.15825481E+00 0.31529432E+04</pdfrwt>
<pdfrwt beam="2">  1       -2 0.37169668E+00 0.31529432E+04</pdfrwt>
<totfact> 0.23100102E-01</totfact>
</mgrwt>
</event>
<event>
 6    1  0.1762360E-005  0.3453848E+04  0.7818608E-02  0.8124815E-01
          2   -1    0    0  501    0  0.00000000000E+00  0.00000000000E+00  0.20567472647E+04  0.20567472647E+04  0.00000000000E+00 0. -1.
         -2   -1    0    0    0  501 -0.00000000000E+00 -0.00000000000E+00 -0.14499914170E+04  0.14499914170E+04  0.00000000000E+00 0.  1.
         23    2    1    2    0    0  0.15863368831E+04 -0.46066704857E+03  0.81056512355E+03  0.18423417767E+04  0.92350238346E+02 0.  0.
         13    1    3    3    0    0  0.73079653058E+03 -0.22932649257E+03  0.42375483112E+03  0.87534128556E+03  0.00000000000E+00 0. -1.
        -13    1    3    3    0    0  0.85554035250E+03 -0.23134055600E+03  0.38681029243E+03  0.96700049117E+03  0.00000000000E+00 0.  1.
         22    1    1    2    0    0 -0.15863368831E+04  0.46066704857E+03 -0.20380927585E+03  0.16643969049E+04  0.00000000000E+00 0.  1.
<mgrwt>
<rscale>  0 0.34538476E+04</rscale>
<asrwt>0</asrwt>
<pdfrwt beam="1">  1        2 0.31642266E+00 0.34538476E+04</pdfrwt>
<pdfrwt beam="2">  1       -2 0.22307560E+00 0.34538476E+04</pdfrwt>
<totfact> 0.48425324E-01</totfact>
</mgrwt>
</event>
<event>
 6    1  0.1762360E-005  0.3940570E+04  0.7818608E-02  0.8016644E-01
         -2   -1    0    0    0  501 -0.00000000000E+00  0.00000000000E+00  0.22286355654E+04  0.22286355654E+04  0.00000000000E+00 0.  1.
          2   -1    0    0  501    0  0.00000000000E+00 -0.00000000000E+00 -0.17418834984E+04  0.17418834984E+04  0.00000000000E+00 0. -1.
         23    2    1    2    0    0 -0.48395807624E+03 -0.32470393542E+03 -0.16517383144E+04  0.17540378036E+04  0.93600705719E+02 0.  0.
         11    1    3    3    0    0 -0.28693342405E+03 -0.15892642067E+03 -0.81331349035E+03  0.87696478300E+03  0.00000000000E+00 0.  1.
        -11    1    3    3    0    0 -0.19702465219E+03 -0.16577751475E+03 -0.83842482402E+03  0.87707302062E+03  0.00000000000E+00 0. -1.
         22    1    1    2    0    0  0.48395807624E+03  0.32470393542E+03  0.21384903814E+04  0.22164812601E+04  0.00000000000E+00 0.  1.
<mgrwt>
<rscale>  0 0.39405703E+04</rscale>
<asrwt>0</asrwt>
<pdfrwt beam="1">  1        2 0.26798208E+00 0.39405703E+04</pdfrwt>
<pdfrwt beam="2">  1       -2 0.34286701E+00 0.39405703E+04</pdfrwt>
<totfact> 0.12707552E-01</totfact>
</mgrwt>
</event>
<event>
 6    1  0.1762360E-005  0.9722897E+03  0.7818608E-02  0.9339470E-01
         -2   -1    0    0    0  501 -0.00000000000E+00  0.00000000000E+00  0.13115524159E+03  0.13115524159E+03  0.00000000000E+00 0.  1.
          2   -1    0    0  501    0  0.00000000000E+00 -0.00000000000E+00 -0.18019623149E+04  0.18019623149E+04  0.00000000000E+00 0. -1.
         23    2    1    2    0    0 -0.41630503484E+03  0.23595514491E+03 -0.95492087799E+03  0.10720265293E+04  0.91554813483E+02 0.  0.
         13    1    3    3    0    0 -0.36441911752E+03  0.19462756171E+03 -0.74511839653E+03  0.85198744465E+03  0.00000000000E+00 0. -1.
        -13    1    3    3    0    0 -0.51885917313E+02  0.41327583195E+02 -0.20980248147E+03  0.22003908466E+03  0.00000000000E+00 0.  1.
         22    1    1    2    0    0  0.41630503484E+03 -0.23595514491E+03 -0.71588619529E+03  0.86109102715E+03  0.00000000000E+00 0.  1.
<mgrwt>
<rscale>  0 0.97228967E+03</rscale>
<asrwt>0</asrwt>
<pdfrwt beam="1">  1        2 0.27722496E+00 0.97228967E+03</pdfrwt>
<pdfrwt beam="2">  1       -2 0.20177730E-01 0.97228967E+03</pdfrwt>
<totfact> 0.18141148E+02</totfact>
</mgrwt>
</event>
<event>
 6    1  0.1762360E-005  0.3920974E+04  0.7818608E-02  0.8020681E-01
         -2   -1    0    0    0  501 -0.00000000000E+00  0.00000000000E+00  0.21250470552E+04  0.21250470552E+04  0.00000000000E+00 0.  1.
          2   -1    0    0  501    0  0.00000000000E+00 -0.00000000000E+00 -0.18086697936E+04  0.18086697936E+04  0.00000000000E+00 0. -1.
         23    2    1    2    0    0  0.14123639558E+04 -0.12111252399E+04 -0.45833564128E+03  0.19183319297E+04  0.91266325053E+02 0.  0.
         13    1    3    3    0    0  0.95055903719E+03 -0.75840543535E+03 -0.29321781954E+03  0.12508868763E+04  0.00000000000E+00 0.  1.
        -13    1    3    3    0    0  0.46180491859E+03 -0.45271980454E+03 -0.16511782173E+03  0.66744505340E+03  0.00000000000E+00 0. -1.
         22    1    1    2    0    0 -0.14123639558E+04  0.12111252399E+04  0.77471290293E+03  0.20153849191E+04  0.00000000000E+00 0.  1.
<mgrwt>
<rscale>  0 0.39209736E+04</rscale>
<asrwt>0</asrwt>
<pdfrwt beam="1">  1        2 0.27825689E+00 0.39209736E+04</pdfrwt>
<pdfrwt beam="2">  1       -2 0.32693032E+00 0.39209736E+04</pdfrwt>
<totfact> 0.14693608E-01</totfact>
</mgrwt>
</event>
<event>
 6    1  0.1762360E-005  0.3515390E+04  0.7818608E-02  0.8110152E-01
          2   -1    0    0  501    0  0.00000000000E+00  0.00000000000E+00  0.34286529969E+04  0.34286529969E+04  0.00000000000E+00 0. -1.
         -2   -1    0    0    0  501 -0.00000000000E+00 -0.00000000000E+00 -0.90108032963E+03  0.90108032963E+03  0.00000000000E+00 0.  1.
         23    2    1    2    0    0  0.65740134486E+03  0.14749778183E+04  0.41362762504E+03  0.16695642089E+04  0.92847954231E+02 0.  0.
         13    1    3    3    0    0  0.10505082651E+03  0.19150461947E+03  0.83280862832E+02  0.23376355050E+03  0.00000000000E+00 0.  1.
        -13    1    3    3    0    0  0.55235051834E+03  0.12834731989E+04  0.33034676221E+03  0.14358006584E+04  0.00000000000E+00 0. -1.
         22    1    1    2    0    0 -0.65740134486E+03 -0.14749778183E+04  0.21139450422E+04  0.26601691176E+04  0.00000000000E+00 0. -1.
<mgrwt>
<rscale>  0 0.35153900E+04</rscale>
<asrwt>0</asrwt>
<pdfrwt beam="1">  1        2 0.52748507E+00 0.35153900E+04</pdfrwt>
<pdfrwt beam="2">  1       -2 0.13862774E+00 0.35153900E+04</pdfrwt>
<totfact> 0.27514243E-01</totfact>
</mgrwt>
</event>
<event>
 6    1  0.2996018E-005  0.4724975E+04  0.7818608E-02  0.7872392E-01
          1   -1    0    0  501    0  0.00000000000E+00  0.00000000000E+00  0.24841591929E+04  0.24841591929E+04  0.00000000000E+00 0. -1.
         -1   -1    0    0    0  501 -0.00000000000E+00 -0.00000000000E+00 -0.22467747850E+04  0.22467747850E+04  0.00000000000E+00 0.  1.
         23    2    1    2    0    0 -0.20214653150E+04 -0.10850607474E+04  0.67947879445E+03  0.23944566526E+04  0.89735074263E+02 0.  0.
         11    1    3    3    0    0 -0.89683048566E+03 -0.45500797303E+03  0.25821995473E+03  0.10382748772E+04  0.00000000000E+00 0.  1.
        -11    1    3    3    0    0 -0.11246348294E+04 -0.63005277436E+03  0.42125883972E+03  0.13561817754E+04  0.00000000000E+00 0. -1.
         22    1    1    2    0    0  0.20214653150E+04  0.10850607474E+04 -0.44209438655E+03  0.23364773254E+04  0.00000000000E+00 0.  1.
<mgrwt>
<rscale>  0 0.47249746E+04</rscale>
<asrwt>0</asrwt>
<pdfrwt beam="1">  1        1 0.38217834E+00 0.47249746E+04</pdfrwt>
<pdfrwt beam="2">  1       -1 0.34565766E+00 0.47249746E+04</pdfrwt>
<totfact> 0.17021726E-02</totfact>
</mgrwt>
</event>
<event>
 6    1  0.1762360E-005  0.2622459E+04  0.7818608E-02  0.8360612E-01
         -1   -1    0    0    0  501 -0.00000000000E+00  0.00000000000E+00  0.70041276339E+03  0.70041276339E+03  0.00000000000E+00 0.  1.
          1   -1    0    0  501    0  0.00000000000E+00 -0.00000000000E+00 -0.24547277681E+04  0.24547277681E+04  0.00000000000E+00 0. -1.
         23    2    1    2    0    0 -0.57851206103E+03 -0.10942469337E+04 -0.13931123513E+04  0.18657531135E+04  0.90664769998E+02 0.  0.
         11    1    3    3    0    0 -0.13503616126E+03 -0.18522057698E+03 -0.23876689971E+03  0.33098498362E+03  0.00000000000E+00 0. -1.
        -11    1    3    3    0    0 -0.44347589977E+03 -0.90902635675E+03 -0.11543454516E+04  0.15347681299E+04  0.00000000000E+00 0.  1.
         22    1    1    2    0    0  0.57851206103E+03  0.10942469337E+04 -0.36120265338E+03  0.12893874179E+04  0.00000000000E+00 0.  1.
<mgrwt>
<rscale>  0 0.26224589E+04</rscale>
<asrwt>0</asrwt>
<pdfrwt beam="1">  1        1 0.37765043E+00 0.26224589E+04</pdfrwt>
<pdfrwt beam="2">  1       -1 0.10775581E+00 0.26224589E+04</pdfrwt>
<totfact> 0.10252364E+00</totfact>
</mgrwt>
</event>
<event>
 6    1  0.1762360E-005  0.2586531E+04  0.7818608E-02  0.8372791E-01
         -1   -1    0    0    0  501 -0.00000000000E+00  0.00000000000E+00  0.83758037591E+03  0.83758037591E+03  0.00000000000E+00 0.  1.
          1   -1    0    0  501    0  0.00000000000E+00 -0.00000000000E+00 -0.19968654856E+04  0.19968654856E+04  0.00000000000E+00 0. -1.
         23    2    1    2    0    0 -0.99026693296E+03 -0.28918001662E+01  0.32847575769E+03  0.10472499127E+04  0.90548855318E+02 0.  0.
         11    1    3    3    0    0 -0.24832203480E+03  0.28758392714E+02  0.11038252060E+03  0.27326759591E+03  0.00000000000E+00 0.  1.
        -11    1    3    3    0    0 -0.74194489817E+03 -0.31650192880E+02  0.21809323709E+03  0.77398231678E+03  0.00000000000E+00 0. -1.
         22    1    1    2    0    0  0.99026693296E+03  0.28918001662E+01 -0.14877608674E+04  0.17871959489E+04  0.00000000000E+00 0. -1.
<mgrwt>
<rscale>  0 0.25865308E+04</rscale>
<asrwt>0</asrwt>
<pdfrwt beam="1">  1        1 0.30721007E+00 0.25865308E+04</pdfrwt>
<pdfrwt beam="2">  1       -1 0.12885852E+00 0.25865308E+04</pdfrwt>
<totfact> 0.13690952E+00</totfact>
</mgrwt>
</event>
<event>
 6    1  0.1762360E-005  0.1898530E+04  0.7818608E-02  0.8655588E-01
          2   -1    0    0  501    0  0.00000000000E+00  0.00000000000E+00  0.73159408551E+03  0.73159408551E+03  0.00000000000E+00 0. -1.
         -2   -1    0    0    0  501 -0.00000000000E+00 -0.00000000000E+00 -0.12317000383E+04  0.12317000383E+04  0.00000000000E+00 0.  1.
         23    2    1    2    0    0  0.68834655741E+03 -0.44363930450E+03  0.24157997837E+03  0.85842542750E+03  0.88862326335E+02 0.  0.
         13    1    3    3    0    0  0.53662813090E+03 -0.38767066016E+03  0.19564846666E+03  0.69031631454E+03  0.00000000000E+00 0.  1.
        -13    1    3    3    0    0  0.15171842651E+03 -0.55968644345E+02  0.45931511705E+02  0.16810911296E+03  0.00000000000E+00 0. -1.
         22    1    1    2    0    0 -0.68834655741E+03  0.44363930450E+03 -0.74168593118E+03  0.11048686963E+04  0.00000000000E+00 0.  1.
<mgrwt>
<rscale>  0 0.18985304E+04</rscale>
<asrwt>0</asrwt>
<pdfrwt beam="1">  1        2 0.11255294E+00 0.18985304E+04</pdfrwt>
<pdfrwt beam="2">  1       -2 0.18949231E+00 0.18985304E+04</pdfrwt>
<totfact> 0.56629574E+00</totfact>
</mgrwt>
</event>
<event>
 6    1  0.1762360E-005  0.3644837E+04  0.7818608E-02  0.8080298E-01
          2   -1    0    0  501    0  0.00000000000E+00  0.00000000000E+00  0.33831252988E+04  0.33831252988E+04  0.00000000000E+00 0.  1.
         -2   -1    0    0    0  501 -0.00000000000E+00 -0.00000000000E+00 -0.98169833031E+03  0.98169833031E+03  0.00000000000E+00 0. -1.
         23    2    1    2    0    0 -0.67348931803E+03 -0.89820102237E+03  0.29188844293E+04  0.31286540769E+04  0.90758378313E+02 0.  0.
         11    1    3    3    0    0 -0.35096361698E+03 -0.39262506822E+03  0.13690837569E+04  0.14668743089E+04  0.00000000000E+00 0. -1.
        -11    1    3    3    0    0 -0.32252570106E+03 -0.50557595415E+03  0.15498006724E+04  0.16617797681E+04  0.00000000000E+00 0.  1.
         22    1    1    2    0    0  0.67348931803E+03  0.89820102237E+03 -0.51745746081E+03  0.12361695522E+04  0.00000000000E+00 0. -1.
<mgrwt>
<rscale>  0 0.36448366E+04</rscale>
<asrwt>0</asrwt>
<pdfrwt beam="1">  1        2 0.52048081E+00 0.36448366E+04</pdfrwt>
<pdfrwt beam="2">  1       -2 0.15103051E+00 0.36448366E+04</pdfrwt>
<totfact> 0.23356982E-01</totfact>
</mgrwt>
</event>
<event>
 6    1  0.1786410E-005  0.4066977E+04  0.7818608E-02  0.7991170E-01
          2   -1    0    0  501    0  0.00000000000E+00  0.00000000000E+00  0.24267290861E+04  0.24267290861E+04  0.00000000000E+00 0. -1.
         -2   -1    0    0    0  501 -0.00000000000E+00 -0.00000000000E+00 -0.17039711549E+04  0.17039711549E+04  0.00000000000E+00 0.  1.
         23    2    1    2    0    0  0.64606840882E+03 -0.19092299502E+04  0.96380029753E+02  0.20200338375E+04  0.93189069312E+02 0.  0.
         13    1    3    3    0    0  0.38812031491E+03 -0.10064140011E+04  0.62996745509E+02  0.10804976217E+04  0.00000000000E+00 0. -1.
        -13    1    3    3    0    0  0.25794809391E+03 -0.90281594911E+03  0.33383284244E+02  0.93953621580E+03  0.00000000000E+00 0.  1.
         22    1    1    2    0    0 -0.64606840882E+03  0.19092299502E+04  0.62637790138E+03  0.21106664036E+04  0.00000000000E+00 0. -1.
<mgrwt>
<rscale>  0 0.40669774E+04</rscale>
<asrwt>0</asrwt>
<pdfrwt beam="1">  1        2 0.37334294E+00 0.40669774E+04</pdfrwt>
<pdfrwt beam="2">  1       -2 0.26214941E+00 0.40669774E+04</pdfrwt>
<totfact> 0.16298676E-01</totfact>
</mgrwt>
</event>
<event>
 6    1  0.1762360E-005  0.3007729E+04  0.7818608E-02  0.8241527E-01
         -2   -1    0    0    0  501 -0.00000000000E+00  0.00000000000E+00  0.16063771840E+04  0.16063771840E+04  0.00000000000E+00 0.  1.
          2   -1    0    0  501    0  0.00000000000E+00 -0.00000000000E+00 -0.14078938066E+04  0.14078938066E+04  0.00000000000E+00 0. -1.
         23    2    1    2    0    0  0.68149998582E+03 -0.69620166605E+03  0.12456430466E+04  0.15839974632E+04  0.91007546268E+02 0.  0.
         13    1    3    3    0    0  0.86833214606E+02 -0.10408478364E+03  0.12855269994E+03  0.18681393419E+03  0.00000000000E+00 0. -1.
        -13    1    3    3    0    0  0.59466677121E+03 -0.59211688242E+03  0.11170903466E+04  0.13971835290E+04  0.00000000000E+00 0.  1.
         22    1    1    2    0    0 -0.68149998582E+03  0.69620166605E+03 -0.10471596691E+04  0.14302735274E+04  0.00000000000E+00 0. -1.
<mgrwt>
<rscale>  0 0.30077290E+04</rscale>
<asrwt>0</asrwt>
<pdfrwt beam="1">  1        2 0.21659905E+00 0.30077290E+04</pdfrwt>
<pdfrwt beam="2">  1       -2 0.24713495E+00 0.30077290E+04</pdfrwt>
<totfact> 0.81995265E-01</totfact>
</mgrwt>
</event>
<event>
 6    1  0.1762360E-005  0.2159254E+04  0.7818608E-02  0.8535581E-01
          2   -1    0    0  501    0  0.00000000000E+00  0.00000000000E+00  0.13127815770E+04  0.13127815770E+04  0.00000000000E+00 0. -1.
         -2   -1    0    0    0  501 -0.00000000000E+00 -0.00000000000E+00 -0.88788169018E+03  0.88788169018E+03  0.00000000000E+00 0.  1.
         23    2    1    2    0    0 -0.27371607524E-01  0.96650480070E+03  0.69870933903E+03  0.11961220053E+04  0.91550973205E+02 0.  0.
         11    1    3    3    0    0 -0.33385874808E+02  0.17792785402E+03  0.11539669248E+03  0.21468426703E+03  0.00000000000E+00 0. -1.
        -11    1    3    3    0    0  0.33358503201E+02  0.78857694668E+03  0.58331264655E+03  0.98143773832E+03  0.00000000000E+00 0.  1.
         22    1    1    2    0    0  0.27371607524E-01 -0.96650480070E+03 -0.27380945225E+03  0.10045412618E+04  0.00000000000E+00 0.  1.
<mgrwt>
<rscale>  0 0.21592542E+04</rscale>
<asrwt>0</asrwt>
<pdfrwt beam="1">  1        2 0.20196640E+00 0.21592542E+04</pdfrwt>
<pdfrwt beam="2">  1       -2 0.13659718E+00 0.21592542E+04</pdfrwt>
<totfact> 0.57058656E+00</totfact>
</mgrwt>
</event>
<event>
 6    1  0.1762360E-005  0.3301671E+04  0.7818608E-02  0.8162470E-01
         -2   -1    0    0    0  501 -0.00000000000E+00  0.00000000000E+00  0.11981049992E+04  0.11981049992E+04  0.00000000000E+00 0.  1.
          2   -1    0    0  501    0  0.00000000000E+00 -0.00000000000E+00 -0.22746405262E+04  0.22746405262E+04  0.00000000000E+00 0. -1.
         23    2    1    2    0    0 -0.21815289571E+03  0.70247662282E+03 -0.20916209940E+04  0.22191656130E+04  0.93560375543E+02 0.  0.
         13    1    3    3    0    0 -0.82819334839E+02  0.26716772542E+03 -0.93534820370E+03  0.97627552355E+03  0.00000000000E+00 0. -1.
        -13    1    3    3    0    0 -0.13533356088E+03  0.43530889740E+03 -0.11562727903E+04  0.12428900894E+04  0.00000000000E+00 0.  1.
         22    1    1    2    0    0  0.21815289571E+03 -0.70247662282E+03  0.10150854670E+04  0.12535799124E+04  0.00000000000E+00 0.  1.
<mgrwt>
<rscale>  0 0.33016712E+04</rscale>
<asrwt>0</asrwt>
<pdfrwt beam="1">  1        2 0.34994469E+00 0.33016712E+04</pdfrwt>
<pdfrwt beam="2">  1       -2 0.18432385E+00 0.33016712E+04</pdfrwt>
<totfact> 0.66269053E-01</totfact>
</mgrwt>
</event>
<event>
 6    1  0.1762360E-005  0.6482626E+03  0.7818608E-02  0.9810045E-01
          2   -1    0    0  501    0  0.00000000000E+00  0.00000000000E+00  0.74612543450E+03  0.74612543450E+03  0.00000000000E+00 0. -1.
         -2   -1    0    0    0  501 -0.00000000000E+00 -0.00000000000E+00 -0.14080887682E+03  0.14080887682E+03  0.00000000000E+00 0.  1.
         23    2    1    2    0    0  0.28545137272E+03  0.52393248090E+02  0.13165748841E+03  0.33143412903E+03  0.91034877939E+02 0.  0.
         13    1    3    3    0    0  0.14619264398E+03 -0.11603214394E+02  0.36817786835E+02  0.15120341651E+03  0.00000000000E+00 0.  1.
        -13    1    3    3    0    0  0.13925872874E+03  0.63996462484E+02  0.94839701575E+02  0.18023071252E+03  0.00000000000E+00 0. -1.
         22    1    1    2    0    0 -0.28545137272E+03 -0.52393248090E+02  0.47365906927E+03  0.55550018230E+03  0.00000000000E+00 0.  1.
<mgrwt>
<rscale>  0 0.64826255E+03</rscale>
<asrwt>0</asrwt>
<pdfrwt beam="1">  1        2 0.11478853E+00 0.64826255E+03</pdfrwt>
<pdfrwt beam="2">  1       -2 0.21662905E-01 0.64826255E+03</pdfrwt>
<totfact> 0.70366533E+02</totfact>
</mgrwt>
</event>
<event>
 6    1  0.1762360E-005  0.2671100E+03  0.7818608E-02  0.1102945E+00
         -1   -1    0    0    0  501 -0.00000000000E+00  0.00000000000E+00  0.70504250361E+03  0.70504250361E+03  0.00000000000E+00 0.  1.
          1   -1    0    0  501    0  0.00000000000E+00 -0.00000000000E+00 -0.25299096954E+02  0.25299096954E+02  0.00000000000E+00 0. -1.
         23    2    1    2    0    0 -0.89035075640E+02  0.44518393462E+02  0.20640450006E+03  0.24664866848E+03  0.91233853185E+02 0.  0.
         13    1    3    3    0    0 -0.56969781247E+02  0.48194015540E+02  0.20037035982E+03  0.21381417213E+03  0.00000000000E+00 0.  1.
        -13    1    3    3    0    0 -0.32065294394E+02 -0.36756220777E+01  0.60341402418E+01  0.32834496352E+02  0.00000000000E+00 0. -1.
         22    1    1    2    0    0  0.89035075640E+02 -0.44518393462E+02  0.47333890659E+03  0.48369293208E+03  0.00000000000E+00 0. -1.
<mgrwt>
<rscale>  0 0.26711000E+03</rscale>
<asrwt>0</asrwt>
<pdfrwt beam="1">  1        1 0.38921693E-02 0.26711000E+03</pdfrwt>
<pdfrwt beam="2">  1       -1 0.10846806E+00 0.26711000E+03</pdfrwt>
<totfact> 0.19762635E+03</totfact>
</mgrwt>
</event>
<event>
 6    1  0.1762360E-005  0.1975954E+04  0.7818608E-02  0.8617946E-01
         -2   -1    0    0    0  501 -0.00000000000E+00  0.00000000000E+00  0.49223578483E+03  0.49223578483E+03  0.00000000000E+00 0.  1.
          2   -1    0    0  501    0  0.00000000000E+00 -0.00000000000E+00 -0.19829905417E+04  0.19829905417E+04  0.00000000000E+00 0. -1.
         23    2    1    2    0    0  0.69991809415E+03  0.67744577808E+03 -0.93858652247E+03  0.13555353514E+04  0.87825439898E+02 0.  0.
         13    1    3    3    0    0  0.25667519500E+03  0.23236154695E+03 -0.27848830233E+03  0.44433070878E+03  0.00000000000E+00 0. -1.
        -13    1    3    3    0    0  0.44324289915E+03  0.44508423113E+03 -0.66009822014E+03  0.91120464259E+03  0.00000000000E+00 0.  1.
         22    1    1    2    0    0 -0.69991809415E+03 -0.67744577808E+03 -0.55216823437E+03  0.11196909751E+04  0.00000000000E+00 0. -1.
<mgrwt>
<rscale>  0 0.19759544E+04</rscale>
<asrwt>0</asrwt>
<pdfrwt beam="1">  1        2 0.30507546E+00 0.19759544E+04</pdfrwt>
<pdfrwt beam="2">  1       -2 0.75728584E-01 0.19759544E+04</pdfrwt>
<totfact> 0.99333574E+00</totfact>
</mgrwt>
</event>
<event>
 6    1  0.1762360E-005  0.5880769E+03  0.7818608E-02  0.9930456E-01
         -2   -1    0    0    0  501 -0.00000000000E+00  0.00000000000E+00  0.34469980760E+03  0.34469980760E+03  0.00000000000E+00 0.  1.
          2   -1    0    0  501    0  0.00000000000E+00 -0.00000000000E+00 -0.25082288777E+03  0.25082288777E+03  0.00000000000E+00 0. -1.
         23    2    1    2    0    0 -0.12419356766E+03  0.24306800006E+03 -0.40830733999E+02  0.29113437940E+03  0.92660580206E+02 0.  0.
         11    1    3    3    0    0 -0.37633531844E+02  0.87437681396E+02 -0.59211801308E+02  0.11210561209E+03  0.00000000000E+00 0.  1.
        -11    1    3    3    0    0 -0.86560035817E+02  0.15563031867E+03  0.18381067309E+02  0.17902876731E+03  0.00000000000E+00 0. -1.
         22    1    1    2    0    0  0.12419356766E+03 -0.24306800006E+03  0.13470765383E+03  0.30438831598E+03  0.00000000000E+00 0.  1.
<mgrwt>
<rscale>  0 0.58807687E+03</rscale>
<asrwt>0</asrwt>
<pdfrwt beam="1">  1        2 0.38588137E-01 0.58807687E+03</pdfrwt>
<pdfrwt beam="2">  1       -2 0.53030740E-01 0.58807687E+03</pdfrwt>
<totfact> 0.45362054E+02</totfact>
</mgrwt>
</event>
<event>
 6    1  0.1762360E-005  0.2711600E+04  0.7818608E-02  0.8331251E-01
         -1   -1    0    0    0  501 -0.00000000000E+00  0.00000000000E+00  0.65631938521E+03  0.65631938521E+03  0.00000000000E+00 0.  1.
          1   -1    0    0  501    0  0.00000000000E+00 -0.00000000000E+00 -0.28007602728E+04  0.28007602728E+04  0.00000000000E+00 0. -1.
         23    2    1    2    0    0 -0.88493930148E+03  0.98894934860E+03 -0.14175597300E+04  0.19439720615E+04  0.91724621533E+02 0.  0.
         11    1    3    3    0    0 -0.36184445657E+03  0.45595650302E+03 -0.66465220473E+03  0.88351021310E+03  0.00000000000E+00 0. -1.
        -11    1    3    3    0    0 -0.52309484491E+03  0.53299284557E+03 -0.75290752530E+03  0.10604618484E+04  0.00000000000E+00 0.  1.
         22    1    1    2    0    0  0.88493930148E+03 -0.98894934860E+03 -0.72688115751E+03  0.15131075965E+04  0.00000000000E+00 0.  1.
<mgrwt>
<rscale>  0 0.27115997E+04</rscale>
<asrwt>0</asrwt>
<pdfrwt beam="1">  1        1 0.43088619E+00 0.27115997E+04</pdfrwt>
<pdfrwt beam="2">  1       -1 0.10097221E+00 0.27115997E+04</pdfrwt>
<totfact> 0.67645429E-01</totfact>
</mgrwt>
</event>
<event>
 6    1  0.1762360E-005  0.2194617E+04  0.7818608E-02  0.8520672E-01
          2   -1    0    0  501    0  0.00000000000E+00  0.00000000000E+00  0.12943124017E+04  0.12943124017E+04  0.00000000000E+00 0. -1.
         -2   -1    0    0    0  501 -0.00000000000E+00 -0.00000000000E+00 -0.93028969973E+03  0.93028969973E+03  0.00000000000E+00 0.  1.
         23    2    1    2    0    0 -0.62028776797E+03 -0.31762191495E+03 -0.67481259720E+03  0.97367469556E+03  0.83843756347E+02 0.  0.
         13    1    3    3    0    0 -0.35902015318E+03 -0.21676944342E+03 -0.44407535463E+03  0.61080879379E+03  0.00000000000E+00 0.  1.
        -13    1    3    3    0    0 -0.26126761479E+03 -0.10085247153E+03 -0.23073724258E+03  0.36286590177E+03  0.00000000000E+00 0. -1.
         22    1    1    2    0    0  0.62028776797E+03  0.31762191495E+03  0.10388352992E+04  0.12509274059E+04  0.00000000000E+00 0. -1.
<mgrwt>
<rscale>  0 0.21946166E+04</rscale>
<asrwt>0</asrwt>
<pdfrwt beam="1">  1        2 0.19912498E+00 0.21946166E+04</pdfrwt>
<pdfrwt beam="2">  1       -2 0.14312149E+00 0.21946166E+04</pdfrwt>
<totfact> 0.51659917E+00</totfact>
</mgrwt>
</event>
<event>
 6    1  0.1762360E-005  0.1643244E+04  0.7818608E-02  0.8794414E-01
         -2   -1    0    0    0  501 -0.00000000000E+00  0.00000000000E+00  0.23940915854E+03  0.23940915854E+03  0.00000000000E+00 0.  1.
          2   -1    0    0  501    0  0.00000000000E+00 -0.00000000000E+00 -0.28197015590E+04  0.28197015590E+04  0.00000000000E+00 0. -1.
         23    2    1    2    0    0 -0.48704833947E+03  0.57937253274E+03 -0.70987031524E+03  0.10413477499E+04  0.87181735956E+02 0.  0.
         13    1    3    3    0    0 -0.40472545420E+03  0.44202441203E+03 -0.59294038051E+03  0.84306972958E+03  0.00000000000E+00 0. -1.
        -13    1    3    3    0    0 -0.82322885273E+02  0.13734812071E+03 -0.11692993473E+03  0.19827802031E+03  0.00000000000E+00 0.  1.
         22    1    1    2    0    0  0.48704833947E+03 -0.57937253274E+03 -0.18704220852E+04  0.20177629677E+04  0.00000000000E+00 0. -1.
<mgrwt>
<rscale>  0 0.16432436E+04</rscale>
<asrwt>0</asrwt>
<pdfrwt beam="1">  1        2 0.43380024E+00 0.16432436E+04</pdfrwt>
<pdfrwt beam="2">  1       -2 0.36832179E-01 0.16432436E+04</pdfrwt>
<totfact> 0.14990840E+01</totfact>
</mgrwt>
</event>
<event>
 6    1  0.1762360E-005  0.3197572E+04  0.7818608E-02  0.8189459E-01
         -2   -1    0    0    0  501 -0.00000000000E+00  0.00000000000E+00  0.17042959472E+04  0.17042959472E+04  0.00000000000E+00 0.  1.
          2   -1    0    0  501    0  0.00000000000E+00 -0.00000000000E+00 -0.14998082722E+04  0.14998082722E+04  0.00000000000E+00 0. -1.
         23    2    1    2    0    0  0.41089831630E+03  0.10671603186E+04 -0.10154115262E+04  0.15320328594E+04  0.91627194640E+02 0.  0.
         11    1    3    3    0    0  0.38496744827E+03  0.10116424922E+04 -0.93095604498E+03  0.14276903116E+04  0.00000000000E+00 0.  1.
        -11    1    3    3    0    0  0.25930868039E+02  0.55517826372E+02 -0.84455481195E+02  0.10434254773E+03  0.00000000000E+00 0. -1.
         22    1    1    2    0    0 -0.41089831630E+03 -0.10671603186E+04  0.12198992012E+04  0.16720713600E+04  0.00000000000E+00 0.  1.
<mgrwt>
<rscale>  0 0.31975723E+04</rscale>
<asrwt>0</asrwt>
<pdfrwt beam="1">  1        2 0.23073974E+00 0.31975723E+04</pdfrwt>
<pdfrwt beam="2">  1       -2 0.26219937E+00 0.31975723E+04</pdfrwt>
<totfact> 0.57843545E-01</totfact>
</mgrwt>
</event>
<event>
 6    1  0.1762360E-005  0.2533400E+04  0.7818608E-02  0.8391182E-01
          2   -1    0    0  501    0  0.00000000000E+00  0.00000000000E+00  0.88000001578E+03  0.88000001578E+03  0.00000000000E+00 0. -1.
         -2   -1    0    0    0  501 -0.00000000000E+00 -0.00000000000E+00 -0.18233284798E+04  0.18233284798E+04  0.00000000000E+00 0.  1.
         23    2    1    2    0    0  0.12447843703E+04  0.20327644126E+03 -0.57620903535E+03  0.13897128307E+04  0.92062257700E+02 0.  0.
         11    1    3    3    0    0  0.94025080758E+03  0.19339044319E+03 -0.43651460422E+03  0.10545219032E+04  0.00000000000E+00 0.  1.
        -11    1    3    3    0    0  0.30453356270E+03  0.98859980770E+01 -0.13969443113E+03  0.33519092747E+03  0.00000000000E+00 0. -1.
         22    1    1    2    0    0 -0.12447843703E+04 -0.20327644126E+03 -0.36711942864E+03  0.13136156649E+04  0.00000000000E+00 0.  1.
<mgrwt>
<rscale>  0 0.25334002E+04</rscale>
<asrwt>0</asrwt>
<pdfrwt beam="1">  1        2 0.13538462E+00 0.25334002E+04</pdfrwt>
<pdfrwt beam="2">  1       -2 0.28051207E+00 0.25334002E+04</pdfrwt>
<totfact> 0.11251975E+00</totfact>
</mgrwt>
</event>
<event>
 6    1  0.1762360E-005  0.5622223E+04  0.7818608E-02  0.7739092E-01
         -1   -1    0    0    0  501 -0.00000000000E+00  0.00000000000E+00  0.21164835468E+04  0.21164835468E+04  0.00000000000E+00 0.  1.
          1   -1    0    0  501    0  0.00000000000E+00 -0.00000000000E+00 -0.37337156400E+04  0.37337156400E+04  0.00000000000E+00 0. -1.
         23    2    1    2    0    0  0.80912212749E+03  0.24477797602E+04  0.35546617151E+03  0.26039948162E+04  0.90157817200E+02 0.  0.
         13    1    3    3    0    0  0.79551550973E+02  0.20115143707E+03  0.51883528095E+02  0.22244606175E+03  0.00000000000E+00 0. -1.
        -13    1    3    3    0    0  0.72957057652E+03  0.22466283232E+04  0.30358264341E+03  0.23815487545E+04  0.00000000000E+00 0.  1.
         22    1    1    2    0    0 -0.80912212749E+03 -0.24477797602E+04 -0.19726982648E+04  0.32462043706E+04  0.00000000000E+00 0. -1.
<mgrwt>
<rscale>  0 0.56222229E+04</rscale>
<asrwt>0</asrwt>
<pdfrwt beam="1">  1        1 0.57441778E+00 0.56222229E+04</pdfrwt>
<pdfrwt beam="2">  1       -1 0.32561286E+00 0.56222229E+04</pdfrwt>
<totfact> 0.24977840E-03</totfact>
</mgrwt>
</event>
<event>
 6    1  0.1762360E-005  0.1830417E+04  0.7818608E-02  0.8690289E-01
          1   -1    0    0  501    0  0.00000000000E+00  0.00000000000E+00  0.11222600262E+04  0.11222600262E+04  0.00000000000E+00 0. -1.
         -1   -1    0    0    0  501 -0.00000000000E+00 -0.00000000000E+00 -0.74635679624E+03  0.74635679624E+03  0.00000000000E+00 0.  1.
         23    2    1    2    0    0  0.40591896850E+03 -0.77165178698E+03  0.46485981956E+03  0.99218658328E+03  0.90126992951E+02 0.  0.
         13    1    3    3    0    0  0.10376662827E+03 -0.17436902507E+03  0.15080776228E+03  0.25281426228E+03  0.00000000000E+00 0. -1.
        -13    1    3    3    0    0  0.30215234023E+03 -0.59728276191E+03  0.31405205728E+03  0.73937232100E+03  0.00000000000E+00 0.  1.
         22    1    1    2    0    0 -0.40591896850E+03  0.77165178698E+03 -0.88956589578E+02  0.87643023919E+03  0.00000000000E+00 0.  1.
<mgrwt>
<rscale>  0 0.18304168E+04</rscale>
<asrwt>0</asrwt>
<pdfrwt beam="1">  1        1 0.17265539E+00 0.18304168E+04</pdfrwt>
<pdfrwt beam="2">  1       -1 0.11482412E+00 0.18304168E+04</pdfrwt>
<totfact> 0.79113391E+00</totfact>
</mgrwt>
</event>
<event>
 6    1  0.1762360E-005  0.9124169E+03  0.7818608E-02  0.9410191E-01
         -2   -1    0    0    0  501 -0.00000000000E+00  0.00000000000E+00  0.38748170533E+03  0.38748170533E+03  0.00000000000E+00 0.  1.
          2   -1    0    0  501    0  0.00000000000E+00 -0.00000000000E+00 -0.53712512932E+03  0.53712512932E+03  0.00000000000E+00 0. -1.
         23    2    1    2    0    0 -0.16079996905E+03 -0.21968351109E+03 -0.44087944463E+03  0.52593918509E+03  0.90110302554E+02 0.  0.
         13    1    3    3    0    0 -0.57988752909E+02 -0.29842613800E+02 -0.62665795004E+02  0.90444894415E+02  0.00000000000E+00 0. -1.
        -13    1    3    3    0    0 -0.10281121614E+03 -0.18984089729E+03 -0.37821364963E+03  0.43549429067E+03  0.00000000000E+00 0.  1.
         22    1    1    2    0    0  0.16079996905E+03  0.21968351109E+03  0.29123602064E+03  0.39866764956E+03  0.00000000000E+00 0.  1.
<mgrwt>
<rscale>  0 0.91241692E+03</rscale>
<asrwt>0</asrwt>
<pdfrwt beam="1">  1        2 0.82634635E-01 0.91241692E+03</pdfrwt>
<pdfrwt beam="2">  1       -2 0.59612570E-01 0.91241692E+03</pdfrwt>
<totfact> 0.14915157E+02</totfact>
</mgrwt>
</event>
<event>
 6    1  0.1762360E-005  0.2145424E+04  0.7818608E-02  0.8541494E-01
          4   -1    0    0  501    0  0.00000000000E+00  0.00000000000E+00  0.13204612597E+04  0.13204612597E+04  0.00000000000E+00 0.  1.
         -4   -1    0    0    0  501 -0.00000000000E+00 -0.00000000000E+00 -0.87144610869E+03  0.87144610869E+03  0.00000000000E+00 0. -1.
         23    2    1    2    0    0  0.82174835537E+02  0.52585470814E+03 -0.72432293128E+03  0.90349822024E+03  0.91593927385E+02 0.  0.
         13    1    3    3    0    0  0.19113368402E+02  0.15445526634E+03 -0.28542709237E+03  0.32510056169E+03  0.00000000000E+00 0. -1.
        -13    1    3    3    0    0  0.63061467136E+02  0.37139944180E+03 -0.43889583891E+03  0.57839765855E+03  0.00000000000E+00 0.  1.
         22    1    1    2    0    0 -0.82174835537E+02 -0.52585470814E+03  0.11733380823E+04  0.12884091481E+04  0.00000000000E+00 0.  1.
<mgrwt>
<rscale>  0 0.21454238E+04</rscale>
<asrwt>0</asrwt>
<pdfrwt beam="1">  1        4 0.20314789E+00 0.21454238E+04</pdfrwt>
<pdfrwt beam="2">  1       -4 0.13406863E+00 0.21454238E+04</pdfrwt>
<totfact> 0.92046852E-02</totfact>
</mgrwt>
</event>
<event>
 6    1  0.1762360E-005  0.1352276E+04  0.7818608E-02  0.8989107E-01
         -1   -1    0    0    0  501 -0.00000000000E+00  0.00000000000E+00  0.10138260240E+04  0.10138260240E+04  0.00000000000E+00 0.  1.
          1   -1    0    0  501    0  0.00000000000E+00 -0.00000000000E+00 -0.45092814497E+03  0.45092814497E+03  0.00000000000E+00 0. -1.
         23    2    1    2    0    0 -0.16641892537E+03  0.52745374757E+03 -0.13250788706E+03  0.57622060514E+03  0.92569601423E+02 0.  0.
         13    1    3    3    0    0 -0.10562368690E+03  0.21768567968E+03 -0.87788793792E+02  0.25739131820E+03  0.00000000000E+00 0.  1.
        -13    1    3    3    0    0 -0.60795238475E+02  0.30976806789E+03 -0.44719093270E+02  0.31882928694E+03  0.00000000000E+00 0. -1.
         22    1    1    2    0    0  0.16641892537E+03 -0.52745374757E+03  0.69540576610E+03  0.88853356384E+03  0.00000000000E+00 0.  1.
<mgrwt>
<rscale>  0 0.13522761E+04</rscale>
<asrwt>0</asrwt>
<pdfrwt beam="1">  1        1 0.69373561E-01 0.13522761E+04</pdfrwt>
<pdfrwt beam="2">  1       -1 0.15597323E+00 0.13522761E+04</pdfrwt>
<totfact> 0.15674808E+01</totfact>
</mgrwt>
</event>
<event>
 6    1  0.1762360E-005  0.2583210E+04  0.7818608E-02  0.8373927E-01
          2   -1    0    0  501    0  0.00000000000E+00  0.00000000000E+00  0.16212292613E+04  0.16212292613E+04  0.00000000000E+00 0. -1.
         -2   -1    0    0    0  501 -0.00000000000E+00 -0.00000000000E+00 -0.10289990809E+04  0.10289990809E+04  0.00000000000E+00 0.  1.
         23    2    1    2    0    0  0.12980713705E+03 -0.85553763971E+03  0.12781231664E+04  0.15460346391E+04  0.88485767497E+02 0.  0.
         11    1    3    3    0    0  0.11065939468E+03 -0.45838572681E+03  0.72366891156E+03  0.86374745715E+03  0.00000000000E+00 0. -1.
        -11    1    3    3    0    0  0.19147742372E+02 -0.39715191289E+03  0.55445425485E+03  0.68228718196E+03  0.00000000000E+00 0.  1.
         22    1    1    2    0    0 -0.12980713705E+03  0.85553763971E+03 -0.68589298602E+03  0.11041937031E+04  0.00000000000E+00 0.  1.
<mgrwt>
<rscale>  0 0.25832100E+04</rscale>
<asrwt>0</asrwt>
<pdfrwt beam="1">  1        2 0.24941989E+00 0.25832100E+04</pdfrwt>
<pdfrwt beam="2">  1       -2 0.15830755E+00 0.25832100E+04</pdfrwt>
<totfact> 0.24925976E+00</totfact>
</mgrwt>
</event>
<event>
 6    1  0.1762360E-005  0.9697245E+03  0.7818608E-02  0.9342388E-01
         -1   -1    0    0    0  501 -0.00000000000E+00  0.00000000000E+00  0.58074973194E+03  0.58074973194E+03  0.00000000000E+00 0.  1.
          1   -1    0    0  501    0  0.00000000000E+00 -0.00000000000E+00 -0.40480674181E+03  0.40480674181E+03  0.00000000000E+00 0. -1.
         23    2    1    2    0    0 -0.20984365946E+03  0.41939244680E+03  0.19518128503E+03  0.51620106700E+03  0.91888093340E+02 0.  0.
         13    1    3    3    0    0 -0.16417841748E+03  0.32547431726E+03  0.10810551503E+03  0.38023004397E+03  0.00000000000E+00 0. -1.
        -13    1    3    3    0    0 -0.45665241980E+02  0.93918129547E+02  0.87075770000E+02  0.13597102303E+03  0.00000000000E+00 0.  1.
         22    1    1    2    0    0  0.20984365946E+03 -0.41939244680E+03 -0.19238294897E+02  0.46935540675E+03  0.00000000000E+00 0. -1.
<mgrwt>
<rscale>  0 0.96972451E+03</rscale>
<asrwt>0</asrwt>
<pdfrwt beam="1">  1        1 0.62277960E-01 0.96972451E+03</pdfrwt>
<pdfrwt beam="2">  1       -1 0.89346113E-01 0.96972451E+03</pdfrwt>
<totfact> 0.72842269E+01</totfact>
</mgrwt>
</event>
<event>
 6    1  0.1762360E-005  0.4549375E+04  0.7818608E-02  0.7902049E-01
         -1   -1    0    0    0  501 -0.00000000000E+00  0.00000000000E+00  0.13939632912E+04  0.13939632912E+04  0.00000000000E+00 0.  1.
          1   -1    0    0  501    0  0.00000000000E+00 -0.00000000000E+00 -0.37118655485E+04  0.37118655485E+04  0.00000000000E+00 0. -1.
         23    2    1    2    0    0 -0.15366577890E+04 -0.10204516877E+04 -0.26513485762E+04  0.32313088331E+04  0.95229696512E+02 0.  0.
         13    1    3    3    0    0 -0.14129707742E+04 -0.96768857599E+03 -0.24635565412E+04  0.30003363846E+04  0.00000000000E+00 0. -1.
        -13    1    3    3    0    0 -0.12368701479E+03 -0.52763111754E+02 -0.18779203494E+03  0.23097244852E+03  0.00000000000E+00 0.  1.
         22    1    1    2    0    0  0.15366577890E+04  0.10204516877E+04  0.33344631889E+03  0.18745200066E+04  0.00000000000E+00 0.  1.
<mgrwt>
<rscale>  0 0.45493755E+04</rscale>
<asrwt>0</asrwt>
<pdfrwt beam="1">  1        1 0.57105624E+00 0.45493755E+04</pdfrwt>
<pdfrwt beam="2">  1       -1 0.21445589E+00 0.45493755E+04</pdfrwt>
<totfact> 0.15109824E-02</totfact>
</mgrwt>
</event>
<event>
 6    1  0.1762360E-005  0.4467429E+04  0.7818608E-02  0.7916364E-01
          1   -1    0    0  501    0  0.00000000000E+00  0.00000000000E+00  0.19548996759E+04  0.19548996759E+04  0.00000000000E+00 0. -1.
         -1   -1    0    0    0  501 -0.00000000000E+00 -0.00000000000E+00 -0.25522951073E+04  0.25522951073E+04  0.00000000000E+00 0.  1.
         23    2    1    2    0    0 -0.70523606103E+03 -0.46518277900E+03 -0.23841216375E+04  0.25307981998E+04  0.84561372548E+02 0.  0.
         11    1    3    3    0    0 -0.57419153107E+03 -0.41417989212E+03 -0.19573219123E+04  0.20814297888E+04  0.00000000000E+00 0. -1.
        -11    1    3    3    0    0 -0.13104452996E+03 -0.51002886875E+02 -0.42679972521E+03  0.44936841093E+03  0.00000000000E+00 0.  1.
         22    1    1    2    0    0  0.70523606103E+03  0.46518277900E+03  0.17867262061E+04  0.19763965835E+04  0.00000000000E+00 0. -1.
<mgrwt>
<rscale>  0 0.44674292E+04</rscale>
<asrwt>0</asrwt>
<pdfrwt beam="1">  1        1 0.30075380E+00 0.44674292E+04</pdfrwt>
<pdfrwt beam="2">  1       -1 0.39266078E+00 0.44674292E+04</pdfrwt>
<totfact> 0.19337250E-02</totfact>
</mgrwt>
</event>
<event>
 6    1  0.1762360E-005  0.1477003E+04  0.7818608E-02  0.8899891E-01
          2   -1    0    0  501    0  0.00000000000E+00  0.00000000000E+00  0.28799035967E+04  0.28799035967E+04  0.00000000000E+00 0. -1.
         -2   -1    0    0    0  501 -0.00000000000E+00 -0.00000000000E+00 -0.18937594487E+03  0.18937594487E+03  0.00000000000E+00 0.  1.
         23    2    1    2    0    0 -0.24341841586E+02 -0.37384066500E+03  0.26660697760E+04  0.26938497135E+04  0.92460049695E+02 0.  0.
         13    1    3    3    0    0  0.91527645658E+01 -0.20472450799E+03  0.11620641786E+04  0.11799953612E+04  0.00000000000E+00 0. -1.
        -13    1    3    3    0    0 -0.33494606152E+02 -0.16911615701E+03  0.15040055974E+04  0.15138543524E+04  0.00000000000E+00 0.  1.
         22    1    1    2    0    0  0.24341841586E+02  0.37384066500E+03  0.24457875831E+02  0.37542982800E+03  0.00000000000E+00 0.  1.
<mgrwt>
<rscale>  0 0.14770030E+04</rscale>
<asrwt>0</asrwt>
<pdfrwt beam="1">  1        2 0.44306206E+00 0.14770030E+04</pdfrwt>
<pdfrwt beam="2">  1       -2 0.29134763E-01 0.14770030E+04</pdfrwt>
<totfact> 0.21803890E+01</totfact>
</mgrwt>
</event>
<event>
 6    1  0.1762360E-005  0.2943648E+04  0.7818608E-02  0.8260008E-01
          2   -1    0    0  501    0  0.00000000000E+00  0.00000000000E+00  0.25240352572E+04  0.25240352572E+04  0.00000000000E+00 0. -1.
         -2   -1    0    0    0  501 -0.00000000000E+00 -0.00000000000E+00 -0.85825486254E+03  0.85825486254E+03  0.00000000000E+00 0.  1.
         23    2    1    2    0    0  0.12559421420E+03  0.44445157296E+03  0.24377231439E+04  0.24827309413E+04  0.90264571625E+02 0.  0.
         11    1    3    3    0    0  0.16631343751E+02  0.44346890801E+01  0.81254565648E+02  0.83057645650E+02  0.00000000000E+00 0.  1.
        -11    1    3    3    0    0  0.10896287045E+03  0.44001688388E+03  0.23564685783E+04  0.23996732956E+04  0.00000000000E+00 0. -1.
         22    1    1    2    0    0 -0.12559421420E+03 -0.44445157296E+03 -0.77194274930E+03  0.89955917845E+03  0.00000000000E+00 0.  1.
<mgrwt>
<rscale>  0 0.29436478E+04</rscale>
<asrwt>0</asrwt>
<pdfrwt beam="1">  1        2 0.38831311E+00 0.29436478E+04</pdfrwt>
<pdfrwt beam="2">  1       -2 0.13203921E+00 0.29436478E+04</pdfrwt>
<totfact> 0.12099546E+00</totfact>
</mgrwt>
</event>
<event>
 6    1  0.1762360E-005  0.1573712E+04  0.7818608E-02  0.8836863E-01
         -1   -1    0    0    0  501 -0.00000000000E+00  0.00000000000E+00  0.98817887916E+03  0.98817887916E+03  0.00000000000E+00 0.  1.
          1   -1    0    0  501    0  0.00000000000E+00 -0.00000000000E+00 -0.62654853189E+03  0.62654853189E+03  0.00000000000E+00 0. -1.
         23    2    1    2    0    0  0.84094528718E+02 -0.68878804990E+03 -0.19009867535E+03  0.72821413882E+03  0.11250536950E+03 0.  0.
         11    1    3    3    0    0 -0.67691004575E+01 -0.13138003914E+03  0.23045010497E+01  0.13157448890E+03  0.00000000000E+00 0. -1.
        -11    1    3    3    0    0  0.90863629176E+02 -0.55740801076E+03 -0.19240317640E+03  0.59663964992E+03  0.00000000000E+00 0.  1.
         22    1    1    2    0    0 -0.84094528718E+02  0.68878804990E+03  0.55172902261E+03  0.88651327223E+03  0.00000000000E+00 0.  1.
<mgrwt>
<rscale>  0 0.15737116E+04</rscale>
<asrwt>0</asrwt>
<pdfrwt beam="1">  1        1 0.96392082E-01 0.15737116E+04</pdfrwt>
<pdfrwt beam="2">  1       -1 0.15202752E+00 0.15737116E+04</pdfrwt>
<totfact> 0.10402980E+01</totfact>
</mgrwt>
</event>
<event>
 6    1  0.1762360E-005  0.3826082E+04  0.7818608E-02  0.8040581E-01
          2   -1    0    0  501    0  0.00000000000E+00  0.00000000000E+00  0.23446384547E+04  0.23446384547E+04  0.00000000000E+00 0.  1.
         -2   -1    0    0    0  501 -0.00000000000E+00 -0.00000000000E+00 -0.15608910739E+04  0.15608910739E+04  0.00000000000E+00 0. -1.
         23    2    1    2    0    0 -0.24404419893E+03  0.10810381525E+04 -0.11982577490E+04  0.16347267206E+04  0.91152399825E+02 0.  0.
         13    1    3    3    0    0 -0.17353500019E+02  0.91793920267E+02 -0.14147906345E+03  0.16953935578E+03  0.00000000000E+00 0. -1.
        -13    1    3    3    0    0 -0.22669069891E+03  0.98924423220E+03 -0.10567786855E+04  0.14651873648E+04  0.00000000000E+00 0.  1.
         22    1    1    2    0    0  0.24404419893E+03 -0.10810381525E+04  0.19820051298E+04  0.22708028080E+04  0.00000000000E+00 0.  1.
<mgrwt>
<rscale>  0 0.38260817E+04</rscale>
<asrwt>0</asrwt>
<pdfrwt beam="1">  1        2 0.36071361E+00 0.38260817E+04</pdfrwt>
<pdfrwt beam="2">  1       -2 0.24013709E+00 0.38260817E+04</pdfrwt>
<totfact> 0.25295114E-01</totfact>
</mgrwt>
</event>
<event>
 6    1  0.1762360E-005  0.3526812E+04  0.7818608E-02  0.8107465E-01
         -2   -1    0    0    0  501 -0.00000000000E+00  0.00000000000E+00  0.23402290710E+04  0.23402290710E+04  0.00000000000E+00 0. -1.
          2   -1    0    0  501    0  0.00000000000E+00 -0.00000000000E+00 -0.13287592602E+04  0.13287592602E+04  0.00000000000E+00 0.  1.
         23    2    1    2    0    0  0.29724440467E+02 -0.11731142395E+04  0.18737204981E+04  0.22127751569E+04  0.92004502500E+02 0.  0.
         13    1    3    3    0    0  0.27265230855E+02 -0.27829675004E+03  0.38515994780E+03  0.47596287595E+03  0.00000000000E+00 0. -1.
        -13    1    3    3    0    0  0.24592096121E+01 -0.89481748949E+03  0.14885605503E+04  0.17368122809E+04  0.00000000000E+00 0.  1.
         22    1    1    2    0    0 -0.29724440467E+02  0.11731142395E+04 -0.86225068734E+03  0.14562131744E+04  0.00000000000E+00 0.  1.
<mgrwt>
<rscale>  0 0.35268122E+04</rscale>
<asrwt>0</asrwt>
<pdfrwt beam="1">  1        2 0.20442450E+00 0.35268122E+04</pdfrwt>
<pdfrwt beam="2">  1       -2 0.36003524E+00 0.35268122E+04</pdfrwt>
<totfact> 0.17520013E-01</totfact>
</mgrwt>
</event>
<event>
 6    1  0.1762360E-005  0.1167944E+04  0.7818608E-02  0.9141387E-01
          2   -1    0    0  501    0  0.00000000000E+00  0.00000000000E+00  0.30926710539E+04  0.30926710539E+04  0.00000000000E+00 0. -1.
         -2   -1    0    0    0  501 -0.00000000000E+00 -0.00000000000E+00 -0.11026816089E+03  0.11026816089E+03  0.00000000000E+00 0.  1.
         23    2    1    2    0    0  0.56909356307E+03  0.95185420531E+02  0.13280283521E+04  0.14508310933E+04  0.91234913688E+02 0.  0.
         11    1    3    3    0    0  0.22542341082E+03  0.62487847596E+02  0.63176078818E+03  0.67367806757E+03  0.00000000000E+00 0.  1.
        -11    1    3    3    0    0  0.34367015225E+03  0.32697572935E+02  0.69626756393E+03  0.77715302574E+03  0.00000000000E+00 0. -1.
         22    1    1    2    0    0 -0.56909356307E+03 -0.95185420531E+02  0.16543745409E+04  0.17521081215E+04  0.00000000000E+00 0.  1.
<mgrwt>
<rscale>  0 0.11679437E+04</rscale>
<asrwt>0</asrwt>
<pdfrwt beam="1">  1        2 0.47579548E+00 0.11679437E+04</pdfrwt>
<pdfrwt beam="2">  1       -2 0.16964335E-01 0.11679437E+04</pdfrwt>
<totfact> 0.43573249E+01</totfact>
</mgrwt>
</event>
<event>
 6    1  0.1762360E-005  0.2961368E+04  0.7818608E-02  0.8254849E-01
         -2   -1    0    0    0  501 -0.00000000000E+00  0.00000000000E+00  0.90279676791E+03  0.90279676791E+03  0.00000000000E+00 0. -1.
          2   -1    0    0  501    0  0.00000000000E+00 -0.00000000000E+00 -0.24284819987E+04  0.24284819987E+04  0.00000000000E+00 0.  1.
         23    2    1    2    0    0  0.21261354781E+03  0.20328909247E+03 -0.23944417449E+04  0.24140716709E+04  0.88655437362E+02 0.  0.
         13    1    3    3    0    0  0.56305823702E+02  0.43445172443E+02 -0.92382308229E+03  0.92655648298E+03  0.00000000000E+00 0. -1.
        -13    1    3    3    0    0  0.15630772411E+03  0.15984392002E+03 -0.14706186626E+04  0.14875151879E+04  0.00000000000E+00 0.  1.
         22    1    1    2    0    0 -0.21261354781E+03 -0.20328909247E+03  0.86875651406E+03  0.91720709578E+03  0.00000000000E+00 0. -1.
<mgrwt>
<rscale>  0 0.29613684E+04</rscale>
<asrwt>0</asrwt>
<pdfrwt beam="1">  1        2 0.37361262E+00 0.29613684E+04</pdfrwt>
<pdfrwt beam="2">  1       -2 0.13889181E+00 0.29613684E+04</pdfrwt>
<totfact> 0.12052419E+00</totfact>
</mgrwt>
</event>
<event>
 6    1  0.1762360E-005  0.1664642E+04  0.7818608E-02  0.8781791E-01
          2   -1    0    0  501    0  0.00000000000E+00  0.00000000000E+00  0.19055925340E+04  0.19055925340E+04  0.00000000000E+00 0. -1.
         -2   -1    0    0    0  501 -0.00000000000E+00 -0.00000000000E+00 -0.36353937406E+03  0.36353937406E+03  0.00000000000E+00 0.  1.
         23    2    1    2    0    0 -0.44787822357E+03  0.69771238453E+03  0.72640450490E+03  0.11060841003E+04  0.91438818492E+02 0.  0.
         11    1    3    3    0    0 -0.23917403507E+03  0.45423622791E+03  0.43957847780E+03  0.67584318295E+03  0.00000000000E+00 0. -1.
        -11    1    3    3    0    0 -0.20870418851E+03  0.24347615662E+03  0.28682602710E+03  0.43024091736E+03  0.00000000000E+00 0.  1.
         22    1    1    2    0    0  0.44787822357E+03 -0.69771238453E+03  0.81564865506E+03  0.11630478078E+04  0.00000000000E+00 0.  1.
<mgrwt>
<rscale>  0 0.16646416E+04</rscale>
<asrwt>0</asrwt>
<pdfrwt beam="1">  1        2 0.29316808E+00 0.16646416E+04</pdfrwt>
<pdfrwt beam="2">  1       -2 0.55929136E-01 0.16646416E+04</pdfrwt>
<totfact> 0.21598036E+01</totfact>
</mgrwt>
</event>
<event>
 6    1  0.1762360E-005  0.6835789E+03  0.7818608E-02  0.9745734E-01
         -2   -1    0    0    0  501 -0.00000000000E+00  0.00000000000E+00  0.87964425893E+02  0.87964425893E+02  0.00000000000E+00 0. -1.
          2   -1    0    0  501    0  0.00000000000E+00 -0.00000000000E+00 -0.13280370040E+04  0.13280370040E+04  0.00000000000E+00 0.  1.
         23    2    1    2    0    0 -0.21116811682E+03  0.11263200672E+01 -0.90679150543E+02  0.24737039595E+03  0.91521376152E+02 0.  0.
         13    1    3    3    0    0 -0.16806550554E+03  0.35370034788E+02 -0.86127775694E+02  0.19213288958E+03  0.00000000000E+00 0.  1.
        -13    1    3    3    0    0 -0.43102611280E+02 -0.34243714721E+02 -0.45513748483E+01  0.55237506371E+02  0.00000000000E+00 0. -1.
         22    1    1    2    0    0  0.21116811682E+03 -0.11263200672E+01 -0.11493934276E+04  0.11686310340E+04  0.00000000000E+00 0.  1.
<mgrwt>
<rscale>  0 0.68357885E+03</rscale>
<asrwt>0</asrwt>
<pdfrwt beam="1">  1        2 0.20431336E+00 0.68357885E+03</pdfrwt>
<pdfrwt beam="2">  1       -2 0.13532990E-01 0.68357885E+03</pdfrwt>
<totfact> 0.67146101E+02</totfact>
</mgrwt>
</event>
<event>
 6    1  0.1762360E-005  0.2499130E+04  0.7818608E-02  0.8403296E-01
          2   -1    0    0  501    0  0.00000000000E+00  0.00000000000E+00  0.10224725082E+04  0.10224725082E+04  0.00000000000E+00 0. -1.
         -2   -1    0    0    0  501 -0.00000000000E+00 -0.00000000000E+00 -0.15270944655E+04  0.15270944655E+04  0.00000000000E+00 0.  1.
         23    2    1    2    0    0 -0.81522685271E+03 -0.42202260367E+03  0.60982269405E+03  0.11057232217E+04  0.89678455647E+02 0.  0.
         13    1    3    3    0    0 -0.36255886595E+03 -0.21473077650E+03  0.32488134765E+03  0.53207718209E+03  0.00000000000E+00 0. -1.
        -13    1    3    3    0    0 -0.45266798676E+03 -0.20729182718E+03  0.28494134640E+03  0.57364603960E+03  0.00000000000E+00 0.  1.
         22    1    1    2    0    0  0.81522685271E+03  0.42202260367E+03 -0.11144446514E+04  0.14438437521E+04  0.00000000000E+00 0.  1.
<mgrwt>
<rscale>  0 0.24991295E+04</rscale>
<asrwt>0</asrwt>
<pdfrwt beam="1">  1        2 0.15730346E+00 0.24991295E+04</pdfrwt>
<pdfrwt beam="2">  1       -2 0.23493761E+00 0.24991295E+04</pdfrwt>
<totfact> 0.17306424E+00</totfact>
</mgrwt>
</event>
<event>
 6    1  0.1762360E-005  0.2414759E+04  0.7818608E-02  0.8433999E-01
         -1   -1    0    0    0  501 -0.00000000000E+00  0.00000000000E+00  0.18829335494E+04  0.18829335494E+04  0.00000000000E+00 0.  1.
          1   -1    0    0  501    0  0.00000000000E+00 -0.00000000000E+00 -0.77419890412E+03  0.77419890412E+03  0.00000000000E+00 0. -1.
         23    2    1    2    0    0 -0.21209082811E+03 -0.89353332144E+03 -0.30430666125E+03  0.97188171555E+03  0.92559219195E+02 0.  0.
         11    1    3    3    0    0 -0.17884435736E+03 -0.83649550861E+03 -0.26727005210E+03  0.89618263810E+03  0.00000000000E+00 0. -1.
        -11    1    3    3    0    0 -0.33246470756E+02 -0.57037812828E+02 -0.37036609153E+02  0.75699077455E+02  0.00000000000E+00 0.  1.
         22    1    1    2    0    0  0.21209082811E+03  0.89353332144E+03  0.14130413066E+04  0.16852507380E+04  0.00000000000E+00 0.  1.
<mgrwt>
<rscale>  0 0.24147589E+04</rscale>
<asrwt>0</asrwt>
<pdfrwt beam="1">  1        1 0.11910752E+00 0.24147589E+04</pdfrwt>
<pdfrwt beam="2">  1       -1 0.28968208E+00 0.24147589E+04</pdfrwt>
<totfact> 0.80333334E-01</totfact>
</mgrwt>
</event>
<event>
 6    1  0.1762360E-005  0.8090582E+03  0.7818608E-02  0.9546997E-01
          3   -1    0    0  501    0  0.00000000000E+00  0.00000000000E+00  0.46963820668E+03  0.46963820668E+03  0.00000000000E+00 0. -1.
         -3   -1    0    0    0  501 -0.00000000000E+00 -0.00000000000E+00 -0.34844651667E+03  0.34844651667E+03  0.00000000000E+00 0.  1.
         23    2    1    2    0    0 -0.10294405656E+03 -0.12678487458E+03 -0.30701830491E+03  0.35978822222E+03  0.92279153102E+02 0.  0.
         13    1    3    3    0    0 -0.90792181640E+02 -0.41769075109E+02 -0.18944746041E+03  0.21419200764E+03  0.00000000000E+00 0.  1.
        -13    1    3    3    0    0 -0.12151874919E+02 -0.85015799466E+02 -0.11757084450E+03  0.14559621458E+03  0.00000000000E+00 0. -1.
         22    1    1    2    0    0  0.10294405656E+03  0.12678487458E+03  0.42820999492E+03  0.45829650113E+03  0.00000000000E+00 0. -1.
<mgrwt>
<rscale>  0 0.80905821E+03</rscale>
<asrwt>0</asrwt>
<pdfrwt beam="1">  1        3 0.72252031E-01 0.80905821E+03</pdfrwt>
<pdfrwt beam="2">  1       -3 0.53607157E-01 0.80905821E+03</pdfrwt>
<totfact> 0.16495105E+01</totfact>
</mgrwt>
</event>
<event>
 6    1  0.1762360E-005  0.2437459E+04  0.7818608E-02  0.8425611E-01
         -2   -1    0    0    0  501 -0.00000000000E+00  0.00000000000E+00  0.47109726024E+03  0.47109726024E+03  0.00000000000E+00 0.  1.
          2   -1    0    0  501    0  0.00000000000E+00 -0.00000000000E+00 -0.31528565872E+04  0.31528565872E+04  0.00000000000E+00 0. -1.
         23    2    1    2    0    0 -0.11585309835E+04  0.33517487816E+03 -0.15854378668E+04  0.19940897480E+04  0.90798981341E+02 0.  0.
         13    1    3    3    0    0 -0.73831159926E+03  0.19367675544E+03 -0.10668279530E+04  0.13117684950E+04  0.00000000000E+00 0. -1.
        -13    1    3    3    0    0 -0.42021938420E+03  0.14149812273E+03 -0.51860991381E+03  0.68232125300E+03  0.00000000000E+00 0.  1.
         22    1    1    2    0    0  0.11585309835E+04 -0.33517487816E+03 -0.10963214601E+04  0.16298640994E+04  0.00000000000E+00 0.  1.
<mgrwt>
<rscale>  0 0.24374594E+04</rscale>
<asrwt>0</asrwt>
<pdfrwt beam="1">  1        2 0.48505487E+00 0.24374594E+04</pdfrwt>
<pdfrwt beam="2">  1       -2 0.72476500E-01 0.24374594E+04</pdfrwt>
<totfact> 0.21500214E+00</totfact>
</mgrwt>
</event>
<event>
 6    1  0.1762360E-005  0.3079847E+04  0.7818608E-02  0.8221290E-01
          2   -1    0    0  501    0  0.00000000000E+00  0.00000000000E+00  0.24467492258E+04  0.24467492258E+04  0.00000000000E+00 0. -1.
         -2   -1    0    0    0  501 -0.00000000000E+00 -0.00000000000E+00 -0.96919007513E+03  0.96919007513E+03  0.00000000000E+00 0.  1.
         23    2    1    2    0    0 -0.10831715301E+03 -0.88228316765E+03  0.21322693914E+04  0.23119457806E+04  0.91456774650E+02 0.  0.
         13    1    3    3    0    0 -0.11946854749E+03 -0.64180952121E+03  0.15488751198E+04  0.16808350104E+04  0.00000000000E+00 0. -1.
        -13    1    3    3    0    0  0.11151394484E+02 -0.24047364644E+03  0.58339427157E+03  0.63111077025E+03  0.00000000000E+00 0.  1.
         22    1    1    2    0    0  0.10831715301E+03  0.88228316765E+03 -0.65471024072E+03  0.11039935203E+04  0.00000000000E+00 0.  1.
<mgrwt>
<rscale>  0 0.30798474E+04</rscale>
<asrwt>0</asrwt>
<pdfrwt beam="1">  1        2 0.37642296E+00 0.30798474E+04</pdfrwt>
<pdfrwt beam="2">  1       -2 0.14910617E+00 0.30798474E+04</pdfrwt>
<totfact> 0.96721983E-01</totfact>
</mgrwt>
</event>
<event>
 6    1  0.1762360E-005  0.2177335E+04  0.7818608E-02  0.8527921E-01
          2   -1    0    0  501    0  0.00000000000E+00  0.00000000000E+00  0.22148772530E+04  0.22148772530E+04  0.00000000000E+00 0. -1.
         -2   -1    0    0    0  501 -0.00000000000E+00 -0.00000000000E+00 -0.53510742090E+03  0.53510742090E+03  0.00000000000E+00 0.  1.
         23    2    1    2    0    0  0.17894756643E+02 -0.57215654455E+03  0.20080797452E+04  0.20900826108E+04  0.91529904718E+02 0.  0.
         13    1    3    3    0    0  0.36215341103E+01 -0.41129808507E+02  0.25380581050E+03  0.25714230710E+03  0.00000000000E+00 0. -1.
        -13    1    3    3    0    0  0.14273222533E+02 -0.53102673604E+03  0.17542739347E+04  0.18329403037E+04  0.00000000000E+00 0.  1.
         22    1    1    2    0    0 -0.17894756643E+02  0.57215654455E+03 -0.32830991307E+03  0.65990206304E+03  0.00000000000E+00 0.  1.
<mgrwt>
<rscale>  0 0.21773353E+04</rscale>
<asrwt>0</asrwt>
<pdfrwt beam="1">  1        2 0.34075034E+00 0.21773353E+04</pdfrwt>
<pdfrwt beam="2">  1       -2 0.82324220E-01 0.21773353E+04</pdfrwt>
<totfact> 0.60094478E+00</totfact>
</mgrwt>
</event>
<event>
 6    1  0.1762360E-005  0.1836830E+04  0.7818608E-02  0.8686955E-01
          1   -1    0    0  501    0  0.00000000000E+00  0.00000000000E+00  0.11655274482E+04  0.11655274482E+04  0.00000000000E+00 0. -1.
         -1   -1    0    0    0  501 -0.00000000000E+00 -0.00000000000E+00 -0.72369481261E+03  0.72369481261E+03  0.00000000000E+00 0.  1.
         23    2    1    2    0    0 -0.82463813994E+03 -0.79836005988E+02  0.62364038495E+03  0.10410147937E+04  0.91556655495E+02 0.  0.
         11    1    3    3    0    0 -0.26820232909E+03  0.11711134733E+02  0.22714776056E+03  0.35166140694E+03  0.00000000000E+00 0. -1.
        -11    1    3    3    0    0 -0.55643581085E+03 -0.91547140721E+02  0.39649262439E+03  0.68935338671E+03  0.00000000000E+00 0.  1.
         22    1    1    2    0    0  0.82463813994E+03  0.79836005988E+02 -0.18180774932E+03  0.84820746720E+03  0.00000000000E+00 0.  1.
<mgrwt>
<rscale>  0 0.18368301E+04</rscale>
<asrwt>0</asrwt>
<pdfrwt beam="1">  1        1 0.17931192E+00 0.18368301E+04</pdfrwt>
<pdfrwt beam="2">  1       -1 0.11133766E+00 0.18368301E+04</pdfrwt>
<totfact> 0.79033993E+00</totfact>
</mgrwt>
</event>
<event>
 6    1  0.1762360E-005  0.1588146E+04  0.7818608E-02  0.8827864E-01
          2   -1    0    0  501    0  0.00000000000E+00  0.00000000000E+00  0.20115453172E+04  0.20115453172E+04  0.00000000000E+00 0. -1.
         -2   -1    0    0    0  501 -0.00000000000E+00 -0.00000000000E+00 -0.31346629183E+03  0.31346629183E+03  0.00000000000E+00 0.  1.
         23    2    1    2    0    0  0.16872406151E+03 -0.63063645835E+03  0.19677023009E+03  0.68791104696E+03  0.91284903198E+02 0.  0.
         13    1    3    3    0    0  0.85155708825E+02 -0.16278378296E+03  0.47303825033E+02  0.18970426090E+03  0.00000000000E+00 0.  1.
        -13    1    3    3    0    0  0.83568352683E+02 -0.46785267539E+03  0.14946640506E+03  0.49820678607E+03  0.00000000000E+00 0. -1.
         22    1    1    2    0    0 -0.16872406151E+03  0.63063645835E+03  0.15013087953E+04  0.16371005620E+04  0.00000000000E+00 0. -1.
<mgrwt>
<rscale>  0 0.15881457E+04</rscale>
<asrwt>0</asrwt>
<pdfrwt beam="1">  1        2 0.30946850E+00 0.15881457E+04</pdfrwt>
<pdfrwt beam="2">  1       -2 0.48225585E-01 0.15881457E+04</pdfrwt>
<totfact> 0.25742795E+01</totfact>
</mgrwt>
</event>
<event>
 6    1  0.1762360E-005  0.1941610E+04  0.7818608E-02  0.8634417E-01
          1   -1    0    0  501    0  0.00000000000E+00  0.00000000000E+00  0.24479806533E+04  0.24479806533E+04  0.00000000000E+00 0. -1.
         -1   -1    0    0    0  501 -0.00000000000E+00 -0.00000000000E+00 -0.38499596111E+03  0.38499596111E+03  0.00000000000E+00 0.  1.
         23    2    1    2    0    0 -0.94379248286E+03  0.87865797834E+02  0.74065351062E+03  0.12060087589E+04  0.86167595906E+02 0.  0.
         13    1    3    3    0    0 -0.72042491503E+03  0.10101854638E+03  0.54873466870E+03  0.91122255324E+03  0.00000000000E+00 0. -1.
        -13    1    3    3    0    0 -0.22336756783E+03 -0.13152748545E+02  0.19191884192E+03  0.29478620565E+03  0.00000000000E+00 0.  1.
         22    1    1    2    0    0  0.94379248286E+03 -0.87865797834E+02  0.13223311816E+04  0.16269678555E+04  0.00000000000E+00 0. -1.
<mgrwt>
<rscale>  0 0.19416103E+04</rscale>
<asrwt>0</asrwt>
<pdfrwt beam="1">  1        1 0.37661240E+00 0.19416103E+04</pdfrwt>
<pdfrwt beam="2">  1       -1 0.59230149E-01 0.19416103E+04</pdfrwt>
<totfact> 0.39674428E+00</totfact>
</mgrwt>
</event>
<event>
 6    1  0.1762360E-005  0.6860871E+03  0.7818608E-02  0.9741325E-01
          1   -1    0    0  501    0  0.00000000000E+00  0.00000000000E+00  0.53455621607E+03  0.53455621607E+03  0.00000000000E+00 0. -1.
         -1   -1    0    0    0  501 -0.00000000000E+00 -0.00000000000E+00 -0.22014311076E+03  0.22014311076E+03  0.00000000000E+00 0.  1.
         23    2    1    2    0    0 -0.90714599323E+02  0.18147015989E+03 -0.13468794929E+03  0.26189884519E+03  0.96382591601E+02 0.  0.
         13    1    3    3    0    0 -0.41988795797E+02  0.32103398887E+02 -0.79315404014E+02  0.95313275605E+02  0.00000000000E+00 0.  1.
        -13    1    3    3    0    0 -0.48725803526E+02  0.14936676100E+03 -0.55372545280E+02  0.16658556958E+03  0.00000000000E+00 0. -1.
         22    1    1    2    0    0  0.90714599323E+02 -0.18147015989E+03  0.44910105461E+03  0.49280048165E+03  0.00000000000E+00 0. -1.
<mgrwt>
<rscale>  0 0.68608707E+03</rscale>
<asrwt>0</asrwt>
<pdfrwt beam="1">  1        1 0.82239418E-01 0.68608707E+03</pdfrwt>
<pdfrwt beam="2">  1       -1 0.33868171E-01 0.68608707E+03</pdfrwt>
<totfact> 0.33631008E+02</totfact>
</mgrwt>
</event>
<event>
 6    1  0.1762360E-005  0.1931656E+04  0.7818608E-02  0.8639258E-01
         -2   -1    0    0    0  501 -0.00000000000E+00  0.00000000000E+00  0.13361638705E+04  0.13361638705E+04  0.00000000000E+00 0.  1.
          2   -1    0    0  501    0  0.00000000000E+00 -0.00000000000E+00 -0.69813545071E+03  0.69813545071E+03  0.00000000000E+00 0. -1.
         23    2    1    2    0    0  0.60107804752E+02 -0.41084069267E+03  0.12352239826E+04  0.13069441376E+04  0.99607572813E+02 0.  0.
         11    1    3    3    0    0  0.82409102063E+02 -0.37618238629E+03  0.10924029609E+04  0.11582955913E+04  0.00000000000E+00 0.  1.
        -11    1    3    3    0    0 -0.22301297311E+02 -0.34658306381E+02  0.14282102177E+03  0.14864854632E+03  0.00000000000E+00 0. -1.
         22    1    1    2    0    0 -0.60107804752E+02  0.41084069267E+03 -0.59719556282E+03  0.72735518366E+03  0.00000000000E+00 0. -1.
<mgrwt>
<rscale>  0 0.19316556E+04</rscale>
<asrwt>0</asrwt>
<pdfrwt beam="1">  1        2 0.10740545E+00 0.19316556E+04</pdfrwt>
<pdfrwt beam="2">  1       -2 0.20556367E+00 0.19316556E+04</pdfrwt>
<totfact> 0.46949607E+00</totfact>
</mgrwt>
</event>
<event>
 6    1  0.1762360E-005  0.2415706E+04  0.7818608E-02  0.8433647E-01
         -2   -1    0    0    0  501 -0.00000000000E+00  0.00000000000E+00  0.52646570608E+03  0.52646570608E+03  0.00000000000E+00 0.  1.
          2   -1    0    0  501    0  0.00000000000E+00 -0.00000000000E+00 -0.27711375026E+04  0.27711375026E+04  0.00000000000E+00 0. -1.
         23    2    1    2    0    0  0.94949219752E+03  0.67994898195E+02 -0.21350035346E+04  0.23393830529E+04  0.91182433921E+02 0.  0.
         11    1    3    3    0    0  0.22781488440E+03  0.38533988742E+02 -0.59962225402E+03  0.64259733688E+03  0.00000000000E+00 0. -1.
        -11    1    3    3    0    0  0.72167731311E+03  0.29460909453E+02 -0.15353812806E+04  0.16967857160E+04  0.00000000000E+00 0.  1.
         22    1    1    2    0    0 -0.94949219752E+03 -0.67994898195E+02 -0.10966826199E+03  0.95822015582E+03  0.00000000000E+00 0. -1.
<mgrwt>
<rscale>  0 0.24157060E+04</rscale>
<asrwt>0</asrwt>
<pdfrwt beam="1">  1        2 0.42632884E+00 0.24157060E+04</pdfrwt>
<pdfrwt beam="2">  1       -2 0.80994725E-01 0.24157060E+04</pdfrwt>
<totfact> 0.29063801E+00</totfact>
</mgrwt>
</event>
<event>
 6    1  0.1762360E-005  0.1050193E+04  0.7818608E-02  0.9255145E-01
         -1   -1    0    0    0  501 -0.00000000000E+00  0.00000000000E+00  0.15718039545E+03  0.15718039545E+03  0.00000000000E+00 0.  1.
          1   -1    0    0  501    0  0.00000000000E+00 -0.00000000000E+00 -0.17542034275E+04  0.17542034275E+04  0.00000000000E+00 0. -1.
         23    2    1    2    0    0 -0.47414636866E+03 -0.20724046090E+03 -0.69247253776E+03  0.86928258783E+03  0.91491061833E+02 0.  0.
         11    1    3    3    0    0 -0.15547053977E+03 -0.92358175600E+02 -0.18141333683E+03  0.25614823856E+03  0.00000000000E+00 0. -1.
        -11    1    3    3    0    0 -0.31867582889E+03 -0.11488228530E+03 -0.51105920093E+03  0.61313434927E+03  0.00000000000E+00 0.  1.
         22    1    1    2    0    0  0.47414636866E+03  0.20724046090E+03 -0.90455049433E+03  0.10421012352E+04  0.00000000000E+00 0. -1.
<mgrwt>
<rscale>  0 0.10501931E+04</rscale>
<asrwt>0</asrwt>
<pdfrwt beam="1">  1        1 0.26987745E+00 0.10501931E+04</pdfrwt>
<pdfrwt beam="2">  1       -1 0.24181599E-01 0.10501931E+04</pdfrwt>
<totfact> 0.64977471E+01</totfact>
</mgrwt>
</event>
<event>
 6    1  0.1762360E-005  0.4191742E+03  0.7818608E-02  0.1037335E+00
          3   -1    0    0  501    0  0.00000000000E+00  0.00000000000E+00  0.16170569602E+03  0.16170569602E+03  0.00000000000E+00 0. -1.
         -3   -1    0    0    0  501 -0.00000000000E+00 -0.00000000000E+00 -0.27164622594E+03  0.27164622594E+03  0.00000000000E+00 0.  1.
         23    2    1    2    0    0 -0.18682163644E+03  0.33935117491E+02 -0.12092128571E+03  0.24315598868E+03  0.91918232420E+02 0.  0.
         13    1    3    3    0    0 -0.85036259858E+02 -0.28683353237E+02 -0.36710616966E+02  0.96961691619E+02  0.00000000000E+00 0.  1.
        -13    1    3    3    0    0 -0.10178537658E+03  0.62618470728E+02 -0.84210668749E+02  0.14619429706E+03  0.00000000000E+00 0. -1.
         22    1    1    2    0    0  0.18682163644E+03 -0.33935117491E+02  0.10980755800E+02  0.19019593328E+03  0.00000000000E+00 0.  1.
<mgrwt>
<rscale>  0 0.41917415E+03</rscale>
<asrwt>0</asrwt>
<pdfrwt beam="1">  1        3 0.24877799E-01 0.41917415E+03</pdfrwt>
<pdfrwt beam="2">  1       -3 0.41791727E-01 0.41917415E+03</pdfrwt>
<totfact> 0.22555887E+02</totfact>
</mgrwt>
</event>
<event>
 6    1  0.1762360E-005  0.2406500E+04  0.7818608E-02  0.8437074E-01
         -1   -1    0    0    0  501 -0.00000000000E+00  0.00000000000E+00  0.13147395283E+04  0.13147395283E+04  0.00000000000E+00 0.  1.
          1   -1    0    0  501    0  0.00000000000E+00 -0.00000000000E+00 -0.11012151937E+04  0.11012151937E+04  0.00000000000E+00 0. -1.
         23    2    1    2    0    0  0.18931858978E+03  0.95805037077E+03 -0.59583866196E+03  0.11475815508E+04  0.90651327502E+02 0.  0.
         13    1    3    3    0    0  0.15334672189E+03  0.89206787434E+03 -0.54043563132E+03  0.10542158134E+04  0.00000000000E+00 0.  1.
        -13    1    3    3    0    0  0.35971867890E+02  0.65982496428E+02 -0.55403030640E+02  0.93365737391E+02  0.00000000000E+00 0. -1.
         22    1    1    2    0    0 -0.18931858978E+03 -0.95805037077E+03  0.80936299653E+03  0.12683731712E+04  0.00000000000E+00 0.  1.
<mgrwt>
<rscale>  0 0.24065005E+04</rscale>
<asrwt>0</asrwt>
<pdfrwt beam="1">  1        1 0.16941772E+00 0.24065005E+04</pdfrwt>
<pdfrwt beam="2">  1       -1 0.20226762E+00 0.24065005E+04</pdfrwt>
<totfact> 0.16451496E+00</totfact>
</mgrwt>
</event>
<event>
 6    1  0.1762360E-005  0.2218048E+04  0.7818608E-02  0.8510953E-01
          1   -1    0    0  501    0  0.00000000000E+00  0.00000000000E+00  0.11640436282E+04  0.11640436282E+04  0.00000000000E+00 0. -1.
         -1   -1    0    0    0  501 -0.00000000000E+00 -0.00000000000E+00 -0.10566053749E+04  0.10566053749E+04  0.00000000000E+00 0.  1.
         23    2    1    2    0    0 -0.30410871658E+02  0.85662812940E+03 -0.64666359729E+03  0.10789808490E+04  0.10625107636E+03 0.  0.
         13    1    3    3    0    0  0.20365056807E+02  0.46074134311E+03 -0.39421897145E+03  0.60671732976E+03  0.00000000000E+00 0.  1.
        -13    1    3    3    0    0 -0.50775928465E+02  0.39588678629E+03 -0.25244462584E+03  0.47226351922E+03  0.00000000000E+00 0. -1.
         22    1    1    2    0    0  0.30410871658E+02 -0.85662812940E+03  0.75410185054E+03  0.11416681541E+04  0.00000000000E+00 0. -1.
<mgrwt>
<rscale>  0 0.22180485E+04</rscale>
<asrwt>0</asrwt>
<pdfrwt beam="1">  1        1 0.17908364E+00 0.22180485E+04</pdfrwt>
<pdfrwt beam="2">  1       -1 0.16255467E+00 0.22180485E+04</pdfrwt>
<totfact> 0.28900991E+00</totfact>
</mgrwt>
</event>
<event>
 6    1  0.1762360E-005  0.2989387E+04  0.7818608E-02  0.8246768E-01
          2   -1    0    0  501    0  0.00000000000E+00  0.00000000000E+00  0.13375118330E+04  0.13375118330E+04  0.00000000000E+00 0. -1.
         -2   -1    0    0    0  501 -0.00000000000E+00 -0.00000000000E+00 -0.16703463225E+04  0.16703463225E+04  0.00000000000E+00 0.  1.
         23    2    1    2    0    0 -0.19620604751E+03 -0.53605420530E+03  0.12218668120E+04  0.13516736668E+04  0.90621581766E+02 0.  0.
         13    1    3    3    0    0 -0.20100943602E+03 -0.47948389744E+03  0.10723283909E+04  0.11917205122E+04  0.00000000000E+00 0.  1.
        -13    1    3    3    0    0  0.48033885090E+01 -0.56570307857E+02  0.14953842106E+03  0.15995315454E+03  0.00000000000E+00 0. -1.
         22    1    1    2    0    0  0.19620604751E+03  0.53605420530E+03 -0.15547013015E+04  0.16561844888E+04  0.00000000000E+00 0.  1.
<mgrwt>
<rscale>  0 0.29893865E+04</rscale>
<asrwt>0</asrwt>
<pdfrwt beam="1">  1        2 0.20577105E+00 0.29893865E+04</pdfrwt>
<pdfrwt beam="2">  1       -2 0.25697636E+00 0.29893865E+04</pdfrwt>
<totfact> 0.78424514E-01</totfact>
</mgrwt>
</event>
<event>
 6    1  0.1762360E-005  0.3526731E+04  0.7818608E-02  0.8107484E-01
          1   -1    0    0  501    0  0.00000000000E+00  0.00000000000E+00  0.43170862158E+04  0.43170862158E+04  0.00000000000E+00 0. -1.
         -1   -1    0    0    0  501 -0.00000000000E+00 -0.00000000000E+00 -0.72026789194E+03  0.72026789194E+03  0.00000000000E+00 0.  1.
         23    2    1    2    0    0  0.11841091065E+04 -0.30893128613E+03 -0.11642888785E+02  0.12270332238E+04  0.89005954077E+02 0.  0.
         11    1    3    3    0    0  0.10572169116E+04 -0.29803799828E+03  0.61269191733E+01  0.10984406155E+04  0.00000000000E+00 0. -1.
        -11    1    3    3    0    0  0.12689219482E+03 -0.10893287847E+02 -0.17769807958E+02  0.12859260826E+03  0.00000000000E+00 0.  1.
         22    1    1    2    0    0 -0.11841091065E+04  0.30893128613E+03  0.36084612127E+04  0.38103208840E+04  0.00000000000E+00 0. -1.
<mgrwt>
<rscale>  0 0.35267314E+04</rscale>
<asrwt>0</asrwt>
<pdfrwt beam="1">  1        1 0.66416710E+00 0.35267314E+04</pdfrwt>
<pdfrwt beam="2">  1       -1 0.11081045E+00 0.35267314E+04</pdfrwt>
<totfact> 0.29806673E-02</totfact>
</mgrwt>
</event>
<event>
 6    1  0.1762360E-005  0.1685384E+04  0.7818608E-02  0.8769744E-01
         -1   -1    0    0    0  501 -0.00000000000E+00  0.00000000000E+00  0.26039328426E+03  0.26039328426E+03  0.00000000000E+00 0.  1.
          1   -1    0    0  501    0  0.00000000000E+00 -0.00000000000E+00 -0.27271441775E+04  0.27271441775E+04  0.00000000000E+00 0. -1.
         23    2    1    2    0    0 -0.81439811923E+03  0.20651863564E+03 -0.12501259681E+04  0.15090008704E+04  0.91512006399E+02 0.  0.
         13    1    3    3    0    0 -0.21454220867E+03  0.91232384017E+02 -0.31051673053E+03  0.38829415027E+03  0.00000000000E+00 0.  1.
        -13    1    3    3    0    0 -0.59985591056E+03  0.11528625162E+03 -0.93960923756E+03  0.11207067201E+04  0.00000000000E+00 0. -1.
         22    1    1    2    0    0  0.81439811923E+03 -0.20651863564E+03 -0.12166249252E+04  0.14785365914E+04  0.00000000000E+00 0.  1.
<mgrwt>
<rscale>  0 0.16853843E+04</rscale>
<asrwt>0</asrwt>
<pdfrwt beam="1">  1        1 0.41956062E+00 0.16853843E+04</pdfrwt>
<pdfrwt beam="2">  1       -1 0.40060507E-01 0.16853843E+04</pdfrwt>
<totfact> 0.54479549E+00</totfact>
</mgrwt>
</event>
<event>
 6    1  0.1762360E-005  0.1974102E+04  0.7818608E-02  0.8618825E-01
          2   -1    0    0  501    0  0.00000000000E+00  0.00000000000E+00  0.19897200787E+04  0.19897200787E+04  0.00000000000E+00 0. -1.
         -2   -1    0    0    0  501 -0.00000000000E+00 -0.00000000000E+00 -0.48965176354E+03  0.48965176354E+03  0.00000000000E+00 0.  1.
         23    2    1    2    0    0 -0.22795542051E+01 -0.50526619677E+03  0.18137502311E+04  0.18846488224E+04  0.83139381853E+02 0.  0.
         13    1    3    3    0    0  0.28033181112E+02 -0.43004838978E+03  0.15304391343E+04  0.15899595657E+04  0.00000000000E+00 0. -1.
        -13    1    3    3    0    0 -0.30312735317E+02 -0.75217806991E+02  0.28331109684E+03  0.29468925668E+03  0.00000000000E+00 0.  1.
         22    1    1    2    0    0  0.22795542051E+01  0.50526619677E+03 -0.31368191596E+03  0.59472301987E+03  0.00000000000E+00 0.  1.
<mgrwt>
<rscale>  0 0.19741023E+04</rscale>
<asrwt>0</asrwt>
<pdfrwt beam="1">  1        2 0.30611078E+00 0.19741023E+04</pdfrwt>
<pdfrwt beam="2">  1       -2 0.75331042E-01 0.19741023E+04</pdfrwt>
<totfact> 0.99654952E+00</totfact>
</mgrwt>
</event>
<event>
 6    1  0.1762360E-005  0.2153980E+04  0.7818608E-02  0.8537830E-01
          2   -1    0    0  501    0  0.00000000000E+00  0.00000000000E+00  0.19370326170E+04  0.19370326170E+04  0.00000000000E+00 0. -1.
         -2   -1    0    0    0  501 -0.00000000000E+00 -0.00000000000E+00 -0.59880645914E+03  0.59880645914E+03  0.00000000000E+00 0.  1.
         23    2    1    2    0    0 -0.41614041618E+03  0.69825786204E+03 -0.15795966067E+03  0.83310336809E+03  0.91504533461E+02 0.  0.
         13    1    3    3    0    0 -0.27877768621E+03  0.38655358492E+03 -0.74280228368E+02  0.48234658149E+03  0.00000000000E+00 0. -1.
        -13    1    3    3    0    0 -0.13736272997E+03  0.31170427711E+03 -0.83679432297E+02  0.35075678660E+03  0.00000000000E+00 0.  1.
         22    1    1    2    0    0  0.41614041618E+03 -0.69825786204E+03  0.14961858185E+04  0.17027357080E+04  0.00000000000E+00 0. -1.
<mgrwt>
<rscale>  0 0.21539802E+04</rscale>
<asrwt>0</asrwt>
<pdfrwt beam="1">  1        2 0.29800502E+00 0.21539802E+04</pdfrwt>
<pdfrwt beam="2">  1       -2 0.92124072E-01 0.21539802E+04</pdfrwt>
<totfact> 0.66524278E+00</totfact>
</mgrwt>
</event>
<event>
 6    1  0.1762360E-005  0.1226658E+04  0.7818608E-02  0.9089837E-01
         -2   -1    0    0    0  501 -0.00000000000E+00  0.00000000000E+00  0.60965328734E+03  0.60965328734E+03  0.00000000000E+00 0.  1.
          2   -1    0    0  501    0  0.00000000000E+00 -0.00000000000E+00 -0.61702716684E+03  0.61702716684E+03  0.00000000000E+00 0. -1.
         23    2    1    2    0    0 -0.54049547312E+03 -0.94564980755E+02 -0.27025939460E+03  0.61825076547E+03  0.90088715084E+02 0.  0.
         13    1    3    3    0    0 -0.40437055438E+03 -0.46722338495E+02 -0.23380730551E+03  0.46942984382E+03  0.00000000000E+00 0.  1.
        -13    1    3    3    0    0 -0.13612491875E+03 -0.47842642260E+02 -0.36452089098E+02  0.14882092165E+03  0.00000000000E+00 0. -1.
         22    1    1    2    0    0  0.54049547312E+03  0.94564980755E+02  0.26288551511E+03  0.60842968871E+03  0.00000000000E+00 0. -1.
<mgrwt>
<rscale>  0 0.12266583E+04</rscale>
<asrwt>0</asrwt>
<pdfrwt beam="1">  1        2 0.94927256E-01 0.12266583E+04</pdfrwt>
<pdfrwt beam="2">  1       -2 0.93792814E-01 0.12266583E+04</pdfrwt>
<totfact> 0.45358792E+01</totfact>
</mgrwt>
</event>
<event>
 6    1  0.1762360E-005  0.2961573E+04  0.7818608E-02  0.8254790E-01
         -2   -1    0    0    0  501 -0.00000000000E+00  0.00000000000E+00  0.15872307730E+04  0.15872307730E+04  0.00000000000E+00 0.  1.
          2   -1    0    0  501    0  0.00000000000E+00 -0.00000000000E+00 -0.13814807229E+04  0.13814807229E+04  0.00000000000E+00 0. -1.
         23    2    1    2    0    0 -0.13491025239E+04  0.51442047160E+03  0.42632834542E+03  0.15081085977E+04  0.89048541118E+02 0.  0.
         13    1    3    3    0    0 -0.43232762214E+03  0.18949903327E+03  0.17582028296E+03  0.50371601958E+03  0.00000000000E+00 0. -1.
        -13    1    3    3    0    0 -0.91677490179E+03  0.32492143833E+03  0.25050806246E+03  0.10043925781E+04  0.00000000000E+00 0.  1.
         22    1    1    2    0    0  0.13491025239E+04 -0.51442047160E+03 -0.22057829530E+03  0.14606028981E+04  0.00000000000E+00 0.  1.
<mgrwt>
<rscale>  0 0.29615730E+04</rscale>
<asrwt>0</asrwt>
<pdfrwt beam="1">  1        2 0.21253550E+00 0.29615730E+04</pdfrwt>
<pdfrwt beam="2">  1       -2 0.24418935E+00 0.29615730E+04</pdfrwt>
<totfact> 0.88867873E-01</totfact>
</mgrwt>
</event>
<event>
 6    1  0.1762360E-005  0.2854571E+04  0.7818608E-02  0.8286524E-01
         -1   -1    0    0    0  501 -0.00000000000E+00  0.00000000000E+00  0.25080357602E+04  0.25080357602E+04  0.00000000000E+00 0.  1.
          1   -1    0    0  501    0  0.00000000000E+00 -0.00000000000E+00 -0.81224678050E+03  0.81224678050E+03  0.00000000000E+00 0. -1.
         23    2    1    2    0    0 -0.11715194232E+04 -0.59880542382E+03  0.14877526431E+04  0.19882522062E+04  0.93344598242E+02 0.  0.
         13    1    3    3    0    0 -0.60578513451E+03 -0.31956584276E+03  0.70524300770E+03  0.98308985193E+03  0.00000000000E+00 0.  1.
        -13    1    3    3    0    0 -0.56573428873E+03 -0.27923958106E+03  0.78250963538E+03  0.10051623543E+04  0.00000000000E+00 0. -1.
         22    1    1    2    0    0  0.11715194232E+04  0.59880542382E+03  0.20803633666E+03  0.13320303345E+04  0.00000000000E+00 0.  1.
<mgrwt>
<rscale>  0 0.28545711E+04</rscale>
<asrwt>0</asrwt>
<pdfrwt beam="1">  1        1 0.12496104E+00 0.28545711E+04</pdfrwt>
<pdfrwt beam="2">  1       -1 0.38585165E+00 0.28545711E+04</pdfrwt>
<totfact> 0.16595795E-01</totfact>
</mgrwt>
</event>
<event>
 6    1  0.1762360E-005  0.2171254E+04  0.7818608E-02  0.8530489E-01
         -2   -1    0    0    0  501 -0.00000000000E+00  0.00000000000E+00  0.44752328591E+03  0.44752328591E+03  0.00000000000E+00 0.  1.
          2   -1    0    0  501    0  0.00000000000E+00 -0.00000000000E+00 -0.26335752797E+04  0.26335752797E+04  0.00000000000E+00 0. -1.
         23    2    1    2    0    0  0.56482319501E+03  0.91492739259E+03 -0.90228541684E+03  0.14065317561E+04  0.89973508589E+02 0.  0.
         11    1    3    3    0    0  0.17679072185E+03  0.28888118323E+03 -0.33985184702E+03  0.47979847361E+03  0.00000000000E+00 0. -1.
        -11    1    3    3    0    0  0.38803247316E+03  0.62604620936E+03 -0.56243356981E+03  0.92673328252E+03  0.00000000000E+00 0.  1.
         22    1    1    2    0    0 -0.56482319501E+03 -0.91492739259E+03 -0.12837665770E+04  0.16745668095E+04  0.00000000000E+00 0.  1.
<mgrwt>
<rscale>  0 0.21712543E+04</rscale>
<asrwt>0</asrwt>
<pdfrwt beam="1">  1        2 0.40516541E+00 0.21712543E+04</pdfrwt>
<pdfrwt beam="2">  1       -2 0.68849739E-01 0.21712543E+04</pdfrwt>
<totfact> 0.51366407E+00</totfact>
</mgrwt>
</event>
<event>
 6    1  0.1762360E-005  0.1679526E+04  0.7818608E-02  0.8773128E-01
          2   -1    0    0  501    0  0.00000000000E+00  0.00000000000E+00  0.23307091381E+04  0.23307091381E+04  0.00000000000E+00 0.  1.
         -2   -1    0    0    0  501 -0.00000000000E+00 -0.00000000000E+00 -0.30256965799E+03  0.30256965799E+03  0.00000000000E+00 0. -1.
         23    2    1    2    0    0  0.22769032486E+03  0.14904633394E+03  0.22585336105E+04  0.22767130252E+04  0.91599322094E+02 0.  0.
         13    1    3    3    0    0  0.10240169407E+03  0.80302544545E+02  0.14334273481E+04  0.14393222599E+04  0.00000000000E+00 0. -1.
        -13    1    3    3    0    0  0.12528863078E+03  0.68743789396E+02  0.82510626238E+03  0.83739076530E+03  0.00000000000E+00 0.  1.
         22    1    1    2    0    0 -0.22769032486E+03 -0.14904633394E+03 -0.23039413034E+03  0.35656577092E+03  0.00000000000E+00 0. -1.
<mgrwt>
<rscale>  0 0.16795260E+04</rscale>
<asrwt>0</asrwt>
<pdfrwt beam="1">  1        2 0.35857062E+00 0.16795260E+04</pdfrwt>
<pdfrwt beam="2">  1       -2 0.46549180E-01 0.16795260E+04</pdfrwt>
<totfact> 0.18178094E+01</totfact>
</mgrwt>
</event>
<event>
 6    1  0.1762360E-005  0.5425783E+04  0.7818608E-02  0.7765985E-01
         -1   -1    0    0    0  501 -0.00000000000E+00  0.00000000000E+00  0.24215660440E+04  0.24215660440E+04  0.00000000000E+00 0.  1.
          1   -1    0    0  501    0  0.00000000000E+00 -0.00000000000E+00 -0.30392650003E+04  0.30392650003E+04  0.00000000000E+00 0. -1.
         23    2    1    2    0    0  0.13481057083E+04  0.14923016624E+04  0.15224964124E+04  0.25240318565E+04  0.91587304073E+02 0.  0.
         13    1    3    3    0    0  0.58808066061E+03  0.71630460602E+03  0.71715301082E+03  0.11718530594E+04  0.00000000000E+00 0.  1.
        -13    1    3    3    0    0  0.76002504771E+03  0.77599705641E+03  0.80534340162E+03  0.13521787971E+04  0.00000000000E+00 0. -1.
         22    1    1    2    0    0 -0.13481057083E+04 -0.14923016624E+04 -0.21401953688E+04  0.29367991877E+04  0.00000000000E+00 0. -1.
<mgrwt>
<rscale>  0 0.54257832E+04</rscale>
<asrwt>0</asrwt>
<pdfrwt beam="1">  1        1 0.46757923E+00 0.54257832E+04</pdfrwt>
<pdfrwt beam="2">  1       -1 0.37254862E+00 0.54257832E+04</pdfrwt>
<totfact> 0.42910526E-03</totfact>
</mgrwt>
</event>
<event>
 6    1  0.1762360E-005  0.4490247E+04  0.7818608E-02  0.7912347E-01
          2   -1    0    0  501    0  0.00000000000E+00  0.00000000000E+00  0.30590083173E+04  0.30590083173E+04  0.00000000000E+00 0.  1.
         -2   -1    0    0    0  501 -0.00000000000E+00 -0.00000000000E+00 -0.16477818742E+04  0.16477818742E+04  0.00000000000E+00 0. -1.
         23    2    1    2    0    0  0.15499410244E+04  0.15305611946E+04  0.13995300097E+03  0.21846738353E+04  0.90984475583E+02 0.  0.
         11    1    3    3    0    0  0.69061847242E+03  0.65615053144E+03  0.10251438902E+03  0.95812138809E+03  0.00000000000E+00 0. -1.
        -11    1    3    3    0    0  0.85932255197E+03  0.87441066315E+03  0.37438611948E+02  0.12265524472E+04  0.00000000000E+00 0.  1.
         22    1    1    2    0    0 -0.15499410244E+04 -0.15305611946E+04  0.12712734421E+04  0.25221163562E+04  0.00000000000E+00 0.  1.
<mgrwt>
<rscale>  0 0.44902465E+04</rscale>
<asrwt>0</asrwt>
<pdfrwt beam="1">  1        2 0.47061666E+00 0.44902465E+04</pdfrwt>
<pdfrwt beam="2">  1       -2 0.25350490E+00 0.44902465E+04</pdfrwt>
<totfact> 0.74057600E-02</totfact>
</mgrwt>
</event>
<event>
 6    1  0.1762360E-005  0.1500560E+04  0.7818608E-02  0.8884081E-01
         -1   -1    0    0    0  501 -0.00000000000E+00  0.00000000000E+00  0.69002166209E+03  0.69002166209E+03  0.00000000000E+00 0.  1.
          1   -1    0    0  501    0  0.00000000000E+00 -0.00000000000E+00 -0.81580068789E+03  0.81580068789E+03  0.00000000000E+00 0. -1.
         23    2    1    2    0    0 -0.39761350659E+03  0.26904619901E+03  0.51175094816E+03  0.70774539534E+03  0.92369658731E+02 0.  0.
         13    1    3    3    0    0 -0.98847984021E+02  0.77890372339E+02  0.80579391042E+02  0.14943517761E+03  0.00000000000E+00 0. -1.
        -13    1    3    3    0    0 -0.29876552257E+03  0.19115582667E+03  0.43117155711E+03  0.55831021772E+03  0.00000000000E+00 0.  1.
         22    1    1    2    0    0  0.39761350659E+03 -0.26904619901E+03 -0.63752997396E+03  0.79807695464E+03  0.00000000000E+00 0. -1.
<mgrwt>
<rscale>  0 0.15005601E+04</rscale>
<asrwt>0</asrwt>
<pdfrwt beam="1">  1        1 0.12550780E+00 0.15005601E+04</pdfrwt>
<pdfrwt beam="2">  1       -1 0.10615718E+00 0.15005601E+04</pdfrwt>
<totfact> 0.17201253E+01</totfact>
</mgrwt>
</event>
<event>
 6    1  0.1762360E-005  0.1206746E+04  0.7818608E-02  0.9106972E-01
         -2   -1    0    0    0  501 -0.00000000000E+00  0.00000000000E+00  0.41192472797E+03  0.41192472797E+03  0.00000000000E+00 0.  1.
          2   -1    0    0  501    0  0.00000000000E+00 -0.00000000000E+00 -0.88379984794E+03  0.88379984794E+03  0.00000000000E+00 0. -1.
         23    2    1    2    0    0  0.61443972222E+02  0.55153785725E+03 -0.48224316633E+03  0.74067785167E+03  0.89865670716E+02 0.  0.
         11    1    3    3    0    0  0.50782815294E+02  0.48124393304E+03 -0.37591642886E+03  0.61277057608E+03  0.00000000000E+00 0.  1.
        -11    1    3    3    0    0  0.10661156928E+02  0.70293924211E+02 -0.10632673747E+03  0.12790727559E+03  0.00000000000E+00 0. -1.
         22    1    1    2    0    0 -0.61443972222E+02 -0.55153785725E+03  0.10368046361E+02  0.55504672424E+03  0.00000000000E+00 0. -1.
<mgrwt>
<rscale>  0 0.12067461E+04</rscale>
<asrwt>0</asrwt>
<pdfrwt beam="1">  1        2 0.13596921E+00 0.12067461E+04</pdfrwt>
<pdfrwt beam="2">  1       -2 0.63373036E-01 0.12067461E+04</pdfrwt>
<totfact> 0.68403205E+01</totfact>
</mgrwt>
</event>
<event>
 6    1  0.1762360E-005  0.2435320E+04  0.7818608E-02  0.8426398E-01
         -2   -1    0    0    0  501 -0.00000000000E+00  0.00000000000E+00  0.97506258361E+03  0.97506258361E+03  0.00000000000E+00 0.  1.
          2   -1    0    0  501    0  0.00000000000E+00 -0.00000000000E+00 -0.15206156902E+04  0.15206156902E+04  0.00000000000E+00 0. -1.
         23    2    1    2    0    0  0.22959317022E+03  0.11683425793E+04 -0.52576979723E+03  0.13048261479E+04  0.91651460985E+02 0.  0.
         11    1    3    3    0    0  0.94434975778E+02  0.68170715882E+03 -0.32870334937E+03  0.76268506405E+03  0.00000000000E+00 0.  1.
        -11    1    3    3    0    0  0.13515819444E+03  0.48663542046E+03 -0.19706644786E+03  0.54214108389E+03  0.00000000000E+00 0. -1.
         22    1    1    2    0    0 -0.22959317022E+03 -0.11683425793E+04 -0.19783309363E+02  0.11908521259E+04  0.00000000000E+00 0.  1.
<mgrwt>
<rscale>  0 0.24353197E+04</rscale>
<asrwt>0</asrwt>
<pdfrwt beam="1">  1        2 0.23394087E+00 0.24353197E+04</pdfrwt>
<pdfrwt beam="2">  1       -2 0.15000963E+00 0.24353197E+04</pdfrwt>
<totfact> 0.33199668E+00</totfact>
</mgrwt>
</event>
<event>
 6    1  0.1762360E-005  0.4201447E+04  0.7818608E-02  0.7965097E-01
         -2   -1    0    0    0  501 -0.00000000000E+00  0.00000000000E+00  0.17261060741E+04  0.17261060741E+04  0.00000000000E+00 0.  1.
          2   -1    0    0  501    0  0.00000000000E+00 -0.00000000000E+00 -0.25566441721E+04  0.25566441721E+04  0.00000000000E+00 0. -1.
         23    2    1    2    0    0 -0.87155219571E+03  0.49241418805E+03 -0.22969271619E+04  0.25072582442E+04  0.91621796293E+02 0.  0.
         13    1    3    3    0    0 -0.57249885653E+03  0.37252775134E+03 -0.15591645751E+04  0.17022121015E+04  0.00000000000E+00 0. -1.
        -13    1    3    3    0    0 -0.29905333918E+03  0.11988643671E+03 -0.73776258677E+03  0.80504614267E+03  0.00000000000E+00 0.  1.
         22    1    1    2    0    0  0.87155219571E+03 -0.49241418805E+03  0.14663890639E+04  0.17754920020E+04  0.00000000000E+00 0.  1.
<mgrwt>
<rscale>  0 0.42014469E+04</rscale>
<asrwt>0</asrwt>
<pdfrwt beam="1">  1        2 0.39332987E+00 0.42014469E+04</pdfrwt>
<pdfrwt beam="2">  1       -2 0.26555478E+00 0.42014469E+04</pdfrwt>
<totfact> 0.12921328E-01</totfact>
</mgrwt>
</event>
<event>
 6    1  0.1762360E-005  0.4162579E+04  0.7818608E-02  0.7972529E-01
          2   -1    0    0  501    0  0.00000000000E+00  0.00000000000E+00  0.31159364782E+04  0.31159364782E+04  0.00000000000E+00 0. -1.
         -2   -1    0    0    0  501 -0.00000000000E+00 -0.00000000000E+00 -0.13901974458E+04  0.13901974458E+04  0.00000000000E+00 0.  1.
         23    2    1    2    0    0 -0.10028059914E+02  0.18607305276E+04 -0.14362226717E+03  0.18685345749E+04  0.91517451054E+02 0.  0.
         13    1    3    3    0    0 -0.50992868648E+02  0.10051973164E+04 -0.75801117868E+02  0.10093402435E+04  0.00000000000E+00 0. -1.
        -13    1    3    3    0    0  0.40964808734E+02  0.85553321117E+03 -0.67821149298E+02  0.85919433149E+03  0.00000000000E+00 0.  1.
         22    1    1    2    0    0  0.10028059914E+02 -0.18607305276E+04  0.18693612995E+04  0.26375993491E+04  0.00000000000E+00 0. -1.
<mgrwt>
<rscale>  0 0.41625795E+04</rscale>
<asrwt>0</asrwt>
<pdfrwt beam="1">  1        2 0.47937484E+00 0.41625795E+04</pdfrwt>
<pdfrwt beam="2">  1       -2 0.21387653E+00 0.41625795E+04</pdfrwt>
<totfact> 0.12364700E-01</totfact>
</mgrwt>
</event>
<event>
 6    1  0.1762360E-005  0.1436066E+04  0.7818608E-02  0.8928118E-01
          2   -1    0    0  501    0  0.00000000000E+00  0.00000000000E+00  0.16950832962E+04  0.16950832962E+04  0.00000000000E+00 0. -1.
         -2   -1    0    0    0  501 -0.00000000000E+00 -0.00000000000E+00 -0.30415687060E+03  0.30415687060E+03  0.00000000000E+00 0.  1.
         23    2    1    2    0    0 -0.43863860382E+03 -0.30800102281E+03  0.13573520658E+04  0.14622153141E+04  0.91654457281E+02 0.  0.
         11    1    3    3    0    0 -0.19988456597E+03 -0.98358949470E+02  0.48228937740E+03  0.53125452111E+03  0.00000000000E+00 0. -1.
        -11    1    3    3    0    0 -0.23875403785E+03 -0.20964207334E+03  0.87506268837E+03  0.93096079299E+03  0.00000000000E+00 0.  1.
         22    1    1    2    0    0  0.43863860382E+03  0.30800102281E+03  0.33574359862E+02  0.53702485273E+03  0.00000000000E+00 0.  1.
<mgrwt>
<rscale>  0 0.14360658E+04</rscale>
<asrwt>0</asrwt>
<pdfrwt beam="1">  1        2 0.26078204E+00 0.14360658E+04</pdfrwt>
<pdfrwt beam="2">  1       -2 0.46793366E-01 0.14360658E+04</pdfrwt>
<totfact> 0.41471833E+01</totfact>
</mgrwt>
</event>
<event>
 6    1  0.1762360E-005  0.1479426E+04  0.7818608E-02  0.8898251E-01
          3   -1    0    0  501    0  0.00000000000E+00  0.00000000000E+00  0.88577501235E+03  0.88577501235E+03  0.00000000000E+00 0. -1.
         -3   -1    0    0    0  501 -0.00000000000E+00 -0.00000000000E+00 -0.61773597743E+03  0.61773597743E+03  0.00000000000E+00 0.  1.
         23    2    1    2    0    0 -0.34518263954E+03  0.48870634843E+03  0.57090802161E+03  0.83290337520E+03  0.99030872189E+02 0.  0.
         13    1    3    3    0    0 -0.16227409512E+03  0.14920536519E+03  0.19360364758E+03  0.29338966462E+03  0.00000000000E+00 0. -1.
        -13    1    3    3    0    0 -0.18290854441E+03  0.33950098324E+03  0.37730437403E+03  0.53951371058E+03  0.00000000000E+00 0.  1.
         22    1    1    2    0    0  0.34518263954E+03 -0.48870634843E+03 -0.30286898669E+03  0.67060761458E+03  0.00000000000E+00 0.  1.
<mgrwt>
<rscale>  0 0.14794257E+04</rscale>
<asrwt>0</asrwt>
<pdfrwt beam="1">  1        3 0.13627308E+00 0.14794257E+04</pdfrwt>
<pdfrwt beam="2">  1       -3 0.95036304E-01 0.14794257E+04</pdfrwt>
<totfact> 0.10310681E+00</totfact>
</mgrwt>
</event>
<event>
 6    1  0.1762360E-005  0.2593623E+04  0.7818608E-02  0.8370371E-01
         -1   -1    0    0    0  501 -0.00000000000E+00  0.00000000000E+00  0.11368271592E+04  0.11368271592E+04  0.00000000000E+00 0.  1.
          1   -1    0    0  501    0  0.00000000000E+00 -0.00000000000E+00 -0.14793103407E+04  0.14793103407E+04  0.00000000000E+00 0. -1.
         23    2    1    2    0    0  0.44257518669E+03 -0.32851961294E+03 -0.13536877475E+04  0.14644723549E+04  0.91710568907E+02 0.  0.
         11    1    3    3    0    0  0.43431690430E+03 -0.33045590169E+03 -0.12967901982E+04  0.14069460169E+04  0.00000000000E+00 0.  1.
        -11    1    3    3    0    0  0.82582823829E+01  0.19362887492E+01 -0.56897549323E+02  0.57526337976E+02  0.00000000000E+00 0. -1.
         22    1    1    2    0    0 -0.44257518669E+03  0.32851961294E+03  0.10112045660E+04  0.11516651450E+04  0.00000000000E+00 0.  1.
<mgrwt>
<rscale>  0 0.25936231E+04</rscale>
<asrwt>0</asrwt>
<pdfrwt beam="1">  1        1 0.22758621E+00 0.25936231E+04</pdfrwt>
<pdfrwt beam="2">  1       -1 0.17489649E+00 0.25936231E+04</pdfrwt>
<totfact> 0.13502057E+00</totfact>
</mgrwt>
</event>
<event>
 6    1  0.1762360E-005  0.3722703E+04  0.7818608E-02  0.8062949E-01
         -1   -1    0    0    0  501 -0.00000000000E+00  0.00000000000E+00  0.17626330859E+04  0.17626330859E+04  0.00000000000E+00 0.  1.
          1   -1    0    0  501    0  0.00000000000E+00 -0.00000000000E+00 -0.19655992305E+04  0.19655992305E+04  0.00000000000E+00 0. -1.
         23    2    1    2    0    0  0.94208364870E+03  0.13633954474E+04 -0.94793155567E+03  0.19112727101E+04  0.89556636445E+02 0.  0.
         11    1    3    3    0    0  0.55494433589E+03  0.74894948733E+03 -0.49584005264E+03  0.10558152813E+04  0.00000000000E+00 0.  1.
        -11    1    3    3    0    0  0.38713931281E+03  0.61444596003E+03 -0.45209150302E+03  0.85545742877E+03  0.00000000000E+00 0. -1.
         22    1    1    2    0    0 -0.94208364870E+03 -0.13633954474E+04  0.74496541104E+03  0.18169596062E+04  0.00000000000E+00 0.  1.
<mgrwt>
<rscale>  0 0.37227034E+04</rscale>
<asrwt>0</asrwt>
<pdfrwt beam="1">  1        1 0.30239988E+00 0.37227034E+04</pdfrwt>
<pdfrwt beam="2">  1       -1 0.27117432E+00 0.37227034E+04</pdfrwt>
<totfact> 0.12785775E-01</totfact>
</mgrwt>
</event>
<event>
 6    1  0.1762360E-005  0.3887170E+04  0.7818608E-02  0.8027703E-01
          2   -1    0    0  501    0  0.00000000000E+00  0.00000000000E+00  0.38823447227E+04  0.38823447227E+04  0.00000000000E+00 0.  1.
         -2   -1    0    0    0  501 -0.00000000000E+00 -0.00000000000E+00 -0.97300046557E+03  0.97300046557E+03  0.00000000000E+00 0. -1.
         23    2    1    2    0    0  0.18125718688E+04 -0.65378129808E+03  0.11479043697E+04  0.22446906262E+04  0.90026665375E+02 0.  0.
         11    1    3    3    0    0  0.99499428749E+03 -0.34725721348E+03  0.67823586334E+03  0.12532378429E+04  0.00000000000E+00 0. -1.
        -11    1    3    3    0    0  0.81757758126E+03 -0.30652408461E+03  0.46966850633E+03  0.99145278337E+03  0.00000000000E+00 0.  1.
         22    1    1    2    0    0 -0.18125718688E+04  0.65378129808E+03  0.17614398874E+04  0.26106545620E+04  0.00000000000E+00 0.  1.
<mgrwt>
<rscale>  0 0.38871703E+04</rscale>
<asrwt>0</asrwt>
<pdfrwt beam="1">  1        2 0.59728380E+00 0.38871703E+04</pdfrwt>
<pdfrwt beam="2">  1       -2 0.14969238E+00 0.38871703E+04</pdfrwt>
<totfact> 0.10146389E-01</totfact>
</mgrwt>
</event>
<event>
 6    1  0.1762360E-005  0.4201030E+04  0.7818608E-02  0.7965176E-01
         -2   -1    0    0    0  501 -0.00000000000E+00  0.00000000000E+00  0.26119928619E+04  0.26119928619E+04  0.00000000000E+00 0.  1.
          2   -1    0    0  501    0  0.00000000000E+00 -0.00000000000E+00 -0.16891943870E+04  0.16891943870E+04  0.00000000000E+00 0. -1.
         23    2    1    2    0    0  0.38865540261E+03 -0.82099299755E+03  0.23994858654E+04  0.25674951848E+04  0.97039073806E+02 0.  0.
         11    1    3    3    0    0  0.22075653690E+03 -0.51132857889E+03  0.13459326386E+04  0.14566142357E+04  0.00000000000E+00 0. -1.
        -11    1    3    3    0    0  0.16789886571E+03 -0.30966441866E+03  0.10535532268E+04  0.11108809491E+04  0.00000000000E+00 0.  1.
         22    1    1    2    0    0 -0.38865540261E+03  0.82099299755E+03 -0.14766873905E+04  0.17336920642E+04  0.00000000000E+00 0. -1.
<mgrwt>
<rscale>  0 0.42010302E+04</rscale>
<asrwt>0</asrwt>
<pdfrwt beam="1">  1        2 0.25987606E+00 0.42010302E+04</pdfrwt>
<pdfrwt beam="2">  1       -2 0.40184505E+00 0.42010302E+04</pdfrwt>
<totfact> 0.55703701E-02</totfact>
</mgrwt>
</event>
<event>
 6    1  0.1762360E-005  0.1095507E+04  0.7818608E-02  0.9209582E-01
         -2   -1    0    0    0  501 -0.00000000000E+00  0.00000000000E+00  0.11969297455E+03  0.11969297455E+03  0.00000000000E+00 0.  1.
          2   -1    0    0  501    0  0.00000000000E+00 -0.00000000000E+00 -0.25066970350E+04  0.25066970350E+04  0.00000000000E+00 0. -1.
         23    2    1    2    0    0  0.14689910088E+03 -0.36755621993E+03 -0.20962968910E+04  0.21352814889E+04  0.91046477730E+02 0.  0.
         13    1    3    3    0    0  0.15563814905E+02 -0.69272514943E+02 -0.58159049034E+03  0.58590819427E+03  0.00000000000E+00 0.  1.
        -13    1    3    3    0    0  0.13133528597E+03 -0.29828370499E+03 -0.15147064006E+04  0.15493732946E+04  0.00000000000E+00 0. -1.
         22    1    1    2    0    0 -0.14689910088E+03  0.36755621993E+03 -0.29070716942E+03  0.49110852059E+03  0.00000000000E+00 0.  1.
<mgrwt>
<rscale>  0 0.10955072E+04</rscale>
<asrwt>0</asrwt>
<pdfrwt beam="1">  1        2 0.38564568E+00 0.10955072E+04</pdfrwt>
<pdfrwt beam="2">  1       -2 0.18414305E-01 0.10955072E+04</pdfrwt>
<totfact> 0.85391927E+01</totfact>
</mgrwt>
</event>
<event>
 6    1  0.1762360E-005  0.3001298E+04  0.7818608E-02  0.8243360E-01
         -1   -1    0    0    0  501 -0.00000000000E+00  0.00000000000E+00  0.24215814690E+04  0.24215814690E+04  0.00000000000E+00 0.  1.
          1   -1    0    0  501    0  0.00000000000E+00 -0.00000000000E+00 -0.92994915073E+03  0.92994915073E+03  0.00000000000E+00 0. -1.
         23    2    1    2    0    0  0.90132237724E+03 -0.74385022440E+03  0.17953106012E+04  0.21440888266E+04  0.91003063702E+02 0.  0.
         13    1    3    3    0    0  0.28725308371E+03 -0.28786190502E+03  0.65729323551E+03  0.77292509851E+03  0.00000000000E+00 0.  1.
        -13    1    3    3    0    0  0.61406929353E+03 -0.45598831938E+03  0.11380173657E+04  0.13711637281E+04  0.00000000000E+00 0. -1.
         22    1    1    2    0    0 -0.90132237724E+03  0.74385022440E+03 -0.30367828300E+03  0.12074417931E+04  0.00000000000E+00 0. -1.
<mgrwt>
<rscale>  0 0.30012981E+04</rscale>
<asrwt>0</asrwt>
<pdfrwt beam="1">  1        1 0.14306910E+00 0.30012981E+04</pdfrwt>
<pdfrwt beam="2">  1       -1 0.37255099E+00 0.30012981E+04</pdfrwt>
<totfact> 0.16071542E-01</totfact>
</mgrwt>
</event>
<event>
 6    1  0.2134775E-005  0.4800862E+04  0.7818608E-02  0.7859982E-01
          2   -1    0    0  501    0  0.00000000000E+00  0.00000000000E+00  0.27481436185E+04  0.27481436185E+04  0.00000000000E+00 0.  1.
         -2   -1    0    0    0  501 -0.00000000000E+00 -0.00000000000E+00 -0.20967134758E+04  0.20967134758E+04  0.00000000000E+00 0. -1.
         23    2    1    2    0    0  0.21764420455E+04 -0.51739988188E+03  0.12022502903E+04  0.25409461910E+04  0.79994812251E+02 0.  0.
         13    1    3    3    0    0  0.80285957578E+03 -0.16184328064E+03  0.46986201910E+03  0.94421769889E+03  0.00000000000E+00 0.  1.
        -13    1    3    3    0    0  0.13735824697E+04 -0.35555660125E+03  0.73238827124E+03  0.15967284921E+04  0.00000000000E+00 0. -1.
         22    1    1    2    0    0 -0.21764420455E+04  0.51739988188E+03 -0.55082014764E+03  0.23039109033E+04  0.00000000000E+00 0. -1.
<mgrwt>
<rscale>  0 0.48008623E+04</rscale>
<asrwt>0</asrwt>
<pdfrwt beam="1">  1        2 0.42279132E+00 0.48008623E+04</pdfrwt>
<pdfrwt beam="2">  1       -2 0.32257131E+00 0.48008623E+04</pdfrwt>
<totfact> 0.42420926E-02</totfact>
</mgrwt>
</event>
<event>
 6    1  0.1762360E-005  0.8135329E+03  0.7818608E-02  0.9540633E-01
         -2   -1    0    0    0  501 -0.00000000000E+00  0.00000000000E+00  0.61777284850E+03  0.61777284850E+03  0.00000000000E+00 0.  1.
          2   -1    0    0  501    0  0.00000000000E+00 -0.00000000000E+00 -0.26783133661E+03  0.26783133661E+03  0.00000000000E+00 0. -1.
         23    2    1    2    0    0 -0.24398625713E+03 -0.16391946142E+03  0.47512331788E+03  0.56612121521E+03  0.91390259973E+02 0.  0.
         13    1    3    3    0    0 -0.15538632007E+03 -0.81462608053E+02  0.20309034738E+03  0.26837800614E+03  0.00000000000E+00 0. -1.
        -13    1    3    3    0    0 -0.88599937058E+02 -0.82456853372E+02  0.27203297049E+03  0.29774320907E+03  0.00000000000E+00 0.  1.
         22    1    1    2    0    0  0.24398625713E+03  0.16391946142E+03 -0.12518180598E+03  0.31948296989E+03  0.00000000000E+00 0. -1.
<mgrwt>
<rscale>  0 0.81353286E+03</rscale>
<asrwt>0</asrwt>
<pdfrwt beam="1">  1        2 0.41204821E-01 0.81353286E+03</pdfrwt>
<pdfrwt beam="2">  1       -2 0.95041976E-01 0.81353286E+03</pdfrwt>
<totfact> 0.11680493E+02</totfact>
</mgrwt>
</event>
<event>
 6    1  0.1762360E-005  0.1339560E+04  0.7818608E-02  0.8998769E-01
          1   -1    0    0  501    0  0.00000000000E+00  0.00000000000E+00  0.66127905277E+03  0.66127905277E+03  0.00000000000E+00 0. -1.
         -1   -1    0    0    0  501 -0.00000000000E+00 -0.00000000000E+00 -0.67839039992E+03  0.67839039992E+03  0.00000000000E+00 0.  1.
         23    2    1    2    0    0  0.19161804993E+02 -0.66598696447E+03 -0.34834516653E+02  0.67317119887E+03  0.89667205901E+02 0.  0.
         11    1    3    3    0    0 -0.23378956700E+02 -0.37929325539E+03  0.85508286370E+01  0.38010928149E+03  0.00000000000E+00 0. -1.
        -11    1    3    3    0    0  0.42540761693E+02 -0.28669370908E+03 -0.43385345290E+02  0.29306191738E+03  0.00000000000E+00 0.  1.
         22    1    1    2    0    0 -0.19161804993E+02  0.66598696447E+03  0.17723169497E+02  0.66649825383E+03  0.00000000000E+00 0. -1.
<mgrwt>
<rscale>  0 0.13395602E+04</rscale>
<asrwt>0</asrwt>
<pdfrwt beam="1">  1        1 0.10173524E+00 0.13395602E+04</pdfrwt>
<pdfrwt beam="2">  1       -1 0.10436775E+00 0.13395602E+04</pdfrwt>
<totfact> 0.25121009E+01</totfact>
</mgrwt>
</event>
<event>
 6    1  0.1762360E-005  0.2020402E+04  0.7818608E-02  0.8597141E-01
          2   -1    0    0  501    0  0.00000000000E+00  0.00000000000E+00  0.36265630035E+04  0.36265630035E+04  0.00000000000E+00 0. -1.
         -2   -1    0    0    0  501 -0.00000000000E+00 -0.00000000000E+00 -0.28139760389E+03  0.28139760389E+03  0.00000000000E+00 0.  1.
         23    2    1    2    0    0  0.50333557367E+03 -0.64538512060E+03  0.53697402615E+03  0.98292942062E+03  0.89109413278E+02 0.  0.
         11    1    3    3    0    0  0.18273174985E+03 -0.30604149615E+03  0.23058223265E+03  0.42452379884E+03  0.00000000000E+00 0. -1.
        -11    1    3    3    0    0  0.32060382382E+03 -0.33934362446E+03  0.30639179350E+03  0.55840562178E+03  0.00000000000E+00 0.  1.
         22    1    1    2    0    0 -0.50333557367E+03  0.64538512060E+03  0.28081913735E+04  0.29250311868E+04  0.00000000000E+00 0.  1.
<mgrwt>
<rscale>  0 0.20204021E+04</rscale>
<asrwt>0</asrwt>
<pdfrwt beam="1">  1        2 0.55793274E+00 0.20204021E+04</pdfrwt>
<pdfrwt beam="2">  1       -2 0.43291942E-01 0.20204021E+04</pdfrwt>
<totfact> 0.31198821E+00</totfact>
</mgrwt>
</event>
<event>
 6    1  0.1762360E-005  0.1400906E+04  0.7818608E-02  0.8953163E-01
          2   -1    0    0  501    0  0.00000000000E+00  0.00000000000E+00  0.68423190393E+03  0.68423190393E+03  0.00000000000E+00 0. -1.
         -2   -1    0    0    0  501 -0.00000000000E+00 -0.00000000000E+00 -0.71705854285E+03  0.71705854285E+03  0.00000000000E+00 0.  1.
         23    2    1    2    0    0 -0.46736533715E+03  0.20505102888E+03  0.46002512833E+03  0.69179827114E+03  0.80532269611E+02 0.  0.
         11    1    3    3    0    0 -0.51388506970E+02  0.43034504132E+02  0.88438284059E+02  0.11096881220E+03  0.00000000000E+00 0. -1.
        -11    1    3    3    0    0 -0.41597683018E+03  0.16201652474E+03  0.37158684427E+03  0.58082945894E+03  0.00000000000E+00 0.  1.
         22    1    1    2    0    0  0.46736533715E+03 -0.20505102888E+03 -0.49285176725E+03  0.70949217564E+03  0.00000000000E+00 0. -1.
<mgrwt>
<rscale>  0 0.14009059E+04</rscale>
<asrwt>0</asrwt>
<pdfrwt beam="1">  1        2 0.10526645E+00 0.14009059E+04</pdfrwt>
<pdfrwt beam="2">  1       -2 0.11031670E+00 0.14009059E+04</pdfrwt>
<totfact> 0.26779265E+01</totfact>
</mgrwt>
</event>
<event>
 6    1  0.1762360E-005  0.3527258E+04  0.7818608E-02  0.8107360E-01
          2   -1    0    0  501    0  0.00000000000E+00  0.00000000000E+00  0.22756165766E+04  0.22756165766E+04  0.00000000000E+00 0. -1.
         -2   -1    0    0    0  501 -0.00000000000E+00 -0.00000000000E+00 -0.13668329629E+04  0.13668329629E+04  0.00000000000E+00 0.  1.
         23    2    1    2    0    0 -0.17044640781E+04  0.37231164333E+03  0.19667056863E+03  0.17580613782E+04  0.91031553352E+02 0.  0.
         13    1    3    3    0    0 -0.12236411343E+04  0.29978023593E+03  0.16764607889E+03  0.12709331309E+04  0.00000000000E+00 0.  1.
        -13    1    3    3    0    0 -0.48082294375E+03  0.72531407393E+02  0.29024489741E+02  0.48712824728E+03  0.00000000000E+00 0. -1.
         22    1    1    2    0    0  0.17044640781E+04 -0.37231164333E+03  0.71211304508E+03  0.18843881612E+04  0.00000000000E+00 0. -1.
<mgrwt>
<rscale>  0 0.35272583E+04</rscale>
<asrwt>0</asrwt>
<pdfrwt beam="1">  1        2 0.35009486E+00 0.35272583E+04</pdfrwt>
<pdfrwt beam="2">  1       -2 0.21028199E+00 0.35272583E+04</pdfrwt>
<totfact> 0.43758014E-01</totfact>
</mgrwt>
</event>
<event>
 6    1  0.1762360E-005  0.2816806E+04  0.7818608E-02  0.8298070E-01
         -2   -1    0    0    0  501 -0.00000000000E+00  0.00000000000E+00  0.87857061465E+03  0.87857061465E+03  0.00000000000E+00 0.  1.
          2   -1    0    0  501    0  0.00000000000E+00 -0.00000000000E+00 -0.22577576979E+04  0.22577576979E+04  0.00000000000E+00 0. -1.
         23    2    1    2    0    0  0.67549946948E+03 -0.53117791967E+03 -0.19304760748E+04  0.21153635395E+04  0.97854550338E+02 0.  0.
         13    1    3    3    0    0  0.22899015953E+03 -0.12361651774E+03 -0.56542544318E+03  0.62243350521E+03  0.00000000000E+00 0. -1.
        -13    1    3    3    0    0  0.44650930995E+03 -0.40756140193E+03 -0.13650506316E+04  0.14929300342E+04  0.00000000000E+00 0.  1.
         22    1    1    2    0    0 -0.67549946948E+03  0.53117791967E+03  0.55128899159E+03  0.10209647731E+04  0.00000000000E+00 0.  1.
<mgrwt>
<rscale>  0 0.28168064E+04</rscale>
<asrwt>0</asrwt>
<pdfrwt beam="1">  1        2 0.34734733E+00 0.28168064E+04</pdfrwt>
<pdfrwt beam="2">  1       -2 0.13516471E+00 0.28168064E+04</pdfrwt>
<totfact> 0.16370205E+00</totfact>
</mgrwt>
</event>
<event>
 6    1  0.1762360E-005  0.2085191E+04  0.7818608E-02  0.8567795E-01
          1   -1    0    0  501    0  0.00000000000E+00  0.00000000000E+00  0.11319049140E+04  0.11319049140E+04  0.00000000000E+00 0. -1.
         -1   -1    0    0    0  501 -0.00000000000E+00 -0.00000000000E+00 -0.96033273109E+03  0.96033273109E+03  0.00000000000E+00 0.  1.
         23    2    1    2    0    0  0.96528209593E+03 -0.27791851894E+03 -0.18682333741E+03  0.10257220208E+04  0.90523348869E+02 0.  0.
         11    1    3    3    0    0  0.40258012872E+03 -0.83717926924E+02 -0.10892971591E+03  0.42537646190E+03  0.00000000000E+00 0.  1.
        -11    1    3    3    0    0  0.56270196721E+03 -0.19420059201E+03 -0.77893621504E+02  0.60034555891E+03  0.00000000000E+00 0. -1.
         22    1    1    2    0    0 -0.96528209593E+03  0.27791851894E+03  0.35839552037E+03  0.10665156243E+04  0.00000000000E+00 0.  1.
<mgrwt>
<rscale>  0 0.20851910E+04</rscale>
<asrwt>0</asrwt>
<pdfrwt beam="1">  1        1 0.17413922E+00 0.20851910E+04</pdfrwt>
<pdfrwt beam="2">  1       -1 0.14774350E+00 0.20851910E+04</pdfrwt>
<totfact> 0.40159086E+00</totfact>
</mgrwt>
</event>
<event>
 6    1  0.1762360E-005  0.4444720E+04  0.7818608E-02  0.7920387E-01
         -1   -1    0    0    0  501 -0.00000000000E+00  0.00000000000E+00  0.11808102072E+04  0.11808102072E+04  0.00000000000E+00 0.  1.
          1   -1    0    0  501    0  0.00000000000E+00 -0.00000000000E+00 -0.41826224783E+04  0.41826224783E+04  0.00000000000E+00 0. -1.
         23    2    1    2    0    0 -0.15981738137E+04  0.14719122064E+04 -0.94364370876E+03  0.23706508837E+04  0.94005750293E+02 0.  0.
         11    1    3    3    0    0 -0.11888557822E+04  0.10839832048E+04 -0.65424707981E+03  0.17367892505E+04  0.00000000000E+00 0. -1.
        -11    1    3    3    0    0 -0.40931803146E+03  0.38792900158E+03 -0.28939662895E+03  0.63386163316E+03  0.00000000000E+00 0.  1.
         22    1    1    2    0    0  0.15981738137E+04 -0.14719122064E+04 -0.20581685624E+04  0.29927818018E+04  0.00000000000E+00 0. -1.
<mgrwt>
<rscale>  0 0.44447197E+04</rscale>
<asrwt>0</asrwt>
<pdfrwt beam="1">  1        1 0.64348039E+00 0.44447197E+04</pdfrwt>
<pdfrwt beam="2">  1       -1 0.18166311E+00 0.44447197E+04</pdfrwt>
<totfact> 0.99863414E-03</totfact>
</mgrwt>
</event>
<event>
 6    1  0.1762360E-005  0.3294591E+04  0.7818608E-02  0.8164273E-01
         -2   -1    0    0    0  501 -0.00000000000E+00  0.00000000000E+00  0.19838640378E+04  0.19838640378E+04  0.00000000000E+00 0.  1.
          2   -1    0    0  501    0  0.00000000000E+00 -0.00000000000E+00 -0.13678265043E+04  0.13678265043E+04  0.00000000000E+00 0. -1.
         23    2    1    2    0    0 -0.13143789523E+04 -0.11152239688E+03  0.13098056024E+04  0.18612733492E+04  0.93372850737E+02 0.  0.
         13    1    3    3    0    0 -0.74743937514E+03 -0.25520764249E+02  0.70357387125E+03  0.10268072464E+04  0.00000000000E+00 0. -1.
        -13    1    3    3    0    0 -0.56693957719E+03 -0.86001632630E+02  0.60623173114E+03  0.83446610287E+03  0.00000000000E+00 0.  1.
         22    1    1    2    0    0  0.13143789523E+04  0.11152239688E+03 -0.69376806891E+03  0.14904171929E+04  0.00000000000E+00 0. -1.
<mgrwt>
<rscale>  0 0.32945906E+04</rscale>
<asrwt>0</asrwt>
<pdfrwt beam="1">  1        2 0.21043485E+00 0.32945906E+04</pdfrwt>
<pdfrwt beam="2">  1       -2 0.30520985E+00 0.32945906E+04</pdfrwt>
<totfact> 0.37253252E-01</totfact>
</mgrwt>
</event>
<event>
 6    1  0.1762360E-005  0.1359568E+04  0.7818608E-02  0.8983617E-01
          1   -1    0    0  501    0  0.00000000000E+00  0.00000000000E+00  0.30137963020E+03  0.30137963020E+03  0.00000000000E+00 0. -1.
         -1   -1    0    0    0  501 -0.00000000000E+00 -0.00000000000E+00 -0.15333034209E+04  0.15333034209E+04  0.00000000000E+00 0.  1.
         23    2    1    2    0    0 -0.53272006740E+03  0.24688275305E+03 -0.16581505085E+03  0.61758420173E+03  0.95780223275E+02 0.  0.
         13    1    3    3    0    0 -0.50748970540E+02  0.20918989535E+02  0.12320706580E+02  0.56257105726E+02  0.00000000000E+00 0. -1.
        -13    1    3    3    0    0 -0.48197109686E+03  0.22596376351E+03 -0.17813575743E+03  0.56132709600E+03  0.00000000000E+00 0.  1.
         22    1    1    2    0    0  0.53272006740E+03 -0.24688275305E+03 -0.10661087399E+04  0.12170988494E+04  0.00000000000E+00 0.  1.
<mgrwt>
<rscale>  0 0.13595682E+04</rscale>
<asrwt>0</asrwt>
<pdfrwt beam="1">  1        1 0.46366097E-01 0.13595682E+04</pdfrwt>
<pdfrwt beam="2">  1       -1 0.23589284E+00 0.13595682E+04</pdfrwt>
<totfact> 0.73603944E+00</totfact>
</mgrwt>
</event>
<event>
 6    1  0.4248898E-005  0.4069022E+04  0.7818608E-02  0.7990766E-01
         -2   -1    0    0    0  501 -0.00000000000E+00  0.00000000000E+00  0.16898000560E+04  0.16898000560E+04  0.00000000000E+00 0.  1.
          2   -1    0    0  501    0  0.00000000000E+00 -0.00000000000E+00 -0.24495409584E+04  0.24495409584E+04  0.00000000000E+00 0. -1.
         23    2    1    2    0    0 -0.18349547970E+04  0.44043556250E+03  0.39067763728E+03  0.19292492949E+04  0.91275592951E+02 0.  0.
         11    1    3    3    0    0 -0.14040160009E+04  0.33253509868E+03  0.33778179883E+03  0.14818694498E+04  0.00000000000E+00 0. -1.
        -11    1    3    3    0    0 -0.43093879617E+03  0.10790046382E+03  0.52895838451E+02  0.44737984517E+03  0.00000000000E+00 0.  1.
         22    1    1    2    0    0  0.18349547970E+04 -0.44043556250E+03 -0.11504185397E+04  0.22100917195E+04  0.00000000000E+00 0. -1.
<mgrwt>
<rscale>  0 0.40690217E+04</rscale>
<asrwt>0</asrwt>
<pdfrwt beam="1">  1        2 0.37685246E+00 0.40690217E+04</pdfrwt>
<pdfrwt beam="2">  1       -2 0.25996924E+00 0.40690217E+04</pdfrwt>
<totfact> 0.16303400E-01</totfact>
</mgrwt>
</event>
<event>
 6    1  0.1762360E-005  0.2275556E+04  0.7818608E-02  0.8487622E-01
          1   -1    0    0  501    0  0.00000000000E+00  0.00000000000E+00  0.25186422122E+04  0.25186422122E+04  0.00000000000E+00 0. -1.
         -1   -1    0    0    0  501 -0.00000000000E+00 -0.00000000000E+00 -0.51398292908E+03  0.51398292908E+03  0.00000000000E+00 0.  1.
         23    2    1    2    0    0 -0.46096183661E+03 -0.86896109352E+03  0.17604945899E+04  0.20191185580E+04  0.99595950437E+02 0.  0.
         11    1    3    3    0    0 -0.35888103453E+03 -0.60151370548E+03  0.11902686788E+04  0.13810698254E+04  0.00000000000E+00 0. -1.
        -11    1    3    3    0    0 -0.10208080209E+03 -0.26744738804E+03  0.57022591105E+03  0.63804873259E+03  0.00000000000E+00 0.  1.
         22    1    1    2    0    0  0.46096183661E+03  0.86896109352E+03  0.24416469319E+03  0.10135065832E+04  0.00000000000E+00 0.  1.
<mgrwt>
<rscale>  0 0.22755563E+04</rscale>
<asrwt>0</asrwt>
<pdfrwt beam="1">  1        1 0.38748341E+00 0.22755563E+04</pdfrwt>
<pdfrwt beam="2">  1       -1 0.79074298E-01 0.22755563E+04</pdfrwt>
<totfact> 0.19044159E+00</totfact>
</mgrwt>
</event>
<event>
 6    1  0.1762360E-005  0.1376657E+04  0.7818608E-02  0.8970891E-01
          1   -1    0    0  501    0  0.00000000000E+00  0.00000000000E+00  0.32985851849E+04  0.32985851849E+04  0.00000000000E+00 0. -1.
         -1   -1    0    0    0  501 -0.00000000000E+00 -0.00000000000E+00 -0.14363612482E+03  0.14363612482E+03  0.00000000000E+00 0.  1.
         23    2    1    2    0    0 -0.56817239862E+03 -0.15854856121E+03  0.24567600988E+04  0.25282052560E+04  0.90521337857E+02 0.  0.
         13    1    3    3    0    0 -0.27019286905E+03 -0.67453040557E+02  0.97231789122E+03  0.10114129625E+04  0.00000000000E+00 0. -1.
        -13    1    3    3    0    0 -0.29797952957E+03 -0.91095520657E+02  0.14844422076E+04  0.15167922935E+04  0.00000000000E+00 0.  1.
         22    1    1    2    0    0  0.56817239862E+03  0.15854856121E+03  0.69818896134E+03  0.91401605377E+03  0.00000000000E+00 0. -1.
<mgrwt>
<rscale>  0 0.13766568E+04</rscale>
<asrwt>0</asrwt>
<pdfrwt beam="1">  1        1 0.50747459E+00 0.13766568E+04</pdfrwt>
<pdfrwt beam="2">  1       -1 0.22097868E-01 0.13766568E+04</pdfrwt>
<totfact> 0.61204944E+00</totfact>
</mgrwt>
</event>
<event>
 6    1  0.1762360E-005  0.3218066E+04  0.7818608E-02  0.8184062E-01
         -2   -1    0    0    0  501 -0.00000000000E+00  0.00000000000E+00  0.99285020353E+03  0.99285020353E+03  0.00000000000E+00 0.  1.
          2   -1    0    0  501    0  0.00000000000E+00 -0.00000000000E+00 -0.26076317061E+04  0.26076317061E+04  0.00000000000E+00 0. -1.
         23    2    1    2    0    0 -0.73618797377E+03  0.12497325690E+04 -0.31510460526E+02  0.14532624473E+04  0.84703038878E+02 0.  0.
         13    1    3    3    0    0 -0.20371303380E+03  0.40827257560E+03 -0.33171668144E+02  0.45747771060E+03  0.00000000000E+00 0. -1.
        -13    1    3    3    0    0 -0.53247493997E+03  0.84145999343E+03  0.16612076183E+01  0.99578473670E+03  0.00000000000E+00 0.  1.
         22    1    1    2    0    0  0.73618797377E+03 -0.12497325690E+04 -0.15832710420E+04  0.21472194623E+04  0.00000000000E+00 0.  1.
<mgrwt>
<rscale>  0 0.32180663E+04</rscale>
<asrwt>0</asrwt>
<pdfrwt beam="1">  1        2 0.40117411E+00 0.32180663E+04</pdfrwt>
<pdfrwt beam="2">  1       -2 0.15274619E+00 0.32180663E+04</pdfrwt>
<totfact> 0.72280427E-01</totfact>
</mgrwt>
</event>
<event>
 6    1  0.1762360E-005  0.2282125E+04  0.7818608E-02  0.8485002E-01
          2   -1    0    0  501    0  0.00000000000E+00  0.00000000000E+00  0.11204749356E+04  0.11204749356E+04  0.00000000000E+00 0.  1.
         -2   -1    0    0    0  501 -0.00000000000E+00 -0.00000000000E+00 -0.11620283945E+04  0.11620283945E+04  0.00000000000E+00 0. -1.
         23    2    1    2    0    0  0.11298737112E+04 -0.12900161612E+03  0.46713013964E+02  0.11418688617E+04  0.91795268778E+02 0.  0.
         13    1    3    3    0    0  0.96074884713E+03 -0.97358804284E+02  0.70181566056E+02  0.96821616195E+03  0.00000000000E+00 0. -1.
        -13    1    3    3    0    0  0.16912486409E+03 -0.31642811834E+02 -0.23468552092E+02  0.17365269975E+03  0.00000000000E+00 0.  1.
         22    1    1    2    0    0 -0.11298737112E+04  0.12900161612E+03 -0.88266472835E+02  0.11406344684E+04  0.00000000000E+00 0. -1.
<mgrwt>
<rscale>  0 0.22821251E+04</rscale>
<asrwt>0</asrwt>
<pdfrwt beam="1">  1        2 0.17238076E+00 0.22821251E+04</pdfrwt>
<pdfrwt beam="2">  1       -2 0.17877360E+00 0.22821251E+04</pdfrwt>
<totfact> 0.35527235E+00</totfact>
</mgrwt>
</event>
<event>
 6    1  0.1762360E-005  0.1728656E+04  0.7818608E-02  0.8745188E-01
          1   -1    0    0  501    0  0.00000000000E+00  0.00000000000E+00  0.12596236929E+04  0.12596236929E+04  0.00000000000E+00 0. -1.
         -1   -1    0    0    0  501 -0.00000000000E+00 -0.00000000000E+00 -0.59308404031E+03  0.59308404031E+03  0.00000000000E+00 0.  1.
         23    2    1    2    0    0  0.79524278468E+03 -0.26584681107E+03  0.12423112106E+03  0.85411664730E+03  0.10486306410E+03 0.  0.
         11    1    3    3    0    0  0.32818372817E+03 -0.16389491272E+03  0.46118620388E+02  0.36972020366E+03  0.00000000000E+00 0. -1.
        -11    1    3    3    0    0  0.46705905651E+03 -0.10195189835E+03  0.78112500676E+02  0.48439644364E+03  0.00000000000E+00 0.  1.
         22    1    1    2    0    0 -0.79524278468E+03  0.26584681107E+03  0.54230853155E+03  0.99859108594E+03  0.00000000000E+00 0.  1.
<mgrwt>
<rscale>  0 0.17286558E+04</rscale>
<asrwt>0</asrwt>
<pdfrwt beam="1">  1        1 0.19378826E+00 0.17286558E+04</pdfrwt>
<pdfrwt beam="2">  1       -1 0.91243699E-01 0.17286558E+04</pdfrwt>
<totfact> 0.10758423E+01</totfact>
</mgrwt>
</event>
<event>
 6    1  0.1762360E-005  0.1147930E+04  0.7818608E-02  0.9159695E-01
         -2   -1    0    0    0  501 -0.00000000000E+00  0.00000000000E+00  0.37445600429E+03  0.37445600429E+03  0.00000000000E+00 0.  1.
          2   -1    0    0  501    0  0.00000000000E+00 -0.00000000000E+00 -0.87977211520E+03  0.87977211520E+03  0.00000000000E+00 0. -1.
         23    2    1    2    0    0  0.33260838348E+02 -0.11787576154E+03 -0.86292411215E+03  0.87622750959E+03  0.90197819903E+02 0.  0.
         13    1    3    3    0    0  0.42777860210E+01 -0.58246707935E+02 -0.66362384400E+03  0.66618885068E+03  0.00000000000E+00 0. -1.
        -13    1    3    3    0    0  0.28983052327E+02 -0.59629053609E+02 -0.19930026815E+03  0.21003865892E+03  0.00000000000E+00 0.  1.
         22    1    1    2    0    0 -0.33260838348E+02  0.11787576154E+03  0.35760800124E+03  0.37800060989E+03  0.00000000000E+00 0.  1.
<mgrwt>
<rscale>  0 0.11479302E+04</rscale>
<asrwt>0</asrwt>
<pdfrwt beam="1">  1        2 0.13534956E+00 0.11479302E+04</pdfrwt>
<pdfrwt beam="2">  1       -2 0.57608616E-01 0.11479302E+04</pdfrwt>
<totfact> 0.84571715E+01</totfact>
</mgrwt>
</event>
<event>
 6    1  0.1762360E-005  0.1613885E+04  0.7818608E-02  0.8812063E-01
         -2   -1    0    0    0  501 -0.00000000000E+00  0.00000000000E+00  0.56894410873E+03  0.56894410873E+03  0.00000000000E+00 0.  1.
          2   -1    0    0  501    0  0.00000000000E+00 -0.00000000000E+00 -0.11444989850E+04  0.11444989850E+04  0.00000000000E+00 0. -1.
         23    2    1    2    0    0 -0.77493588195E+03 -0.88137182862E+02 -0.49752644684E+03  0.92961771783E+03  0.91448082845E+02 0.  0.
         11    1    3    3    0    0 -0.51130436222E+03 -0.99178564766E+02 -0.31326351631E+03  0.60778496953E+03  0.00000000000E+00 0. -1.
        -11    1    3    3    0    0 -0.26363151973E+03  0.11041381905E+02 -0.18426293053E+03  0.32183274830E+03  0.00000000000E+00 0.  1.
         22    1    1    2    0    0  0.77493588195E+03  0.88137182862E+02 -0.78028429446E+02  0.78382537592E+03  0.00000000000E+00 0.  1.
<mgrwt>
<rscale>  0 0.16138847E+04</rscale>
<asrwt>0</asrwt>
<pdfrwt beam="1">  1        2 0.17607677E+00 0.16138847E+04</pdfrwt>
<pdfrwt beam="2">  1       -2 0.87529864E-01 0.16138847E+04</pdfrwt>
<totfact> 0.22086045E+01</totfact>
</mgrwt>
</event>
<event>
 6    1  0.1762360E-005  0.1823526E+04  0.7818608E-02  0.8693888E-01
         -1   -1    0    0    0  501 -0.00000000000E+00  0.00000000000E+00  0.20686314927E+04  0.20686314927E+04  0.00000000000E+00 0.  1.
          1   -1    0    0  501    0  0.00000000000E+00 -0.00000000000E+00 -0.40186537142E+03  0.40186537142E+03  0.00000000000E+00 0. -1.
         23    2    1    2    0    0 -0.34949264960E+03  0.10373176207E+03  0.19641885416E+04  0.20000019260E+04  0.95213898912E+02 0.  0.
         13    1    3    3    0    0 -0.63902637838E+02  0.60400490521E+02  0.45599927411E+03  0.46439972477E+03  0.00000000000E+00 0. -1.
        -13    1    3    3    0    0 -0.28559001176E+03  0.43331271547E+02  0.15081892675E+04  0.15356022013E+04  0.00000000000E+00 0.  1.
         22    1    1    2    0    0  0.34949264960E+03 -0.10373176207E+03 -0.29742242037E+03  0.47049493804E+03  0.00000000000E+00 0.  1.
<mgrwt>
<rscale>  0 0.18235256E+04</rscale>
<asrwt>0</asrwt>
<pdfrwt beam="1">  1        1 0.61825443E-01 0.18235256E+04</pdfrwt>
<pdfrwt beam="2">  1       -1 0.31825099E+00 0.18235256E+04</pdfrwt>
<totfact> 0.14130680E+00</totfact>
</mgrwt>
</event>
<event>
 6    1  0.1762360E-005  0.9064573E+03  0.7818608E-02  0.9417545E-01
          2   -1    0    0  501    0  0.00000000000E+00  0.00000000000E+00  0.96095488548E+03  0.96095488548E+03  0.00000000000E+00 0. -1.
         -2   -1    0    0    0  501 -0.00000000000E+00 -0.00000000000E+00 -0.21376257359E+03  0.21376257359E+03  0.00000000000E+00 0.  1.
         23    2    1    2    0    0  0.33778503799E+03  0.27755940506E+03  0.50709552632E+03  0.67593451864E+03  0.92755837787E+02 0.  0.
         13    1    3    3    0    0  0.87446619439E+02  0.99058779799E+02  0.21178534253E+03  0.24962488742E+03  0.00000000000E+00 0. -1.
        -13    1    3    3    0    0  0.25033841855E+03  0.17850062527E+03  0.29531018379E+03  0.42630963122E+03  0.00000000000E+00 0.  1.
         22    1    1    2    0    0 -0.33778503799E+03 -0.27755940506E+03  0.24009678557E+03  0.49878294044E+03  0.00000000000E+00 0.  1.
<mgrwt>
<rscale>  0 0.90645726E+03</rscale>
<asrwt>0</asrwt>
<pdfrwt beam="1">  1        2 0.14783921E+00 0.90645726E+03</pdfrwt>
<pdfrwt beam="2">  1       -2 0.32886550E-01 0.90645726E+03</pdfrwt>
<totfact> 0.23060992E+02</totfact>
</mgrwt>
</event>
<event>
 6    1  0.1762360E-005  0.2125946E+04  0.7818608E-02  0.8549899E-01
         -1   -1    0    0    0  501 -0.00000000000E+00  0.00000000000E+00  0.71885917422E+03  0.71885917422E+03  0.00000000000E+00 0.  1.
          1   -1    0    0  501    0  0.00000000000E+00 -0.00000000000E+00 -0.15718125968E+04  0.15718125968E+04  0.00000000000E+00 0. -1.
         23    2    1    2    0    0 -0.69737100971E+03 -0.69396373415E+03 -0.85525617400E+03  0.13068438937E+04  0.92010053480E+02 0.  0.
         13    1    3    3    0    0 -0.10109705264E+03 -0.13807447746E+03 -0.11961166988E+03  0.20878727680E+03  0.00000000000E+00 0. -1.
        -13    1    3    3    0    0 -0.59627395707E+03 -0.55588925668E+03 -0.73564450411E+03  0.10980566169E+04  0.00000000000E+00 0.  1.
         22    1    1    2    0    0  0.69737100971E+03  0.69396373415E+03  0.23027514006E+01  0.98382787730E+03  0.00000000000E+00 0.  1.
<mgrwt>
<rscale>  0 0.21259463E+04</rscale>
<asrwt>0</asrwt>
<pdfrwt beam="1">  1        1 0.24181733E+00 0.21259463E+04</pdfrwt>
<pdfrwt beam="2">  1       -1 0.11059372E+00 0.21259463E+04</pdfrwt>
<totfact> 0.40342667E+00</totfact>
</mgrwt>
</event>
<event>
 6    1  0.1762360E-005  0.1952186E+04  0.7818608E-02  0.8629307E-01
          2   -1    0    0  501    0  0.00000000000E+00  0.00000000000E+00  0.18047845371E+04  0.18047845371E+04  0.00000000000E+00 0. -1.
         -2   -1    0    0    0  501 -0.00000000000E+00 -0.00000000000E+00 -0.52790646661E+03  0.52790646661E+03  0.00000000000E+00 0.  1.
         23    2    1    2    0    0 -0.15566373179E+03 -0.36785164635E+02  0.17879248371E+04  0.17971976393E+04  0.87520202800E+02 0.  0.
         11    1    3    3    0    0 -0.15036871566E+03 -0.21509618579E+02  0.12747616308E+04  0.12837798214E+04  0.00000000000E+00 0. -1.
        -11    1    3    3    0    0 -0.52950161289E+01 -0.15275546056E+02  0.51316320627E+03  0.51341781793E+03  0.00000000000E+00 0.  1.
         22    1    1    2    0    0  0.15566373179E+03  0.36785164635E+02 -0.51104676657E+03  0.53549336443E+03  0.00000000000E+00 0.  1.
<mgrwt>
<rscale>  0 0.19521859E+04</rscale>
<asrwt>0</asrwt>
<pdfrwt beam="1">  1        2 0.27765916E+00 0.19521859E+04</pdfrwt>
<pdfrwt beam="2">  1       -2 0.81216380E-01 0.19521859E+04</pdfrwt>
<totfact> 0.10685738E+01</totfact>
</mgrwt>
</event>
<event>
 6    1  0.1762360E-005  0.2590591E+04  0.7818608E-02  0.8371404E-01
         -1   -1    0    0    0  501 -0.00000000000E+00  0.00000000000E+00  0.18095858696E+04  0.18095858696E+04  0.00000000000E+00 0.  1.
          1   -1    0    0  501    0  0.00000000000E+00 -0.00000000000E+00 -0.92716803082E+03  0.92716803082E+03  0.00000000000E+00 0. -1.
         23    2    1    2    0    0 -0.68767527828E+03  0.19476030602E+03  0.15808817206E+04  0.17374137885E+04  0.92686528550E+02 0.  0.
         11    1    3    3    0    0 -0.45803232440E+03  0.12685743090E+03  0.94155945228E+03  0.10547135252E+04  0.00000000000E+00 0. -1.
        -11    1    3    3    0    0 -0.22964295388E+03  0.67902875112E+02  0.63932226835E+03  0.68270026331E+03  0.00000000000E+00 0.  1.
         22    1    1    2    0    0  0.68767527828E+03 -0.19476030602E+03 -0.69846388184E+03  0.99934011197E+03  0.00000000000E+00 0. -1.
<mgrwt>
<rscale>  0 0.25905908E+04</rscale>
<asrwt>0</asrwt>
<pdfrwt beam="1">  1        1 0.14264124E+00 0.25905908E+04</pdfrwt>
<pdfrwt beam="2">  1       -1 0.27839783E+00 0.25905908E+04</pdfrwt>
<totfact> 0.69474672E-01</totfact>
</mgrwt>
</event>
<event>
 6    1  0.1762360E-005  0.2500036E+04  0.7818608E-02  0.8402973E-01
          2   -1    0    0  501    0  0.00000000000E+00  0.00000000000E+00  0.98291323956E+03  0.98291323956E+03  0.00000000000E+00 0. -1.
         -2   -1    0    0    0  501 -0.00000000000E+00 -0.00000000000E+00 -0.15897085226E+04  0.15897085226E+04  0.00000000000E+00 0.  1.
         23    2    1    2    0    0 -0.68197754465E+02 -0.56996867648E+03  0.83695491960E+03  0.10189390811E+04  0.90708806802E+02 0.  0.
         13    1    3    3    0    0 -0.62657472284E+02 -0.40991579886E+03  0.66718232549E+03  0.78555023801E+03  0.00000000000E+00 0. -1.
        -13    1    3    3    0    0 -0.55402821810E+01 -0.16005287761E+03  0.16977259411E+03  0.23338884307E+03  0.00000000000E+00 0.  1.
         22    1    1    2    0    0  0.68197754465E+02  0.56996867648E+03 -0.14437502026E+04  0.15536826811E+04  0.00000000000E+00 0.  1.
<mgrwt>
<rscale>  0 0.25000364E+04</rscale>
<asrwt>0</asrwt>
<pdfrwt beam="1">  1        2 0.15121742E+00 0.25000364E+04</pdfrwt>
<pdfrwt beam="2">  1       -2 0.24457054E+00 0.25000364E+04</pdfrwt>
<totfact> 0.15992066E+00</totfact>
</mgrwt>
</event>
<event>
 6    1  0.1762360E-005  0.2691874E+04  0.7818608E-02  0.8337646E-01
         -2   -1    0    0    0  501 -0.00000000000E+00  0.00000000000E+00  0.98341480541E+03  0.98341480541E+03  0.00000000000E+00 0. -1.
          2   -1    0    0  501    0  0.00000000000E+00 -0.00000000000E+00 -0.18420978681E+04  0.18420978681E+04  0.00000000000E+00 0.  1.
         23    2    1    2    0    0  0.11126046719E+04 -0.58064096018E+03  0.75946635144E+02  0.12607233099E+04  0.92856297681E+02 0.  0.
         11    1    3    3    0    0  0.62687825438E+02 -0.52940502476E+02 -0.92280860821E+01  0.82568867215E+02  0.00000000000E+00 0.  1.
        -11    1    3    3    0    0  0.10499168465E+04 -0.52770045770E+03  0.85174721226E+02  0.11781544426E+04  0.00000000000E+00 0. -1.
         22    1    1    2    0    0 -0.11126046719E+04  0.58064096018E+03 -0.93462969786E+03  0.15647893637E+04  0.00000000000E+00 0. -1.
<mgrwt>
<rscale>  0 0.26918739E+04</rscale>
<asrwt>0</asrwt>
<pdfrwt beam="1">  1        2 0.28339967E+00 0.26918739E+04</pdfrwt>
<pdfrwt beam="2">  1       -2 0.15129459E+00 0.26918739E+04</pdfrwt>
<totfact> 0.21024341E+00</totfact>
</mgrwt>
</event>
<event>
 6    1  0.1762360E-005  0.2109440E+04  0.7818608E-02  0.8557096E-01
         -1   -1    0    0    0  501 -0.00000000000E+00  0.00000000000E+00  0.40057517214E+03  0.40057517214E+03  0.00000000000E+00 0. -1.
          1   -1    0    0  501    0  0.00000000000E+00 -0.00000000000E+00 -0.27770933988E+04  0.27770933988E+04  0.00000000000E+00 0.  1.
         23    2    1    2    0    0 -0.42259655897E+03 -0.49256593615E+03  0.58714748641E+02  0.65743669726E+03  0.86985838398E+02 0.  0.
         13    1    3    3    0    0 -0.19242688572E+03 -0.25749771980E+03 -0.88621725190E+01  0.32157692727E+03  0.00000000000E+00 0. -1.
        -13    1    3    3    0    0 -0.23016967325E+03 -0.23506821635E+03  0.67576921160E+02  0.33585976999E+03  0.00000000000E+00 0.  1.
         22    1    1    2    0    0  0.42259655897E+03  0.49256593615E+03 -0.24352329753E+04  0.25202318737E+04  0.00000000000E+00 0.  1.
<mgrwt>
<rscale>  0 0.21094404E+04</rscale>
<asrwt>0</asrwt>
<pdfrwt beam="1">  1        1 0.42724513E+00 0.21094404E+04</pdfrwt>
<pdfrwt beam="2">  1       -1 0.61626950E-01 0.21094404E+04</pdfrwt>
<totfact> 0.21251070E+00</totfact>
</mgrwt>
</event>
<event>
 6    1  0.1762360E-005  0.4646193E+04  0.7818608E-02  0.7885531E-01
          2   -1    0    0  501    0  0.00000000000E+00  0.00000000000E+00  0.33480473114E+04  0.33480473114E+04  0.00000000000E+00 0. -1.
         -2   -1    0    0    0  501 -0.00000000000E+00 -0.00000000000E+00 -0.16119182192E+04  0.16119182192E+04  0.00000000000E+00 0.  1.
         23    2    1    2    0    0  0.52151338596E+03 -0.46226930299E+03  0.32331472272E+04  0.33086834781E+04  0.92066525415E+02 0.  0.
         13    1    3    3    0    0  0.24591037972E+03 -0.26151505645E+03  0.18107591079E+04  0.18459985337E+04  0.00000000000E+00 0.  1.
        -13    1    3    3    0    0  0.27560300623E+03 -0.20075424654E+03  0.14223881193E+04  0.14626849444E+04  0.00000000000E+00 0. -1.
         22    1    1    2    0    0 -0.52151338596E+03  0.46226930299E+03 -0.14970181350E+04  0.16512820525E+04  0.00000000000E+00 0.  1.
<mgrwt>
<rscale>  0 0.46461935E+04</rscale>
<asrwt>0</asrwt>
<pdfrwt beam="1">  1        2 0.51508420E+00 0.46461935E+04</pdfrwt>
<pdfrwt beam="2">  1       -2 0.24798742E+00 0.46461935E+04</pdfrwt>
<totfact> 0.51131092E-02</totfact>
</mgrwt>
</event>
<event>
 6    1  0.1762360E-005  0.1547817E+04  0.7818608E-02  0.8853263E-01
          2   -1    0    0  501    0  0.00000000000E+00  0.00000000000E+00  0.20654219374E+04  0.20654219374E+04  0.00000000000E+00 0. -1.
         -2   -1    0    0    0  501 -0.00000000000E+00 -0.00000000000E+00 -0.28998169600E+03  0.28998169600E+03  0.00000000000E+00 0.  1.
         23    2    1    2    0    0 -0.50642965571E+03  0.40953442790E+03  0.26233245758E+03  0.70807712984E+03  0.91462886918E+02 0.  0.
         13    1    3    3    0    0 -0.24516144157E+03  0.24942455219E+03  0.11573308767E+03  0.36838958624E+03  0.00000000000E+00 0.  1.
        -13    1    3    3    0    0 -0.26126821415E+03  0.16010987572E+03  0.14659936991E+03  0.33968754361E+03  0.00000000000E+00 0. -1.
         22    1    1    2    0    0  0.50642965571E+03 -0.40953442790E+03  0.15131077838E+04  0.16473265035E+04  0.00000000000E+00 0. -1.
<mgrwt>
<rscale>  0 0.15478172E+04</rscale>
<asrwt>0</asrwt>
<pdfrwt beam="1">  1        2 0.31775721E+00 0.15478172E+04</pdfrwt>
<pdfrwt beam="2">  1       -2 0.44612570E-01 0.15478172E+04</pdfrwt>
<totfact> 0.28193880E+01</totfact>
</mgrwt>
</event>
<event>
 6    1  0.1762360E-005  0.1036129E+04  0.7818608E-02  0.9269784E-01
         -1   -1    0    0    0  501 -0.00000000000E+00  0.00000000000E+00  0.23516610209E+03  0.23516610209E+03  0.00000000000E+00 0.  1.
          1   -1    0    0  501    0  0.00000000000E+00 -0.00000000000E+00 -0.11412813173E+04  0.11412813173E+04  0.00000000000E+00 0. -1.
         23    2    1    2    0    0  0.36549608125E+03 -0.61375682294E+02 -0.92980094895E+03  0.10050778275E+04  0.91089378152E+02 0.  0.
         13    1    3    3    0    0  0.36580423548E+03 -0.62169276243E+02 -0.87692397764E+03  0.95219400343E+03  0.00000000000E+00 0. -1.
        -13    1    3    3    0    0 -0.30815422512E+00  0.79359394901E+00 -0.52876971304E+02  0.52883824036E+02  0.00000000000E+00 0.  1.
         22    1    1    2    0    0 -0.36549608125E+03  0.61375682294E+02  0.23685733787E+02  0.37136959188E+03  0.00000000000E+00 0.  1.
<mgrwt>
<rscale>  0 0.10361287E+04</rscale>
<asrwt>0</asrwt>
<pdfrwt beam="1">  1        1 0.17558174E+00 0.10361287E+04</pdfrwt>
<pdfrwt beam="2">  1       -1 0.36179401E-01 0.10361287E+04</pdfrwt>
<totfact> 0.86274647E+01</totfact>
</mgrwt>
</event>
