<event>
 6    1  0.2047711E-005  0.2655663E+04  0.7818608E-02  0.8349536E-01
          2   -1    0    0  501    0  0.00000000000E+00  0.00000000000E+00  0.32950175911E+04  0.32950175911E+04  0.00000000000E+00 0. -1.
         -2   -1    0    0    0  501 -0.00000000000E+00 -0.00000000000E+00 -0.53509152664E+03  0.53509152664E+03  0.00000000000E+00 0.  1.
         23    2    1    2    0    0  0.30841622105E+03  0.12728794032E+03  0.32329633155E+04  0.32512420984E+04  0.84856336010E+02 0.  0.
         11    1    3    3    0    0  0.23503716063E+03  0.79901418084E+02  0.20323200806E+04  0.20474256063E+04  0.00000000000E+00 0. -1.
        -11    1    3    3    0    0  0.73379060414E+02  0.47386522237E+02  0.12006432349E+04  0.12038164921E+04  0.00000000000E+00 0.  1.
         22    1    1    2    0    0 -0.30841622105E+03 -0.12728794032E+03 -0.47303725107E+03  0.57886701932E+03  0.00000000000E+00 0.  1.
<mgrwt>
<rscale>  0 0.26556626E+04</rscale>
<asrwt>0</asrwt>
<pdfrwt beam="1">  1        2 0.50692577E+00 0.26556626E+04</pdfrwt>
<pdfrwt beam="2">  1       -2 0.82321775E-01 0.26556626E+04</pdfrwt>
<totfact> 0.12807399E+00</totfact>
</mgrwt>
</event>
<event>
 6    1  0.2047711E-005  0.1847194E+04  0.7818608E-02  0.8681597E-01
          2   -1    0    0  501    0  0.00000000000E+00  0.00000000000E+00  0.12159580313E+04  0.12159580313E+04  0.00000000000E+00 0. -1.
         -2   -1    0    0    0  501 -0.00000000000E+00 -0.00000000000E+00 -0.70153028732E+03  0.70153028732E+03  0.00000000000E+00 0.  1.
         23    2    1    2    0    0 -0.22697331568E+03  0.85908008747E+03  0.51068439229E+03  0.10289223417E+04  0.91362760200E+02 0.  0.
         11    1    3    3    0    0 -0.73672532167E+02  0.44885379931E+03  0.27647416689E+03  0.53229253246E+03  0.00000000000E+00 0. -1.
        -11    1    3    3    0    0 -0.15330078351E+03  0.41022628816E+03  0.23421022540E+03  0.49662980922E+03  0.00000000000E+00 0.  1.
         22    1    1    2    0    0  0.22697331568E+03 -0.85908008747E+03  0.37433517044E+01  0.88856597696E+03  0.00000000000E+00 0.  1.
<mgrwt>
<rscale>  0 0.18471940E+04</rscale>
<asrwt>0</asrwt>
<pdfrwt beam="1">  1        2 0.18707047E+00 0.18471940E+04</pdfrwt>
<pdfrwt beam="2">  1       -2 0.10792774E+00 0.18471940E+04</pdfrwt>
<totfact> 0.11991541E+01</totfact>
</mgrwt>
</event>
<event>
 6    1  0.2047711E-005  0.2592885E+04  0.7818608E-02  0.8370622E-01
         -2   -1    0    0    0  501 -0.00000000000E+00  0.00000000000E+00  0.39338897321E+03  0.39338897321E+03  0.00000000000E+00 0. -1.
          2   -1    0    0  501    0  0.00000000000E+00 -0.00000000000E+00 -0.42725223924E+04  0.42725223924E+04  0.00000000000E+00 0.  1.
         23    2    1    2    0    0  0.11974788554E+04  0.34814617159E+03 -0.25717956945E+04  0.28591758310E+04  0.74779490194E+02 0.  0.
         13    1    3    3    0    0  0.66154523763E+03  0.20454082877E+03 -0.13465967427E+04  0.15142000659E+04  0.00000000000E+00 0.  1.
        -13    1    3    3    0    0  0.53593361773E+03  0.14360534282E+03 -0.12251989519E+04  0.13449757651E+04  0.00000000000E+00 0. -1.
         22    1    1    2    0    0 -0.11974788554E+04 -0.34814617159E+03 -0.13073377247E+04  0.18067355347E+04  0.00000000000E+00 0. -1.
<mgrwt>
<rscale>  0 0.25928850E+04</rscale>
<asrwt>0</asrwt>
<pdfrwt beam="1">  1        2 0.65731113E+00 0.25928850E+04</pdfrwt>
<pdfrwt beam="2">  1       -2 0.60521381E-01 0.25928850E+04</pdfrwt>
<totfact> 0.45340462E-01</totfact>
</mgrwt>
</event>
<event>
 6    1  0.2047711E-005  0.2416071E+04  0.7818608E-02  0.8433511E-01
          2   -1    0    0  501    0  0.00000000000E+00  0.00000000000E+00  0.25954828813E+04  0.25954828813E+04  0.00000000000E+00 0. -1.
         -2   -1    0    0    0  501 -0.00000000000E+00 -0.00000000000E+00 -0.56226517834E+03  0.56226517834E+03  0.00000000000E+00 0.  1.
         23    2    1    2    0    0 -0.22556199833E+03  0.11473985261E+04  0.63142360372E+03  0.13322540746E+04  0.93827282959E+02 0.  0.
         11    1    3    3    0    0 -0.12203906618E+03  0.55855137565E+03  0.36018506699E+03  0.67572661291E+03  0.00000000000E+00 0.  1.
        -11    1    3    3    0    0 -0.10352293216E+03  0.58884715048E+03  0.27123853673E+03  0.65652746166E+03  0.00000000000E+00 0. -1.
         22    1    1    2    0    0  0.22556199833E+03 -0.11473985261E+04  0.14017940992E+04  0.18254939851E+04  0.00000000000E+00 0. -1.
<mgrwt>
<rscale>  0 0.24160709E+04</rscale>
<asrwt>0</asrwt>
<pdfrwt beam="1">  1        2 0.39930505E+00 0.24160709E+04</pdfrwt>
<pdfrwt beam="2">  1       -2 0.86502337E-01 0.24160709E+04</pdfrwt>
<totfact> 0.31829496E+00</totfact>
</mgrwt>
</event>
<event>
 6    1  0.2047711E-005  0.2074488E+04  0.7818608E-02  0.8572566E-01
         -1   -1    0    0    0  501 -0.00000000000E+00  0.00000000000E+00  0.14443244162E+04  0.14443244162E+04  0.00000000000E+00 0.  1.
          1   -1    0    0  501    0  0.00000000000E+00 -0.00000000000E+00 -0.74489853015E+03  0.74489853015E+03  0.00000000000E+00 0. -1.
         23    2    1    2    0    0 -0.46901361062E+03 -0.59476740216E+03 -0.39434451620E+03  0.85878853517E+03  0.91039118317E+02 0.  0.
         13    1    3    3    0    0 -0.40911888110E+03 -0.48781247960E+03 -0.29840500501E+03  0.70312503948E+03  0.00000000000E+00 0. -1.
        -13    1    3    3    0    0 -0.59894729519E+02 -0.10695492257E+03 -0.95939511182E+02  0.15566349569E+03  0.00000000000E+00 0.  1.
         22    1    1    2    0    0  0.46901361062E+03  0.59476740216E+03  0.10937704023E+04  0.13304344112E+04  0.00000000000E+00 0.  1.
<mgrwt>
<rscale>  0 0.20744880E+04</rscale>
<asrwt>0</asrwt>
<pdfrwt beam="1">  1        1 0.11459977E+00 0.20744880E+04</pdfrwt>
<pdfrwt beam="2">  1       -1 0.22220376E+00 0.20744880E+04</pdfrwt>
<totfact> 0.24268450E+00</totfact>
</mgrwt>
</event>
<event>
 6    1  0.2047711E-005  0.2246539E+04  0.7818608E-02  0.8499303E-01
          2   -1    0    0  501    0  0.00000000000E+00  0.00000000000E+00  0.49876313698E+03  0.49876313698E+03  0.00000000000E+00 0. -1.
         -2   -1    0    0    0  501 -0.00000000000E+00 -0.00000000000E+00 -0.25297263573E+04  0.25297263573E+04  0.00000000000E+00 0.  1.
         23    2    1    2    0    0  0.41823951641E+03  0.70944340712E+03 -0.20427957666E+04  0.22048547147E+04  0.10067535699E+03 0.  0.
         11    1    3    3    0    0  0.19014645152E+03  0.36174092004E+03 -0.88976871657E+03  0.97913254222E+03  0.00000000000E+00 0. -1.
        -11    1    3    3    0    0  0.22809306489E+03  0.34770248708E+03 -0.11530270501E+04  0.12257221724E+04  0.00000000000E+00 0.  1.
         22    1    1    2    0    0 -0.41823951641E+03 -0.70944340712E+03  0.11832546363E+02  0.82363477959E+03  0.00000000000E+00 0. -1.
<mgrwt>
<rscale>  0 0.22465389E+04</rscale>
<asrwt>0</asrwt>
<pdfrwt beam="1">  1        2 0.76732791E-01 0.22465389E+04</pdfrwt>
<pdfrwt beam="2">  1       -2 0.38918867E+00 0.22465389E+04</pdfrwt>
<totfact> 0.49163919E-01</totfact>
</mgrwt>
</event>
<event>
 6    1  0.2047711E-005  0.3365786E+04  0.7818608E-02  0.8146355E-01
         -1   -1    0    0    0  501 -0.00000000000E+00  0.00000000000E+00  0.10736543909E+04  0.10736543909E+04  0.00000000000E+00 0.  1.
          1   -1    0    0  501    0  0.00000000000E+00 -0.00000000000E+00 -0.26378397404E+04  0.26378397404E+04  0.00000000000E+00 0. -1.
         23    2    1    2    0    0 -0.92262012632E+03 -0.22981973312E+02  0.76755747516E+03  0.12037499918E+04  0.90074948994E+02 0.  0.
         13    1    3    3    0    0 -0.33276917350E+03  0.12994580409E+02  0.22852441318E+03  0.40389056608E+03  0.00000000000E+00 0. -1.
        -13    1    3    3    0    0 -0.58985095282E+03 -0.35976553721E+02  0.53903306198E+03  0.79985942569E+03  0.00000000000E+00 0.  1.
         22    1    1    2    0    0  0.92262012632E+03  0.22981973312E+02 -0.23317428247E+04  0.25077441395E+04  0.00000000000E+00 0. -1.
<mgrwt>
<rscale>  0 0.33657856E+04</rscale>
<asrwt>0</asrwt>
<pdfrwt beam="1">  1        1 0.40582150E+00 0.33657856E+04</pdfrwt>
<pdfrwt beam="2">  1       -1 0.16517760E+00 0.33657856E+04</pdfrwt>
<totfact> 0.23917926E-01</totfact>
</mgrwt>
</event>
<event>
 6    1  0.2047711E-005  0.1250530E+04  0.7818608E-02  0.9069743E-01
          2   -1    0    0  501    0  0.00000000000E+00  0.00000000000E+00  0.14248774142E+04  0.14248774142E+04  0.00000000000E+00 0. -1.
         -2   -1    0    0    0  501 -0.00000000000E+00 -0.00000000000E+00 -0.27437872488E+03  0.27437872488E+03  0.00000000000E+00 0.  1.
         23    2    1    2    0    0 -0.39953672398E+03 -0.36009257645E+03  0.15432405562E+03  0.56715183372E+03  0.92460969768E+02 0.  0.
         11    1    3    3    0    0 -0.14527616299E+03 -0.17489935836E+03  0.98034222726E+02  0.24759979385E+03  0.00000000000E+00 0.  1.
        -11    1    3    3    0    0 -0.25426056099E+03 -0.18519321808E+03  0.56289832898E+02  0.31955203987E+03  0.00000000000E+00 0. -1.
         22    1    1    2    0    0  0.39953672398E+03  0.36009257645E+03  0.99617463374E+03  0.11321043054E+04  0.00000000000E+00 0. -1.
<mgrwt>
<rscale>  0 0.12505296E+04</rscale>
<asrwt>0</asrwt>
<pdfrwt beam="1">  1        2 0.21921191E+00 0.12505296E+04</pdfrwt>
<pdfrwt beam="2">  1       -2 0.42212112E-01 0.12505296E+04</pdfrwt>
<totfact> 0.73224304E+01</totfact>
</mgrwt>
</event>
<event>
 6    1  0.2047711E-005  0.1563680E+04  0.7818608E-02  0.8843177E-01
         -2   -1    0    0    0  501 -0.00000000000E+00  0.00000000000E+00  0.32816623121E+03  0.32816623121E+03  0.00000000000E+00 0.  1.
          2   -1    0    0  501    0  0.00000000000E+00 -0.00000000000E+00 -0.18626962094E+04  0.18626962094E+04  0.00000000000E+00 0. -1.
         23    2    1    2    0    0 -0.45634564651E+03 -0.58561907336E+03 -0.11015655030E+04  0.13314095420E+04  0.89463752233E+02 0.  0.
         11    1    3    3    0    0 -0.11859665469E+03 -0.20238190586E+03 -0.29843016081E+03  0.37958419778E+03  0.00000000000E+00 0.  1.
        -11    1    3    3    0    0 -0.33774899182E+03 -0.38323716751E+03 -0.80313534223E+03  0.95182534426E+03  0.00000000000E+00 0. -1.
         22    1    1    2    0    0  0.45634564651E+03  0.58561907336E+03 -0.43296447520E+03  0.85945289862E+03  0.00000000000E+00 0. -1.
<mgrwt>
<rscale>  0 0.15636803E+04</rscale>
<asrwt>0</asrwt>
<pdfrwt beam="1">  1        2 0.28656865E+00 0.15636803E+04</pdfrwt>
<pdfrwt beam="2">  1       -2 0.50487112E-01 0.15636803E+04</pdfrwt>
<totfact> 0.28412725E+01</totfact>
</mgrwt>
</event>
<event>
 6    1  0.2047711E-005  0.2431501E+04  0.7818608E-02  0.8427803E-01
         -2   -1    0    0    0  501 -0.00000000000E+00  0.00000000000E+00  0.55103779022E+03  0.55103779022E+03  0.00000000000E+00 0. -1.
          2   -1    0    0  501    0  0.00000000000E+00 -0.00000000000E+00 -0.26823007944E+04  0.26823007944E+04  0.00000000000E+00 0.  1.
         23    2    1    2    0    0  0.13599630099E+03 -0.61380096277E+03  0.31363012577E+03  0.70890814735E+03  0.94553105783E+02 0.  0.
         13    1    3    3    0    0  0.28230807354E+02 -0.32471889230E+03  0.13847839644E+03  0.35414065536E+03  0.00000000000E+00 0. -1.
        -13    1    3    3    0    0  0.10776549364E+03 -0.28908207047E+03  0.17515172933E+03  0.35476749199E+03  0.00000000000E+00 0.  1.
         22    1    1    2    0    0 -0.13599630099E+03  0.61380096277E+03 -0.24448931300E+04  0.25244304373E+04  0.00000000000E+00 0.  1.
<mgrwt>
<rscale>  0 0.24315009E+04</rscale>
<asrwt>0</asrwt>
<pdfrwt beam="1">  1        2 0.41266167E+00 0.24315009E+04</pdfrwt>
<pdfrwt beam="2">  1       -2 0.84775044E-01 0.24315009E+04</pdfrwt>
<totfact> 0.29579928E+00</totfact>
</mgrwt>
</event>
<event>
 6    1  0.2047711E-005  0.3859967E+04  0.7818608E-02  0.8033407E-01
          2   -1    0    0  501    0  0.00000000000E+00  0.00000000000E+00  0.29789499591E+04  0.29789499591E+04  0.00000000000E+00 0. -1.
         -2   -1    0    0    0  501 -0.00000000000E+00 -0.00000000000E+00 -0.12503855271E+04  0.12503855271E+04  0.00000000000E+00 0.  1.
         23    2    1    2    0    0 -0.41490607670E+02  0.19115707630E+04  0.58492856563E+03  0.20013931066E+04  0.87227792458E+02 0.  0.
         11    1    3    3    0    0  0.18975750166E+02  0.73800498558E+03  0.25089066485E+03  0.77971633530E+03  0.00000000000E+00 0. -1.
        -11    1    3    3    0    0 -0.60466357836E+02  0.11735657774E+04  0.33403790077E+03  0.12216767713E+04  0.00000000000E+00 0.  1.
         22    1    1    2    0    0  0.41490607670E+02 -0.19115707630E+04  0.11436358663E+04  0.22279423797E+04  0.00000000000E+00 0. -1.
<mgrwt>
<rscale>  0 0.38599668E+04</rscale>
<asrwt>0</asrwt>
<pdfrwt beam="1">  1        2 0.45829999E+00 0.38599668E+04</pdfrwt>
<pdfrwt beam="2">  1       -2 0.19236701E+00 0.38599668E+04</pdfrwt>
<totfact> 0.21388246E-01</totfact>
</mgrwt>
</event>
<event>
 6    1  0.2047711E-005  0.3432180E+04  0.7818608E-02  0.8130053E-01
          2   -1    0    0  501    0  0.00000000000E+00  0.00000000000E+00  0.25718799209E+04  0.25718799209E+04  0.00000000000E+00 0.  1.
         -2   -1    0    0    0  501 -0.00000000000E+00 -0.00000000000E+00 -0.11450629986E+04  0.11450629986E+04  0.00000000000E+00 0. -1.
         23    2    1    2    0    0 -0.35568246881E+03 -0.93259908583E+03  0.22240921743E+04  0.24394849355E+04  0.90827735557E+02 0.  0.
         13    1    3    3    0    0 -0.45506132121E+02 -0.12211084752E+03  0.37192714497E+03  0.39409601407E+03  0.00000000000E+00 0. -1.
        -13    1    3    3    0    0 -0.31017633669E+03 -0.81048823831E+03  0.18521650293E+04  0.20453889215E+04  0.00000000000E+00 0.  1.
         22    1    1    2    0    0  0.35568246881E+03  0.93259908583E+03 -0.79727525194E+03  0.12774579840E+04  0.00000000000E+00 0. -1.
<mgrwt>
<rscale>  0 0.34321798E+04</rscale>
<asrwt>0</asrwt>
<pdfrwt beam="1">  1        2 0.39567383E+00 0.34321798E+04</pdfrwt>
<pdfrwt beam="2">  1       -2 0.17616354E+00 0.34321798E+04</pdfrwt>
<totfact> 0.50352600E-01</totfact>
</mgrwt>
</event>
<event>
 6    1  0.2047711E-005  0.3323694E+04  0.7818608E-02  0.8156892E-01
         -2   -1    0    0    0  501 -0.00000000000E+00  0.00000000000E+00  0.14972281947E+04  0.14972281947E+04  0.00000000000E+00 0.  1.
          2   -1    0    0  501    0  0.00000000000E+00 -0.00000000000E+00 -0.18445659325E+04  0.18445659325E+04  0.00000000000E+00 0. -1.
         23    2    1    2    0    0 -0.72822040559E+03 -0.14263368369E+04 -0.61531561650E+03  0.17180472642E+04  0.91276298514E+02 0.  0.
         13    1    3    3    0    0 -0.16187757080E+03 -0.28181686644E+03 -0.89918885903E+02  0.33720987557E+03  0.00000000000E+00 0. -1.
        -13    1    3    3    0    0 -0.56634283479E+03 -0.11445199705E+04 -0.52539673060E+03  0.13808373887E+04  0.00000000000E+00 0.  1.
         22    1    1    2    0    0  0.72822040559E+03  0.14263368369E+04  0.26797787874E+03  0.16237468630E+04  0.00000000000E+00 0.  1.
<mgrwt>
<rscale>  0 0.33236944E+04</rscale>
<asrwt>0</asrwt>
<pdfrwt beam="1">  1        2 0.28377937E+00 0.33236944E+04</pdfrwt>
<pdfrwt beam="2">  1       -2 0.23034280E+00 0.33236944E+04</pdfrwt>
<totfact> 0.57811353E-01</totfact>
</mgrwt>
</event>
<event>
 6    1  0.2047711E-005  0.3151446E+04  0.7818608E-02  0.8201759E-01
          2   -1    0    0  501    0  0.00000000000E+00  0.00000000000E+00  0.18364929041E+04  0.18364929041E+04  0.00000000000E+00 0. -1.
         -2   -1    0    0    0  501 -0.00000000000E+00 -0.00000000000E+00 -0.13519807415E+04  0.13519807415E+04  0.00000000000E+00 0.  1.
         23    2    1    2    0    0 -0.12417979787E+04  0.11859594687E+03  0.12139621537E+04  0.17434046133E+04  0.98123985424E+02 0.  0.
         11    1    3    3    0    0 -0.10930986876E+04  0.93709174566E+02  0.10226018072E+04  0.14997868536E+04  0.00000000000E+00 0. -1.
        -11    1    3    3    0    0 -0.14869929109E+03  0.24886772303E+02  0.19136034651E+03  0.24361775966E+03  0.00000000000E+00 0.  1.
         22    1    1    2    0    0  0.12417979787E+04 -0.11859594687E+03 -0.72944999105E+03  0.14450690323E+04  0.00000000000E+00 0.  1.
<mgrwt>
<rscale>  0 0.31514460E+04</rscale>
<asrwt>0</asrwt>
<pdfrwt beam="1">  1        2 0.28253737E+00 0.31514460E+04</pdfrwt>
<pdfrwt beam="2">  1       -2 0.20799704E+00 0.31514460E+04</pdfrwt>
<totfact> 0.82142450E-01</totfact>
</mgrwt>
</event>
<event>
 6    1  0.2047711E-005  0.2027781E+04  0.7818608E-02  0.8593741E-01
          2   -1    0    0  501    0  0.00000000000E+00  0.00000000000E+00  0.31362772767E+04  0.31362772767E+04  0.00000000000E+00 0. -1.
         -2   -1    0    0    0  501 -0.00000000000E+00 -0.00000000000E+00 -0.32776882184E+03  0.32776882184E+03  0.00000000000E+00 0.  1.
         23    2    1    2    0    0 -0.84306247229E+03 -0.43510866304E+03  0.80668821292E+03  0.12487903206E+04  0.93045746850E+02 0.  0.
         11    1    3    3    0    0 -0.36666442819E+03 -0.19636687962E+03  0.41401105135E+03  0.58686276500E+03  0.00000000000E+00 0. -1.
        -11    1    3    3    0    0 -0.47639804410E+03 -0.23874178342E+03  0.39267716157E+03  0.66192755555E+03  0.00000000000E+00 0.  1.
         22    1    1    2    0    0  0.84306247229E+03  0.43510866304E+03  0.20018202419E+04  0.22152557780E+04  0.00000000000E+00 0. -1.
<mgrwt>
<rscale>  0 0.20277810E+04</rscale>
<asrwt>0</asrwt>
<pdfrwt beam="1">  1        2 0.48250417E+00 0.20277810E+04</pdfrwt>
<pdfrwt beam="2">  1       -2 0.50425975E-01 0.20277810E+04</pdfrwt>
<totfact> 0.49315667E+00</totfact>
</mgrwt>
</event>
<event>
 6    1  0.2047711E-005  0.8238255E+03  0.7818608E-02  0.9526157E-01
          2   -1    0    0  501    0  0.00000000000E+00  0.00000000000E+00  0.72182529307E+03  0.72182529307E+03  0.00000000000E+00 0. -1.
         -2   -1    0    0    0  501 -0.00000000000E+00 -0.00000000000E+00 -0.23505982730E+03  0.23505982730E+03  0.00000000000E+00 0.  1.
         23    2    1    2    0    0  0.97360098007E+02  0.17114262301E+03 -0.16686198047E+03  0.27424493363E+03  0.92728512338E+02 0.  0.
         13    1    3    3    0    0  0.75912566016E+02  0.54995169446E+02 -0.43117806989E+02  0.10318106232E+03  0.00000000000E+00 0. -1.
        -13    1    3    3    0    0  0.21447531991E+02  0.11614745356E+03 -0.12374417348E+03  0.17106387131E+03  0.00000000000E+00 0.  1.
         22    1    1    2    0    0 -0.97360098007E+02 -0.17114262301E+03  0.65362744623E+03  0.68264018675E+03  0.00000000000E+00 0. -1.
<mgrwt>
<rscale>  0 0.82382554E+03</rscale>
<asrwt>0</asrwt>
<pdfrwt beam="1">  1        2 0.11105004E+00 0.82382554E+03</pdfrwt>
<pdfrwt beam="2">  1       -2 0.36163051E-01 0.82382554E+03</pdfrwt>
<totfact> 0.28476699E+02</totfact>
</mgrwt>
</event>
<event>
 6    1  0.2047711E-005  0.4680502E+04  0.7818608E-02  0.7879776E-01
         -2   -1    0    0    0  501 -0.00000000000E+00  0.00000000000E+00  0.23859203192E+04  0.23859203192E+04  0.00000000000E+00 0.  1.
          2   -1    0    0  501    0  0.00000000000E+00 -0.00000000000E+00 -0.22954557506E+04  0.22954557506E+04  0.00000000000E+00 0. -1.
         23    2    1    2    0    0 -0.98522518573E+03  0.16128020262E+04 -0.13335329811E+04  0.23150354215E+04  0.96331452143E+02 0.  0.
         11    1    3    3    0    0 -0.78720264525E+03  0.13074444476E+04 -0.10308359385E+04  0.18416627597E+04  0.00000000000E+00 0.  1.
        -11    1    3    3    0    0 -0.19802254048E+03  0.30535757866E+03 -0.30269704260E+03  0.47337266185E+03  0.00000000000E+00 0. -1.
         22    1    1    2    0    0  0.98522518573E+03 -0.16128020262E+04  0.14239975498E+04  0.23663406484E+04  0.00000000000E+00 0.  1.
<mgrwt>
<rscale>  0 0.46805019E+04</rscale>
<asrwt>0</asrwt>
<pdfrwt beam="1">  1        2 0.35314704E+00 0.46805019E+04</pdfrwt>
<pdfrwt beam="2">  1       -2 0.36706467E+00 0.46805019E+04</pdfrwt>
<totfact> 0.41290014E-02</totfact>
</mgrwt>
</event>
<event>
 6    1  0.2047711E-005  0.1673353E+04  0.7818608E-02  0.8776710E-01
         -2   -1    0    0    0  501 -0.00000000000E+00  0.00000000000E+00  0.11092118644E+04  0.11092118644E+04  0.00000000000E+00 0. -1.
          2   -1    0    0  501    0  0.00000000000E+00 -0.00000000000E+00 -0.63110326904E+03  0.63110326904E+03  0.00000000000E+00 0.  1.
         23    2    1    2    0    0  0.32289246346E+03 -0.58925740194E+03  0.75339106294E+03  0.10141854854E+04  0.97418049946E+02 0.  0.
         11    1    3    3    0    0  0.17972479096E+03 -0.35445552552E+03  0.51295454235E+03  0.64889296696E+03  0.00000000000E+00 0. -1.
        -11    1    3    3    0    0  0.14316767250E+03 -0.23480187642E+03  0.24043652059E+03  0.36529251848E+03  0.00000000000E+00 0.  1.
         22    1    1    2    0    0 -0.32289246346E+03  0.58925740194E+03 -0.27528246760E+03  0.72612964798E+03  0.00000000000E+00 0.  1.
<mgrwt>
<rscale>  0 0.16733526E+04</rscale>
<asrwt>0</asrwt>
<pdfrwt beam="1">  1        2 0.97092811E-01 0.16733526E+04</pdfrwt>
<pdfrwt beam="2">  1       -2 0.17064798E+00 0.16733526E+04</pdfrwt>
<totfact> 0.93686128E+00</totfact>
</mgrwt>
</event>
<event>
 6    1  0.2047711E-005  0.2461027E+04  0.7818608E-02  0.8417003E-01
         -2   -1    0    0    0  501 -0.00000000000E+00  0.00000000000E+00  0.50375428643E+03  0.50375428643E+03  0.00000000000E+00 0.  1.
          2   -1    0    0  501    0  0.00000000000E+00 -0.00000000000E+00 -0.30057572159E+04  0.30057572159E+04  0.00000000000E+00 0. -1.
         23    2    1    2    0    0 -0.10164627339E+04  0.65824925003E+03 -0.95372564166E+03  0.15438942648E+04  0.86765987660E+02 0.  0.
         11    1    3    3    0    0 -0.62705795045E+03  0.36257991970E+03 -0.54145348820E+03  0.90434382360E+03  0.00000000000E+00 0. -1.
        -11    1    3    3    0    0 -0.38940478348E+03  0.29566933032E+03 -0.41227215346E+03  0.63955044118E+03  0.00000000000E+00 0.  1.
         22    1    1    2    0    0  0.10164627339E+04 -0.65824925003E+03 -0.15482772878E+04  0.19656172376E+04  0.00000000000E+00 0. -1.
<mgrwt>
<rscale>  0 0.24610267E+04</rscale>
<asrwt>0</asrwt>
<pdfrwt beam="1">  1        2 0.46242418E+00 0.24610267E+04</pdfrwt>
<pdfrwt beam="2">  1       -2 0.77500660E-01 0.24610267E+04</pdfrwt>
<totfact> 0.22938710E+00</totfact>
</mgrwt>
</event>
<event>
 6    1  0.2047711E-005  0.1580789E+04  0.7818608E-02  0.8832438E-01
          2   -1    0    0  501    0  0.00000000000E+00  0.00000000000E+00  0.13523687954E+04  0.13523687954E+04  0.00000000000E+00 0. -1.
         -2   -1    0    0    0  501 -0.00000000000E+00 -0.00000000000E+00 -0.46194751070E+03  0.46194751070E+03  0.00000000000E+00 0.  1.
         23    2    1    2    0    0 -0.59087554240E+03  0.49443642894E+03  0.63576021102E+03  0.10028647972E+04  0.89137347308E+02 0.  0.
         13    1    3    3    0    0 -0.22383163459E+03  0.15371710313E+03  0.18048115283E+03  0.32604140069E+03  0.00000000000E+00 0.  1.
        -13    1    3    3    0    0 -0.36704390781E+03  0.34071932581E+03  0.45527905819E+03  0.67682339651E+03  0.00000000000E+00 0. -1.
         22    1    1    2    0    0  0.59087554240E+03 -0.49443642894E+03  0.25466107371E+03  0.81145150892E+03  0.00000000000E+00 0.  1.
<mgrwt>
<rscale>  0 0.15807889E+04</rscale>
<asrwt>0</asrwt>
<pdfrwt beam="1">  1        2 0.20805674E+00 0.15807889E+04</pdfrwt>
<pdfrwt beam="2">  1       -2 0.71068848E-01 0.15807889E+04</pdfrwt>
<totfact> 0.26617321E+01</totfact>
</mgrwt>
</event>
<event>
 6    1  0.2047711E-005  0.1308843E+04  0.7818608E-02  0.9022582E-01
         -2   -1    0    0    0  501 -0.00000000000E+00  0.00000000000E+00  0.86883980695E+03  0.86883980695E+03  0.00000000000E+00 0.  1.
          2   -1    0    0  501    0  0.00000000000E+00 -0.00000000000E+00 -0.49291910458E+03  0.49291910458E+03  0.00000000000E+00 0. -1.
         23    2    1    2    0    0 -0.36314422460E+03 -0.49421446324E+03  0.41673614414E+03  0.74711465359E+03  0.91594913785E+02 0.  0.
         11    1    3    3    0    0 -0.25025730213E+03 -0.28117988822E+03  0.28684309611E+03  0.47325448608E+03  0.00000000000E+00 0.  1.
        -11    1    3    3    0    0 -0.11288692247E+03 -0.21303457502E+03  0.12989304804E+03  0.27386016751E+03  0.00000000000E+00 0. -1.
         22    1    1    2    0    0  0.36314422460E+03  0.49421446324E+03 -0.40815441776E+02  0.61464425794E+03  0.00000000000E+00 0. -1.
<mgrwt>
<rscale>  0 0.13088434E+04</rscale>
<asrwt>0</asrwt>
<pdfrwt beam="1">  1        2 0.75833708E-01 0.13088434E+04</pdfrwt>
<pdfrwt beam="2">  1       -2 0.13366766E+00 0.13088434E+04</pdfrwt>
<totfact> 0.24801695E+01</totfact>
</mgrwt>
</event>
<event>
 6    1  0.2047711E-005  0.2782745E+04  0.7818608E-02  0.8308645E-01
         -2   -1    0    0    0  501 -0.00000000000E+00  0.00000000000E+00  0.21936598018E+04  0.21936598018E+04  0.00000000000E+00 0.  1.
          2   -1    0    0  501    0  0.00000000000E+00 -0.00000000000E+00 -0.88250605327E+03  0.88250605327E+03  0.00000000000E+00 0. -1.
         23    2    1    2    0    0 -0.13633973953E+04 -0.70711174924E+02  0.37602381844E+03  0.14213787045E+04  0.12276392711E+03 0.  0.
         11    1    3    3    0    0 -0.59810783086E+03 -0.90318834530E+02  0.15100132728E+03  0.62345157795E+03  0.00000000000E+00 0.  1.
        -11    1    3    3    0    0 -0.76528956440E+03  0.19607659606E+02  0.22502249116E+03  0.79792712651E+03  0.00000000000E+00 0. -1.
         22    1    1    2    0    0  0.13633973953E+04  0.70711174924E+02  0.93512993008E+03  0.16547871506E+04  0.00000000000E+00 0. -1.
<mgrwt>
<rscale>  0 0.27827454E+04</rscale>
<asrwt>0</asrwt>
<pdfrwt beam="1">  1        2 0.13577016E+00 0.27827454E+04</pdfrwt>
<pdfrwt beam="2">  1       -2 0.33748612E+00 0.27827454E+04</pdfrwt>
<totfact> 0.48961178E-01</totfact>
</mgrwt>
</event>
<event>
 6    1  0.2047711E-005  0.1225347E+04  0.7818608E-02  0.9090955E-01
         -4   -1    0    0    0  501 -0.00000000000E+00  0.00000000000E+00  0.32304916916E+03  0.32304916916E+03  0.00000000000E+00 0.  1.
          4   -1    0    0  501    0  0.00000000000E+00 -0.00000000000E+00 -0.11619553770E+04  0.11619553770E+04  0.00000000000E+00 0. -1.
         23    2    1    2    0    0 -0.21262437714E+03 -0.23462116405E+03  0.20848515760E+03  0.39079940599E+03  0.94878334786E+02 0.  0.
         11    1    3    3    0    0 -0.20456490855E+03 -0.17948920655E+03  0.19070818469E+03  0.33231429218E+03  0.00000000000E+00 0. -1.
        -11    1    3    3    0    0 -0.80594685831E+01 -0.55131957503E+02  0.17776972907E+02  0.58485113812E+02  0.00000000000E+00 0.  1.
         22    1    1    2    0    0  0.21262437714E+03  0.23462116405E+03 -0.10473913654E+04  0.10942051402E+04  0.00000000000E+00 0. -1.
<mgrwt>
<rscale>  0 0.12253468E+04</rscale>
<asrwt>0</asrwt>
<pdfrwt beam="1">  1        4 0.17876236E+00 0.12253468E+04</pdfrwt>
<pdfrwt beam="2">  1       -4 0.49699873E-01 0.12253468E+04</pdfrwt>
<totfact> 0.14092279E+00</totfact>
</mgrwt>
</event>
<event>
 6    1  0.2047711E-005  0.1776018E+04  0.7818608E-02  0.8719158E-01
         -2   -1    0    0    0  501 -0.00000000000E+00  0.00000000000E+00  0.26876243972E+03  0.26876243972E+03  0.00000000000E+00 0.  1.
          2   -1    0    0  501    0  0.00000000000E+00 -0.00000000000E+00 -0.29340397300E+04  0.29340397300E+04  0.00000000000E+00 0. -1.
         23    2    1    2    0    0 -0.26452075598E+02 -0.75007327264E+03 -0.48726498453E+03  0.89909923085E+03  0.87422166122E+02 0.  0.
         11    1    3    3    0    0 -0.48700081026E+01 -0.55078220895E+03 -0.39864059705E+03  0.67992579322E+03  0.00000000000E+00 0.  1.
        -11    1    3    3    0    0 -0.21582067495E+02 -0.19929106369E+03 -0.88624387486E+02  0.21917343763E+03  0.00000000000E+00 0. -1.
         22    1    1    2    0    0  0.26452075598E+02  0.75007327264E+03 -0.21780123057E+04  0.23037029389E+04  0.00000000000E+00 0. -1.
<mgrwt>
<rscale>  0 0.17760177E+04</rscale>
<asrwt>0</asrwt>
<pdfrwt beam="1">  1        2 0.45139072E+00 0.17760177E+04</pdfrwt>
<pdfrwt beam="2">  1       -2 0.41348068E-01 0.17760177E+04</pdfrwt>
<totfact> 0.10068433E+01</totfact>
</mgrwt>
</event>
<event>
 6    1  0.2047711E-005  0.3307331E+03  0.7818608E-02  0.1070813E+00
         -3   -1    0    0    0  501 -0.00000000000E+00  0.00000000000E+00  0.17024842005E+03  0.17024842005E+03  0.00000000000E+00 0.  1.
          3   -1    0    0  501    0  0.00000000000E+00 -0.00000000000E+00 -0.16062462933E+03  0.16062462933E+03  0.00000000000E+00 0. -1.
         23    2    1    2    0    0 -0.16244235805E+02 -0.11929731715E+03  0.97921013504E+02  0.18156757517E+03  0.94247198322E+02 0.  0.
         13    1    3    3    0    0  0.31664900878E+02 -0.77919573662E+02  0.79262441914E+02  0.11557101975E+03  0.00000000000E+00 0.  1.
        -13    1    3    3    0    0 -0.47909136683E+02 -0.41377743489E+02  0.18658571589E+02  0.65996555424E+02  0.00000000000E+00 0. -1.
         22    1    1    2    0    0  0.16244235805E+02  0.11929731715E+03 -0.88297222790E+02  0.14930547421E+03  0.00000000000E+00 0. -1.
<mgrwt>
<rscale>  0 0.33073306E+03</rscale>
<asrwt>0</asrwt>
<pdfrwt beam="1">  1        3 0.24711481E-01 0.33073306E+03</pdfrwt>
<pdfrwt beam="2">  1       -3 0.26192065E-01 0.33073306E+03</pdfrwt>
<totfact> 0.54676096E+02</totfact>
</mgrwt>
</event>
<event>
 6    1  0.2047711E-005  0.7847816E+04  0.7818608E-02  0.7495805E-01
         -2   -1    0    0    0  501 -0.00000000000E+00  0.00000000000E+00  0.37249472768E+04  0.37249472768E+04  0.00000000000E+00 0.  1.
          2   -1    0    0  501    0  0.00000000000E+00 -0.00000000000E+00 -0.41334963019E+04  0.41334963019E+04  0.00000000000E+00 0. -1.
         23    2    1    2    0    0 -0.69844298577E+03  0.27948863397E+04  0.24626961586E+04  0.37911027814E+04  0.91518702963E+02 0.  0.
         13    1    3    3    0    0 -0.54269134849E+03  0.20252679706E+04  0.18179019272E+04  0.27750660657E+04  0.00000000000E+00 0.  1.
        -13    1    3    3    0    0 -0.15575163728E+03  0.76961836913E+03  0.64479423147E+03  0.10160367157E+04  0.00000000000E+00 0. -1.
         22    1    1    2    0    0  0.69844298577E+03 -0.27948863397E+04 -0.28712451837E+04  0.40673407973E+04  0.00000000000E+00 0. -1.
<mgrwt>
<rscale>  0 0.78478165E+04</rscale>
<asrwt>0</asrwt>
<pdfrwt beam="1">  1        2 0.63592251E+00 0.78478165E+04</pdfrwt>
<pdfrwt beam="2">  1       -2 0.57306881E+00 0.78478165E+04</pdfrwt>
<totfact> 0.10503131E-04</totfact>
</mgrwt>
</event>
<event>
 6    1  0.2047711E-005  0.1356051E+04  0.7818608E-02  0.8986260E-01
          2   -1    0    0  501    0  0.00000000000E+00  0.00000000000E+00  0.27120849732E+04  0.27120849732E+04  0.00000000000E+00 0. -1.
         -2   -1    0    0    0  501 -0.00000000000E+00 -0.00000000000E+00 -0.16950739457E+03  0.16950739457E+03  0.00000000000E+00 0.  1.
         23    2    1    2    0    0 -0.23017215302E+03 -0.42363503454E+03  0.22808874614E+04  0.23330237030E+04  0.90034019476E+02 0.  0.
         11    1    3    3    0    0 -0.18054581752E+03 -0.29362370330E+03  0.14386163123E+04  0.14793338249E+04  0.00000000000E+00 0. -1.
        -11    1    3    3    0    0 -0.49626335500E+02 -0.13001133124E+03  0.84227114913E+03  0.85368987816E+03  0.00000000000E+00 0.  1.
         22    1    1    2    0    0  0.23017215302E+03  0.42363503454E+03  0.26169011724E+03  0.54856866477E+03  0.00000000000E+00 0.  1.
<mgrwt>
<rscale>  0 0.13560508E+04</rscale>
<asrwt>0</asrwt>
<pdfrwt beam="1">  1        2 0.41724381E+00 0.13560508E+04</pdfrwt>
<pdfrwt beam="2">  1       -2 0.26078063E-01 0.13560508E+04</pdfrwt>
<totfact> 0.34090690E+01</totfact>
</mgrwt>
</event>
<event>
 6    1  0.2047711E-005  0.1479642E+04  0.7818608E-02  0.8898104E-01
          2   -1    0    0  501    0  0.00000000000E+00  0.00000000000E+00  0.58449811344E+03  0.58449811344E+03  0.00000000000E+00 0. -1.
         -2   -1    0    0    0  501 -0.00000000000E+00 -0.00000000000E+00 -0.93641950836E+03  0.93641950836E+03  0.00000000000E+00 0.  1.
         23    2    1    2    0    0 -0.16960952411E+03 -0.71638690818E+03 -0.13976294060E+03  0.75476567694E+03  0.90332467190E+02 0.  0.
         11    1    3    3    0    0 -0.10400700573E+03 -0.25056251230E+03 -0.51043858738E+02  0.27605163526E+03  0.00000000000E+00 0. -1.
        -11    1    3    3    0    0 -0.65602518381E+02 -0.46582439588E+03 -0.88719081864E+02  0.47871404168E+03  0.00000000000E+00 0.  1.
         22    1    1    2    0    0  0.16960952411E+03  0.71638690818E+03 -0.21215845432E+03  0.76615194487E+03  0.00000000000E+00 0. -1.
<mgrwt>
<rscale>  0 0.14796424E+04</rscale>
<asrwt>0</asrwt>
<pdfrwt beam="1">  1        2 0.89922786E-01 0.14796424E+04</pdfrwt>
<pdfrwt beam="2">  1       -2 0.14406454E+00 0.14796424E+04</pdfrwt>
<totfact> 0.16498309E+01</totfact>
</mgrwt>
</event>
<event>
 6    1  0.2047711E-005  0.1837024E+04  0.7818608E-02  0.8686854E-01
          2   -1    0    0  501    0  0.00000000000E+00  0.00000000000E+00  0.16300461467E+04  0.16300461467E+04  0.00000000000E+00 0. -1.
         -2   -1    0    0    0  501 -0.00000000000E+00 -0.00000000000E+00 -0.51757101675E+03  0.51757101675E+03  0.00000000000E+00 0.  1.
         23    2    1    2    0    0 -0.20367644000E+03  0.83613967068E+03  0.92395463343E+03  0.12666213526E+04  0.10011915474E+03 0.  0.
         11    1    3    3    0    0 -0.78563689092E+01  0.20235356268E+03  0.23532425712E+03  0.31046125821E+03  0.00000000000E+00 0.  1.
        -11    1    3    3    0    0 -0.19582007109E+03  0.63378610800E+03  0.68863037631E+03  0.95616009440E+03  0.00000000000E+00 0. -1.
         22    1    1    2    0    0  0.20367644000E+03 -0.83613967068E+03  0.18852049651E+03  0.88099581083E+03  0.00000000000E+00 0. -1.
<mgrwt>
<rscale>  0 0.18370244E+04</rscale>
<asrwt>0</asrwt>
<pdfrwt beam="1">  1        2 0.25077633E+00 0.18370244E+04</pdfrwt>
<pdfrwt beam="2">  1       -2 0.79626311E-01 0.18370244E+04</pdfrwt>
<totfact> 0.14106333E+01</totfact>
</mgrwt>
</event>
<event>
 6    1  0.2047711E-005  0.8724678E+03  0.7818608E-02  0.9460668E-01
          2   -1    0    0  501    0  0.00000000000E+00  0.00000000000E+00  0.26696547185E+03  0.26696547185E+03  0.00000000000E+00 0. -1.
         -2   -1    0    0    0  501 -0.00000000000E+00 -0.00000000000E+00 -0.71282625076E+03  0.71282625076E+03  0.00000000000E+00 0.  1.
         23    2    1    2    0    0  0.19211259362E+03 -0.24196319197E+03 -0.56343493619E+03  0.64922082650E+03  0.92603020213E+02 0.  0.
         11    1    3    3    0    0  0.16103314376E+03 -0.23150626210E+03 -0.44930208012E+03  0.53047071736E+03  0.00000000000E+00 0.  1.
        -11    1    3    3    0    0  0.31079449866E+02 -0.10456929867E+02 -0.11413285607E+03  0.11875010915E+03  0.00000000000E+00 0. -1.
         22    1    1    2    0    0 -0.19211259362E+03  0.24196319197E+03  0.11757415727E+03  0.33057089611E+03  0.00000000000E+00 0. -1.
<mgrwt>
<rscale>  0 0.87246776E+03</rscale>
<asrwt>0</asrwt>
<pdfrwt beam="1">  1        2 0.41071611E-01 0.87246776E+03</pdfrwt>
<pdfrwt beam="2">  1       -2 0.10966558E+00 0.87246776E+03</pdfrwt>
<totfact> 0.83126854E+01</totfact>
</mgrwt>
</event>
<event>
 6    1  0.2047711E-005  0.2711962E+04  0.7818608E-02  0.8331134E-01
         -2   -1    0    0    0  501 -0.00000000000E+00  0.00000000000E+00  0.22176744570E+04  0.22176744570E+04  0.00000000000E+00 0.  1.
          2   -1    0    0  501    0  0.00000000000E+00 -0.00000000000E+00 -0.82910493036E+03  0.82910493036E+03  0.00000000000E+00 0. -1.
         23    2    1    2    0    0 -0.62162394516E+03 -0.94867918513E+03 -0.13665487772E+03  0.11460642564E+04  0.91543425048E+02 0.  0.
         13    1    3    3    0    0 -0.31989583298E+03 -0.56734543996E+03 -0.65133229192E+02  0.65456590939E+03  0.00000000000E+00 0. -1.
        -13    1    3    3    0    0 -0.30172811218E+03 -0.38133374517E+03 -0.71521648531E+02  0.49149834699E+03  0.00000000000E+00 0.  1.
         22    1    1    2    0    0  0.62162394516E+03  0.94867918513E+03  0.15252244044E+04  0.19007151310E+04  0.00000000000E+00 0.  1.
<mgrwt>
<rscale>  0 0.27119623E+04</rscale>
<asrwt>0</asrwt>
<pdfrwt beam="1">  1        2 0.12755461E+00 0.27119623E+04</pdfrwt>
<pdfrwt beam="2">  1       -2 0.34118068E+00 0.27119623E+04</pdfrwt>
<totfact> 0.50870580E-01</totfact>
</mgrwt>
</event>
<event>
 6    1  0.2047711E-005  0.2014773E+04  0.7818608E-02  0.8599745E-01
         -2   -1    0    0    0  501 -0.00000000000E+00  0.00000000000E+00  0.10025166907E+04  0.10025166907E+04  0.00000000000E+00 0.  1.
          2   -1    0    0  501    0  0.00000000000E+00 -0.00000000000E+00 -0.10122804647E+04  0.10122804647E+04  0.00000000000E+00 0. -1.
         23    2    1    2    0    0  0.21579251609E+03 -0.62453078693E+03 -0.76245055095E+03  0.10132271389E+04  0.93237753057E+02 0.  0.
         13    1    3    3    0    0  0.82830681732E+02 -0.37164714836E+03 -0.46051420389E+03  0.59754151044E+03  0.00000000000E+00 0.  1.
        -13    1    3    3    0    0  0.13296183436E+03 -0.25288363857E+03 -0.30193634706E+03  0.41568562849E+03  0.00000000000E+00 0. -1.
         22    1    1    2    0    0 -0.21579251609E+03  0.62453078693E+03  0.75268677687E+03  0.10015700165E+04  0.00000000000E+00 0.  1.
<mgrwt>
<rscale>  0 0.20147735E+04</rscale>
<asrwt>0</asrwt>
<pdfrwt beam="1">  1        2 0.15573546E+00 0.20147735E+04</pdfrwt>
<pdfrwt beam="2">  1       -2 0.15423334E+00 0.20147735E+04</pdfrwt>
<totfact> 0.63847889E+00</totfact>
</mgrwt>
</event>
<event>
 6    1  0.2047711E-005  0.6807151E+03  0.7818608E-02  0.9750792E-01
          2   -1    0    0  501    0  0.00000000000E+00  0.00000000000E+00  0.95883620887E+03  0.95883620887E+03  0.00000000000E+00 0. -1.
         -2   -1    0    0    0  501 -0.00000000000E+00 -0.00000000000E+00 -0.12081653673E+03  0.12081653673E+03  0.00000000000E+00 0.  1.
         23    2    1    2    0    0 -0.13539516927E+03  0.28007875314E+03  0.62107531809E+03  0.70038923223E+03  0.89635740991E+02 0.  0.
         11    1    3    3    0    0 -0.79765367181E+02  0.73907218532E+02  0.24187206485E+03  0.26519216901E+03  0.00000000000E+00 0. -1.
        -11    1    3    3    0    0 -0.55629802087E+02  0.20617153461E+03  0.37920325324E+03  0.43519706322E+03  0.00000000000E+00 0.  1.
         22    1    1    2    0    0  0.13539516927E+03 -0.28007875314E+03  0.21694435405E+03  0.37926351338E+03  0.00000000000E+00 0.  1.
<mgrwt>
<rscale>  0 0.68071512E+03</rscale>
<asrwt>0</asrwt>
<pdfrwt beam="1">  1        2 0.14751326E+00 0.68071512E+03</pdfrwt>
<pdfrwt beam="2">  1       -2 0.18587160E-01 0.68071512E+03</pdfrwt>
<totfact> 0.65422978E+02</totfact>
</mgrwt>
</event>
<event>
 6    1  0.2047711E-005  0.1294498E+04  0.7818608E-02  0.9033939E-01
         -2   -1    0    0    0  501 -0.00000000000E+00  0.00000000000E+00  0.16904066408E+03  0.16904066408E+03  0.00000000000E+00 0.  1.
          2   -1    0    0  501    0  0.00000000000E+00 -0.00000000000E+00 -0.24782880704E+04  0.24782880704E+04  0.00000000000E+00 0. -1.
         23    2    1    2    0    0  0.78221483235E+02 -0.51148356010E+03 -0.37582771579E+03  0.64586783493E+03  0.90359036863E+02 0.  0.
         11    1    3    3    0    0 -0.11501281249E+02 -0.21599608746E+03 -0.16241422596E+03  0.27049024024E+03  0.00000000000E+00 0.  1.
        -11    1    3    3    0    0  0.89722764484E+02 -0.29548747264E+03 -0.21341348984E+03  0.37537759469E+03  0.00000000000E+00 0. -1.
         22    1    1    2    0    0 -0.78221483235E+02  0.51148356010E+03 -0.19334196905E+04  0.20014608996E+04  0.00000000000E+00 0.  1.
<mgrwt>
<rscale>  0 0.12944983E+04</rscale>
<asrwt>0</asrwt>
<pdfrwt beam="1">  1        2 0.38127509E+00 0.12944983E+04</pdfrwt>
<pdfrwt beam="2">  1       -2 0.26006256E-01 0.12944983E+04</pdfrwt>
<totfact> 0.47130019E+01</totfact>
</mgrwt>
</event>
<event>
 6    1  0.2047711E-005  0.2146842E+04  0.7818608E-02  0.8540885E-01
          3   -1    0    0  501    0  0.00000000000E+00  0.00000000000E+00  0.68960804674E+03  0.68960804674E+03  0.00000000000E+00 0. -1.
         -3   -1    0    0    0  501 -0.00000000000E+00 -0.00000000000E+00 -0.16708508442E+04  0.16708508442E+04  0.00000000000E+00 0.  1.
         23    2    1    2    0    0 -0.24834854530E+03  0.99867872093E+03 -0.16379759736E+03  0.10462089745E+04  0.93206104654E+02 0.  0.
         11    1    3    3    0    0 -0.21273290713E+03  0.84058830848E+03 -0.17185585285E+03  0.88395612351E+03  0.00000000000E+00 0.  1.
        -11    1    3    3    0    0 -0.35615638173E+02  0.15809041244E+03  0.80582554902E+01  0.16225285104E+03  0.00000000000E+00 0. -1.
         22    1    1    2    0    0  0.24834854530E+03 -0.99867872093E+03 -0.81744520015E+03  0.13142499164E+04  0.00000000000E+00 0.  1.
<mgrwt>
<rscale>  0 0.21468416E+04</rscale>
<asrwt>0</asrwt>
<pdfrwt beam="1">  1        3 0.10609355E+00 0.21468416E+04</pdfrwt>
<pdfrwt beam="2">  1       -3 0.25705397E+00 0.21468416E+04</pdfrwt>
<totfact> 0.12143279E-01</totfact>
</mgrwt>
</event>
<event>
 6    1  0.2047711E-005  0.2216779E+04  0.7818608E-02  0.8511476E-01
         -2   -1    0    0    0  501 -0.00000000000E+00  0.00000000000E+00  0.88607974836E+03  0.88607974836E+03  0.00000000000E+00 0.  1.
          2   -1    0    0  501    0  0.00000000000E+00 -0.00000000000E+00 -0.13864753415E+04  0.13864753415E+04  0.00000000000E+00 0. -1.
         23    2    1    2    0    0  0.16493383403E+03 -0.51849139581E+03  0.73711582885E+03  0.92071522630E+03  0.91325164495E+02 0.  0.
         13    1    3    3    0    0  0.68809255072E+02 -0.95336173561E+02  0.16727909680E+03  0.20446514568E+03  0.00000000000E+00 0. -1.
        -13    1    3    3    0    0  0.96124578953E+02 -0.42315522225E+03  0.56983673205E+03  0.71625008062E+03  0.00000000000E+00 0.  1.
         22    1    1    2    0    0 -0.16493383403E+03  0.51849139581E+03 -0.12375114220E+04  0.13518398636E+04  0.00000000000E+00 0. -1.
<mgrwt>
<rscale>  0 0.22167794E+04</rscale>
<asrwt>0</asrwt>
<pdfrwt beam="1">  1        2 0.21330390E+00 0.22167794E+04</pdfrwt>
<pdfrwt beam="2">  1       -2 0.13631996E+00 0.22167794E+04</pdfrwt>
<totfact> 0.51752552E+00</totfact>
</mgrwt>
</event>
<event>
 6    1  0.2047711E-005  0.1789499E+04  0.7818608E-02  0.8711904E-01
          2   -1    0    0  501    0  0.00000000000E+00  0.00000000000E+00  0.33628697821E+04  0.33628697821E+04  0.00000000000E+00 0. -1.
         -2   -1    0    0    0  501 -0.00000000000E+00 -0.00000000000E+00 -0.23806343350E+03  0.23806343350E+03  0.00000000000E+00 0.  1.
         23    2    1    2    0    0  0.47409938233E+03  0.23575642810E+03  0.12126974129E+03  0.55108347026E+03  0.92926440387E+02 0.  0.
         13    1    3    3    0    0  0.34311830419E+03  0.12281352980E+03  0.89031820921E+02  0.37515330054E+03  0.00000000000E+00 0. -1.
        -13    1    3    3    0    0  0.13098107814E+03  0.11294289829E+03  0.32237920366E+02  0.17593016972E+03  0.00000000000E+00 0.  1.
         22    1    1    2    0    0 -0.47409938233E+03 -0.23575642810E+03  0.30035366073E+04  0.30498497453E+04  0.00000000000E+00 0. -1.
<mgrwt>
<rscale>  0 0.17894986E+04</rscale>
<asrwt>0</asrwt>
<pdfrwt beam="1">  1        2 0.51736455E+00 0.17894986E+04</pdfrwt>
<pdfrwt beam="2">  1       -2 0.36625146E-01 0.17894986E+04</pdfrwt>
<totfact> 0.67503083E+00</totfact>
</mgrwt>
</event>
<event>
 6    1  0.2047711E-005  0.3183454E+04  0.7818608E-02  0.8193201E-01
          2   -1    0    0  501    0  0.00000000000E+00  0.00000000000E+00  0.43782381767E+04  0.43782381767E+04  0.00000000000E+00 0. -1.
         -2   -1    0    0    0  501 -0.00000000000E+00 -0.00000000000E+00 -0.57867905153E+03  0.57867905153E+03  0.00000000000E+00 0.  1.
         23    2    1    2    0    0 -0.82561572449E+03 -0.50580364722E+03 -0.63342241431E+02  0.97452025880E+03  0.90547452732E+02 0.  0.
         11    1    3    3    0    0 -0.67675489433E+03 -0.43427420391E+03 -0.22656490770E+02  0.80442811223E+03  0.00000000000E+00 0.  1.
        -11    1    3    3    0    0 -0.14886083016E+03 -0.71529443315E+02 -0.40685750661E+02  0.17009214657E+03  0.00000000000E+00 0. -1.
         22    1    1    2    0    0  0.82561572449E+03  0.50580364722E+03  0.38629013666E+04  0.39823969695E+04  0.00000000000E+00 0. -1.
<mgrwt>
<rscale>  0 0.31834539E+04</rscale>
<asrwt>0</asrwt>
<pdfrwt beam="1">  1        2 0.67357508E+00 0.31834539E+04</pdfrwt>
<pdfrwt beam="2">  1       -2 0.89027549E-01 0.31834539E+04</pdfrwt>
<totfact> 0.14662285E-01</totfact>
</mgrwt>
</event>
<event>
 6    1  0.2047711E-005  0.1992229E+04  0.7818608E-02  0.8610263E-01
          2   -1    0    0  501    0  0.00000000000E+00  0.00000000000E+00  0.24851713166E+04  0.24851713166E+04  0.00000000000E+00 0. -1.
         -2   -1    0    0    0  501 -0.00000000000E+00 -0.00000000000E+00 -0.39926573918E+03  0.39926573918E+03  0.00000000000E+00 0.  1.
         23    2    1    2    0    0  0.90744920295E+03  0.36247975147E+02  0.45999674454E+03  0.10220843758E+04  0.91002718186E+02 0.  0.
         11    1    3    3    0    0  0.33722531082E+03 -0.30415646638E+02  0.16744028959E+03  0.37773307029E+03  0.00000000000E+00 0.  1.
        -11    1    3    3    0    0  0.57022389213E+03  0.66663621785E+02  0.29255645495E+03  0.64435130555E+03  0.00000000000E+00 0. -1.
         22    1    1    2    0    0 -0.90744920295E+03 -0.36247975147E+02  0.16259088329E+04  0.18623526799E+04  0.00000000000E+00 0. -1.
<mgrwt>
<rscale>  0 0.19922287E+04</rscale>
<asrwt>0</asrwt>
<pdfrwt beam="1">  1        2 0.38233404E+00 0.19922287E+04</pdfrwt>
<pdfrwt beam="2">  1       -2 0.61425500E-01 0.19922287E+04</pdfrwt>
<totfact> 0.81378816E+00</totfact>
</mgrwt>
</event>
<event>
 6    1  0.2047711E-005  0.2976839E+04  0.7818608E-02  0.8250376E-01
         -1   -1    0    0    0  501 -0.00000000000E+00  0.00000000000E+00  0.18949207960E+04  0.18949207960E+04  0.00000000000E+00 0.  1.
          1   -1    0    0  501    0  0.00000000000E+00 -0.00000000000E+00 -0.11691211072E+04  0.11691211072E+04  0.00000000000E+00 0. -1.
         23    2    1    2    0    0  0.49634304826E+03 -0.27571583722E+03 -0.10513934701E+04  0.11983540492E+04  0.90821550059E+02 0.  0.
         13    1    3    3    0    0  0.10679556470E+03 -0.36725688359E+02 -0.15039933847E+03  0.18807984963E+03  0.00000000000E+00 0. -1.
        -13    1    3    3    0    0  0.38954748356E+03 -0.23899014886E+03 -0.90099413161E+03  0.10102741996E+04  0.00000000000E+00 0.  1.
         22    1    1    2    0    0 -0.49634304826E+03  0.27571583722E+03  0.17771931589E+04  0.18656878540E+04  0.00000000000E+00 0.  1.
<mgrwt>
<rscale>  0 0.29768385E+04</rscale>
<asrwt>0</asrwt>
<pdfrwt beam="1">  1        1 0.17986478E+00 0.29768385E+04</pdfrwt>
<pdfrwt beam="2">  1       -1 0.29152628E+00 0.29768385E+04</pdfrwt>
<totfact> 0.35979104E-01</totfact>
</mgrwt>
</event>
<event>
 6    1  0.2047711E-005  0.1286836E+04  0.7818608E-02  0.9040070E-01
         -2   -1    0    0    0  501 -0.00000000000E+00  0.00000000000E+00  0.22277999113E+03  0.22277999113E+03  0.00000000000E+00 0.  1.
          2   -1    0    0  501    0  0.00000000000E+00 -0.00000000000E+00 -0.18582755150E+04  0.18582755150E+04  0.00000000000E+00 0. -1.
         23    2    1    2    0    0 -0.41473192381E+03 -0.38512923489E+03 -0.33760073590E+03  0.66512543130E+03  0.89947130488E+02 0.  0.
         11    1    3    3    0    0 -0.29265358813E+03 -0.25178832882E+03 -0.18294286494E+03  0.42721373691E+03  0.00000000000E+00 0. -1.
        -11    1    3    3    0    0 -0.12207833568E+03 -0.13334090607E+03 -0.15465787096E+03  0.23791169438E+03  0.00000000000E+00 0.  1.
         22    1    1    2    0    0  0.41473192381E+03  0.38512923489E+03 -0.12978947879E+04  0.14159300748E+04  0.00000000000E+00 0. -1.
<mgrwt>
<rscale>  0 0.12868358E+04</rscale>
<asrwt>0</asrwt>
<pdfrwt beam="1">  1        2 0.28588853E+00 0.12868358E+04</pdfrwt>
<pdfrwt beam="2">  1       -2 0.34273846E-01 0.12868358E+04</pdfrwt>
<totfact> 0.62677713E+01</totfact>
</mgrwt>
</event>
<event>
 6    1  0.2047711E-005  0.3552139E+04  0.7818608E-02  0.8101544E-01
         -2   -1    0    0    0  501 -0.00000000000E+00  0.00000000000E+00  0.13478969613E+04  0.13478969613E+04  0.00000000000E+00 0.  1.
          2   -1    0    0  501    0  0.00000000000E+00 -0.00000000000E+00 -0.23402552800E+04  0.23402552800E+04  0.00000000000E+00 0. -1.
         23    2    1    2    0    0  0.39615526586E+03 -0.40369244861E+03 -0.22433137141E+04  0.23152735179E+04  0.90157943534E+02 0.  0.
         11    1    3    3    0    0  0.34432061223E+03 -0.38522792593E+03 -0.19828606829E+04  0.20490714304E+04  0.00000000000E+00 0.  1.
        -11    1    3    3    0    0  0.51834653628E+02 -0.18464522676E+02 -0.26045303120E+03  0.26620208748E+03  0.00000000000E+00 0. -1.
         22    1    1    2    0    0 -0.39615526586E+03  0.40369244861E+03  0.12509553954E+04  0.13728787234E+04  0.00000000000E+00 0.  1.
<mgrwt>
<rscale>  0 0.35521391E+04</rscale>
<asrwt>0</asrwt>
<pdfrwt beam="1">  1        2 0.36003927E+00 0.35521391E+04</pdfrwt>
<pdfrwt beam="2">  1       -2 0.20736877E+00 0.35521391E+04</pdfrwt>
<totfact> 0.41901460E-01</totfact>
</mgrwt>
</event>
<event>
 6    1  0.2047711E-005  0.5837281E+04  0.7818608E-02  0.7710911E-01
          2   -1    0    0  501    0  0.00000000000E+00  0.00000000000E+00  0.34767309888E+04  0.34767309888E+04  0.00000000000E+00 0. -1.
         -2   -1    0    0    0  501 -0.00000000000E+00 -0.00000000000E+00 -0.24501354289E+04  0.24501354289E+04  0.00000000000E+00 0.  1.
         23    2    1    2    0    0  0.45665763321E+03  0.27794771417E+04  0.12868152905E+04  0.30981310671E+04  0.92158244314E+02 0.  0.
         13    1    3    3    0    0  0.35667969236E+03  0.20762535674E+04  0.10026882103E+04  0.23331165694E+04  0.00000000000E+00 0.  1.
        -13    1    3    3    0    0  0.99977940853E+02  0.70322357426E+03  0.28412708024E+03  0.76501449775E+03  0.00000000000E+00 0. -1.
         22    1    1    2    0    0 -0.45665763321E+03 -0.27794771417E+04 -0.26021973059E+03  0.28287353505E+04  0.00000000000E+00 0.  1.
<mgrwt>
<rscale>  0 0.58372808E+04</rscale>
<asrwt>0</asrwt>
<pdfrwt beam="1">  1        2 0.53488169E+00 0.58372808E+04</pdfrwt>
<pdfrwt beam="2">  1       -2 0.37694391E+00 0.58372808E+04</pdfrwt>
<totfact> 0.60181749E-03</totfact>
</mgrwt>
</event>
<event>
 6    1  0.2047711E-005  0.3851306E+04  0.7818608E-02  0.8035233E-01
         -2   -1    0    0    0  501 -0.00000000000E+00  0.00000000000E+00  0.10559879727E+04  0.10559879727E+04  0.00000000000E+00 0.  1.
          2   -1    0    0  501    0  0.00000000000E+00 -0.00000000000E+00 -0.35115364154E+04  0.35115364154E+04  0.00000000000E+00 0. -1.
         23    2    1    2    0    0  0.46875186241E+03  0.17077549544E+04 -0.33471126832E+03  0.18045358588E+04  0.90347882558E+02 0.  0.
         13    1    3    3    0    0  0.24012939535E+03  0.72312350783E+03 -0.16391165052E+03  0.77938229596E+03  0.00000000000E+00 0. -1.
        -13    1    3    3    0    0  0.22862246706E+03  0.98463144658E+03 -0.17079961780E+03  0.10251535629E+04  0.00000000000E+00 0.  1.
         22    1    1    2    0    0 -0.46875186241E+03 -0.17077549544E+04 -0.21208371743E+04  0.27629885293E+04  0.00000000000E+00 0. -1.
<mgrwt>
<rscale>  0 0.38513064E+04</rscale>
<asrwt>0</asrwt>
<pdfrwt beam="1">  1        2 0.54023637E+00 0.38513064E+04</pdfrwt>
<pdfrwt beam="2">  1       -2 0.16245969E+00 0.38513064E+04</pdfrwt>
<totfact> 0.15365369E-01</totfact>
</mgrwt>
</event>
<event>
 6    1  0.2047711E-005  0.1494546E+04  0.7818608E-02  0.8888088E-01
         -2   -1    0    0    0  501 -0.00000000000E+00  0.00000000000E+00  0.37793404131E+03  0.37793404131E+03  0.00000000000E+00 0.  1.
          2   -1    0    0  501    0  0.00000000000E+00 -0.00000000000E+00 -0.14775512094E+04  0.14775512094E+04  0.00000000000E+00 0. -1.
         23    2    1    2    0    0  0.49040425866E+03 -0.32735679814E+03  0.14547268473E+02  0.59492140786E+03  0.77852734777E+02 0.  0.
         11    1    3    3    0    0  0.24287757753E+03 -0.14566452020E+03 -0.29432045565E+02  0.28473481596E+03  0.00000000000E+00 0.  1.
        -11    1    3    3    0    0  0.24752668113E+03 -0.18169227794E+03  0.43979314039E+02  0.31018659190E+03  0.00000000000E+00 0. -1.
         22    1    1    2    0    0 -0.49040425866E+03  0.32735679814E+03 -0.11141644366E+04  0.12605638429E+04  0.00000000000E+00 0. -1.
<mgrwt>
<rscale>  0 0.14945460E+04</rscale>
<asrwt>0</asrwt>
<pdfrwt beam="1">  1        2 0.22731557E+00 0.14945460E+04</pdfrwt>
<pdfrwt beam="2">  1       -2 0.58143700E-01 0.14945460E+04</pdfrwt>
<totfact> 0.34960069E+01</totfact>
</mgrwt>
</event>
<event>
 6    1  0.2047711E-005  0.1867588E+04  0.7818608E-02  0.8671160E-01
          2   -1    0    0  501    0  0.00000000000E+00  0.00000000000E+00  0.21622468693E+04  0.21622468693E+04  0.00000000000E+00 0. -1.
         -2   -1    0    0    0  501 -0.00000000000E+00 -0.00000000000E+00 -0.40327071703E+03  0.40327071703E+03  0.00000000000E+00 0.  1.
         23    2    1    2    0    0  0.30764592963E+03  0.38722543306E+03 -0.20286124891E+03  0.54230342498E+03  0.91382516951E+02 0.  0.
         11    1    3    3    0    0  0.20166548458E+02  0.77009567696E+02 -0.39995779859E+02  0.89088863502E+02  0.00000000000E+00 0. -1.
        -11    1    3    3    0    0  0.28747938118E+03  0.31021586537E+03 -0.16286546905E+03  0.45321456148E+03  0.00000000000E+00 0.  1.
         22    1    1    2    0    0 -0.30764592963E+03 -0.38722543306E+03  0.19618374012E+04  0.20232141614E+04  0.00000000000E+00 0. -1.
<mgrwt>
<rscale>  0 0.18675876E+04</rscale>
<asrwt>0</asrwt>
<pdfrwt beam="1">  1        2 0.33265336E+00 0.18675876E+04</pdfrwt>
<pdfrwt beam="2">  1       -2 0.62041650E-01 0.18675876E+04</pdfrwt>
<totfact> 0.12283599E+01</totfact>
</mgrwt>
</event>
<event>
 6    1  0.2047711E-005  0.4111992E+04  0.7818608E-02  0.7982328E-01
          2   -1    0    0  501    0  0.00000000000E+00  0.00000000000E+00  0.13818049381E+04  0.13818049381E+04  0.00000000000E+00 0. -1.
         -2   -1    0    0    0  501 -0.00000000000E+00 -0.00000000000E+00 -0.30591283404E+04  0.30591283404E+04  0.00000000000E+00 0.  1.
         23    2    1    2    0    0 -0.15491784146E+04  0.57079662676E+03 -0.21604809257E+04  0.27206996485E+04  0.93627974463E+02 0.  0.
         11    1    3    3    0    0 -0.81940402479E+03  0.25325552473E+03 -0.11038063409E+04  0.13978375281E+04  0.00000000000E+00 0.  1.
        -11    1    3    3    0    0 -0.72977438978E+03  0.31754110203E+03 -0.10566745848E+04  0.13228621204E+04  0.00000000000E+00 0. -1.
         22    1    1    2    0    0  0.15491784146E+04 -0.57079662676E+03  0.48315752344E+03  0.17202336300E+04  0.00000000000E+00 0. -1.
<mgrwt>
<rscale>  0 0.41119916E+04</rscale>
<asrwt>0</asrwt>
<pdfrwt beam="1">  1        2 0.21258538E+00 0.41119916E+04</pdfrwt>
<pdfrwt beam="2">  1       -2 0.47063512E+00 0.41119916E+04</pdfrwt>
<totfact> 0.29455562E-02</totfact>
</mgrwt>
</event>
<event>
 6    1  0.2047711E-005  0.2332601E+04  0.7818608E-02  0.8465177E-01
          2   -1    0    0  501    0  0.00000000000E+00  0.00000000000E+00  0.21624128418E+04  0.21624128418E+04  0.00000000000E+00 0. -1.
         -2   -1    0    0    0  501 -0.00000000000E+00 -0.00000000000E+00 -0.62904567126E+03  0.62904567126E+03  0.00000000000E+00 0.  1.
         23    2    1    2    0    0 -0.63205860192E+02  0.85236343786E+03 -0.17886889432E+03  0.87775248737E+03  0.89089487453E+02 0.  0.
         11    1    3    3    0    0 -0.67282657879E+01  0.60202568973E+03 -0.14088236333E+03  0.61832680756E+03  0.00000000000E+00 0.  1.
        -11    1    3    3    0    0 -0.56477594404E+02  0.25033774813E+03 -0.37986530989E+02  0.25942567981E+03  0.00000000000E+00 0. -1.
         22    1    1    2    0    0  0.63205860192E+02 -0.85236343786E+03  0.17122360649E+04  0.19137060257E+04  0.00000000000E+00 0. -1.
<mgrwt>
<rscale>  0 0.23326006E+04</rscale>
<asrwt>0</asrwt>
<pdfrwt beam="1">  1        2 0.33267890E+00 0.23326006E+04</pdfrwt>
<pdfrwt beam="2">  1       -2 0.96776258E-01 0.23326006E+04</pdfrwt>
<totfact> 0.43739636E+00</totfact>
</mgrwt>
</event>
<event>
 6    1  0.2047711E-005  0.2800422E+04  0.7818608E-02  0.8303137E-01
         -1   -1    0    0    0  501 -0.00000000000E+00  0.00000000000E+00  0.11094047796E+04  0.11094047796E+04  0.00000000000E+00 0.  1.
          1   -1    0    0  501    0  0.00000000000E+00 -0.00000000000E+00 -0.17672460856E+04  0.17672460856E+04  0.00000000000E+00 0. -1.
         23    2    1    2    0    0  0.55709530602E+03 -0.19253078012E+03 -0.16323115228E+04  0.17377849886E+04  0.89624090774E+02 0.  0.
         13    1    3    3    0    0  0.27554893525E+03 -0.14158571128E+03 -0.87546110796E+03  0.92865810765E+03  0.00000000000E+00 0. -1.
        -13    1    3    3    0    0  0.28154637077E+03 -0.50945068834E+02 -0.75685041487E+03  0.80912688092E+03  0.00000000000E+00 0.  1.
         22    1    1    2    0    0 -0.55709530602E+03  0.19253078012E+03  0.97447021690E+03  0.11388658766E+04  0.00000000000E+00 0.  1.
<mgrwt>
<rscale>  0 0.28004223E+04</rscale>
<asrwt>0</asrwt>
<pdfrwt beam="1">  1        1 0.27188401E+00 0.28004223E+04</pdfrwt>
<pdfrwt beam="2">  1       -1 0.17067766E+00 0.28004223E+04</pdfrwt>
<totfact> 0.90312277E-01</totfact>
</mgrwt>
</event>
<event>
 6    1  0.2047711E-005  0.1423311E+04  0.7818608E-02  0.8937116E-01
          2   -1    0    0  501    0  0.00000000000E+00  0.00000000000E+00  0.14307942846E+04  0.14307942846E+04  0.00000000000E+00 0. -1.
         -2   -1    0    0    0  501 -0.00000000000E+00 -0.00000000000E+00 -0.35396647134E+03  0.35396647134E+03  0.00000000000E+00 0.  1.
         23    2    1    2    0    0 -0.21427436089E+03  0.22540608210E+03 -0.25778504903E+03  0.41439113581E+03  0.92441756508E+02 0.  0.
         13    1    3    3    0    0 -0.16223041241E+02  0.57906424676E+02 -0.22548342292E+02  0.64224363181E+02  0.00000000000E+00 0. -1.
        -13    1    3    3    0    0 -0.19805131965E+03  0.16749965743E+03 -0.23523670674E+03  0.35016677263E+03  0.00000000000E+00 0.  1.
         22    1    1    2    0    0  0.21427436089E+03 -0.22540608210E+03  0.13346128623E+04  0.13703696202E+04  0.00000000000E+00 0. -1.
<mgrwt>
<rscale>  0 0.14233105E+04</rscale>
<asrwt>0</asrwt>
<pdfrwt beam="1">  1        2 0.22012220E+00 0.14233105E+04</pdfrwt>
<pdfrwt beam="2">  1       -2 0.54456381E-01 0.14233105E+04</pdfrwt>
<totfact> 0.42846295E+01</totfact>
</mgrwt>
</event>
<event>
 6    1  0.2047711E-005  0.3145680E+04  0.7818608E-02  0.8203312E-01
         -2   -1    0    0    0  501 -0.00000000000E+00  0.00000000000E+00  0.10019540044E+04  0.10019540044E+04  0.00000000000E+00 0.  1.
          2   -1    0    0  501    0  0.00000000000E+00 -0.00000000000E+00 -0.24690016154E+04  0.24690016154E+04  0.00000000000E+00 0. -1.
         23    2    1    2    0    0 -0.87792368700E+03 -0.80110176306E+03 -0.18687058106E+04  0.22164264874E+04  0.89280079019E+02 0.  0.
         13    1    3    3    0    0 -0.13985651794E+03 -0.16549505664E+03 -0.37847952153E+03  0.43611375535E+03  0.00000000000E+00 0. -1.
        -13    1    3    3    0    0 -0.73806716905E+03 -0.63560670642E+03 -0.14902262890E+04  0.17803127320E+04  0.00000000000E+00 0.  1.
         22    1    1    2    0    0  0.87792368700E+03  0.80110176306E+03  0.40165819951E+03  0.12545291325E+04  0.00000000000E+00 0.  1.
<mgrwt>
<rscale>  0 0.31456802E+04</rscale>
<asrwt>0</asrwt>
<pdfrwt beam="1">  1        2 0.37984640E+00 0.31456802E+04</pdfrwt>
<pdfrwt beam="2">  1       -2 0.15414677E+00 0.31456802E+04</pdfrwt>
<totfact> 0.85483415E-01</totfact>
</mgrwt>
</event>
<event>
 6    1  0.2047711E-005  0.2881104E+04  0.7818608E-02  0.8278522E-01
          2   -1    0    0  501    0  0.00000000000E+00  0.00000000000E+00  0.20182237391E+04  0.20182237391E+04  0.00000000000E+00 0. -1.
         -2   -1    0    0    0  501 -0.00000000000E+00 -0.00000000000E+00 -0.10282259008E+04  0.10282259008E+04  0.00000000000E+00 0.  1.
         23    2    1    2    0    0  0.13918145638E+04 -0.32629815150E+03  0.67136657405E+03  0.15818185784E+04  0.88310105724E+02 0.  0.
         13    1    3    3    0    0  0.40134363825E+03 -0.62374656889E+02  0.16299965346E+03  0.43764849001E+03  0.00000000000E+00 0.  1.
        -13    1    3    3    0    0  0.99047092551E+03 -0.26392349461E+03  0.50836692059E+03  0.11441700884E+04  0.00000000000E+00 0. -1.
         22    1    1    2    0    0 -0.13918145638E+04  0.32629815150E+03  0.31863126426E+03  0.14646310614E+04  0.00000000000E+00 0. -1.
<mgrwt>
<rscale>  0 0.28811039E+04</rscale>
<asrwt>0</asrwt>
<pdfrwt beam="1">  1        2 0.31049596E+00 0.28811039E+04</pdfrwt>
<pdfrwt beam="2">  1       -2 0.15818860E+00 0.28811039E+04</pdfrwt>
<totfact> 0.14659497E+00</totfact>
</mgrwt>
</event>
<event>
 6    1  0.2047711E-005  0.4812835E+04  0.7818608E-02  0.7858046E-01
         -2   -1    0    0    0  501 -0.00000000000E+00  0.00000000000E+00  0.30384635220E+04  0.30384635220E+04  0.00000000000E+00 0.  1.
          2   -1    0    0  501    0  0.00000000000E+00 -0.00000000000E+00 -0.19058464096E+04  0.19058464096E+04  0.00000000000E+00 0. -1.
         23    2    1    2    0    0  0.26518448410E+03 -0.16716302442E+04  0.23223434754E+04  0.28754650117E+04  0.10173166566E+03 0.  0.
         11    1    3    3    0    0  0.16856450121E+03 -0.13267947919E+04  0.18272664532E+04  0.22644427796E+04  0.00000000000E+00 0.  1.
        -11    1    3    3    0    0  0.96619982888E+02 -0.34483545228E+03  0.49507702217E+03  0.61102223211E+03  0.00000000000E+00 0. -1.
         22    1    1    2    0    0 -0.26518448410E+03  0.16716302442E+04 -0.11897263629E+04  0.20688449199E+04  0.00000000000E+00 0. -1.
<mgrwt>
<rscale>  0 0.48128348E+04</rscale>
<asrwt>0</asrwt>
<pdfrwt beam="1">  1        2 0.29320714E+00 0.48128348E+04</pdfrwt>
<pdfrwt beam="2">  1       -2 0.46745593E+00 0.48128348E+04</pdfrwt>
<totfact> 0.14885442E-02</totfact>
</mgrwt>
</event>
<event>
 6    1  0.2047711E-005  0.3513842E+04  0.7818608E-02  0.8110517E-01
         -2   -1    0    0    0  501 -0.00000000000E+00  0.00000000000E+00  0.10635630650E+04  0.10635630650E+04  0.00000000000E+00 0.  1.
          2   -1    0    0  501    0  0.00000000000E+00 -0.00000000000E+00 -0.29022923381E+04  0.29022923381E+04  0.00000000000E+00 0. -1.
         23    2    1    2    0    0  0.97535815670E+03  0.46861942161E+03 -0.24804972697E+04  0.27077640481E+04  0.90508225696E+02 0.  0.
         11    1    3    3    0    0  0.57826402668E+03  0.23406725268E+03 -0.13732374544E+04  0.15082963467E+04  0.00000000000E+00 0. -1.
        -11    1    3    3    0    0  0.39709413001E+03  0.23455216893E+03 -0.11072598153E+04  0.11994677014E+04  0.00000000000E+00 0.  1.
         22    1    1    2    0    0 -0.97535815670E+03 -0.46861942161E+03  0.64176799666E+03  0.12580913551E+04  0.00000000000E+00 0.  1.
<mgrwt>
<rscale>  0 0.35138417E+04</rscale>
<asrwt>0</asrwt>
<pdfrwt beam="1">  1        2 0.44650651E+00 0.35138417E+04</pdfrwt>
<pdfrwt beam="2">  1       -2 0.16362509E+00 0.35138417E+04</pdfrwt>
<totfact> 0.38918108E-01</totfact>
</mgrwt>
</event>
<event>
 6    1  0.2047711E-005  0.1914072E+04  0.7818608E-02  0.8647883E-01
         -2   -1    0    0    0  501 -0.00000000000E+00  0.00000000000E+00  0.52849187738E+03  0.52849187738E+03  0.00000000000E+00 0.  1.
          2   -1    0    0  501    0  0.00000000000E+00 -0.00000000000E+00 -0.17330781182E+04  0.17330781182E+04  0.00000000000E+00 0. -1.
         23    2    1    2    0    0 -0.18967107096E+03 -0.31845252995E+03  0.43617959619E+03  0.57945832839E+03  0.90178629483E+02 0.  0.
         11    1    3    3    0    0 -0.20730041377E+01 -0.38010799364E+02  0.81377189782E+02  0.89840777108E+02  0.00000000000E+00 0. -1.
        -11    1    3    3    0    0 -0.18759806682E+03 -0.28044173059E+03  0.35480240641E+03  0.48961755128E+03  0.00000000000E+00 0.  1.
         22    1    1    2    0    0  0.18967107096E+03  0.31845252995E+03 -0.16407658370E+04  0.16821116672E+04  0.00000000000E+00 0. -1.
<mgrwt>
<rscale>  0 0.19140718E+04</rscale>
<asrwt>0</asrwt>
<pdfrwt beam="1">  1        2 0.26662741E+00 0.19140718E+04</pdfrwt>
<pdfrwt beam="2">  1       -2 0.81306441E-01 0.19140718E+04</pdfrwt>
<totfact> 0.11718867E+01</totfact>
</mgrwt>
</event>
<event>
 6    1  0.2047711E-005  0.1618542E+04  0.7818608E-02  0.8809237E-01
          2   -1    0    0  501    0  0.00000000000E+00  0.00000000000E+00  0.93383244438E+03  0.93383244438E+03  0.00000000000E+00 0. -1.
         -2   -1    0    0    0  501 -0.00000000000E+00 -0.00000000000E+00 -0.70132425838E+03  0.70132425838E+03  0.00000000000E+00 0.  1.
         23    2    1    2    0    0  0.96571033928E+02 -0.13576986665E+03  0.91224829695E+03  0.93529525952E+03  0.12174089659E+03 0.  0.
         11    1    3    3    0    0  0.19675184646E+02 -0.12315694281E+03  0.64365743461E+03  0.65562919290E+03  0.00000000000E+00 0. -1.
        -11    1    3    3    0    0  0.76895849282E+02 -0.12612923834E+02  0.26859086235E+03  0.27966606662E+03  0.00000000000E+00 0.  1.
         22    1    1    2    0    0 -0.96571033928E+02  0.13576986665E+03 -0.67974011096E+03  0.69986144324E+03  0.00000000000E+00 0.  1.
<mgrwt>
<rscale>  0 0.16185417E+04</rscale>
<asrwt>0</asrwt>
<pdfrwt beam="1">  1        2 0.14366653E+00 0.16185417E+04</pdfrwt>
<pdfrwt beam="2">  1       -2 0.10789604E+00 0.16185417E+04</pdfrwt>
<totfact> 0.18347541E+01</totfact>
</mgrwt>
</event>
<event>
 6    1  0.2047711E-005  0.2470092E+04  0.7818608E-02  0.8413719E-01
          2   -1    0    0  501    0  0.00000000000E+00  0.00000000000E+00  0.13804886440E+04  0.13804886440E+04  0.00000000000E+00 0. -1.
         -2   -1    0    0    0  501 -0.00000000000E+00 -0.00000000000E+00 -0.11049262751E+04  0.11049262751E+04  0.00000000000E+00 0.  1.
         23    2    1    2    0    0 -0.95309505153E+03 -0.75767146757E+03  0.33587665888E+03  0.12663603494E+04  0.91647011148E+02 0.  0.
         13    1    3    3    0    0 -0.37243982026E+03 -0.35121589871E+03  0.15485269789E+03  0.53483023967E+03  0.00000000000E+00 0.  1.
        -13    1    3    3    0    0 -0.58065523127E+03 -0.40645556886E+03  0.18102396099E+03  0.73153010978E+03  0.00000000000E+00 0. -1.
         22    1    1    2    0    0  0.95309505153E+03  0.75767146757E+03 -0.60314290007E+02  0.12190545696E+04  0.00000000000E+00 0. -1.
<mgrwt>
<rscale>  0 0.24700916E+04</rscale>
<asrwt>0</asrwt>
<pdfrwt beam="1">  1        2 0.21238287E+00 0.24700916E+04</pdfrwt>
<pdfrwt beam="2">  1       -2 0.16998866E+00 0.24700916E+04</pdfrwt>
<totfact> 0.28303797E+00</totfact>
</mgrwt>
</event>
<event>
 6    1  0.2047711E-005  0.1934437E+04  0.7818608E-02  0.8637902E-01
         -2   -1    0    0    0  501 -0.00000000000E+00  0.00000000000E+00  0.34004650204E+03  0.34004650204E+03  0.00000000000E+00 0. -1.
          2   -1    0    0  501    0  0.00000000000E+00 -0.00000000000E+00 -0.27511288371E+04  0.27511288371E+04  0.00000000000E+00 0.  1.
         23    2    1    2    0    0 -0.75279718108E+03  0.23261032718E+03 -0.20987763035E+04  0.22436222626E+04  0.90375466836E+02 0.  0.
         11    1    3    3    0    0 -0.55643012166E+03  0.16712468227E+03 -0.14290852119E+04  0.15426696609E+04  0.00000000000E+00 0. -1.
        -11    1    3    3    0    0 -0.19636705942E+03  0.65485644908E+02 -0.66969109158E+03  0.70095260172E+03  0.00000000000E+00 0.  1.
         22    1    1    2    0    0  0.75279718108E+03 -0.23261032718E+03 -0.31230603152E+03  0.84755307650E+03  0.00000000000E+00 0. -1.
<mgrwt>
<rscale>  0 0.19344371E+04</rscale>
<asrwt>0</asrwt>
<pdfrwt beam="1">  1        2 0.42325058E+00 0.19344371E+04</pdfrwt>
<pdfrwt beam="2">  1       -2 0.52314847E-01 0.19344371E+04</pdfrwt>
<totfact> 0.79841881E+00</totfact>
</mgrwt>
</event>
<event>
 6    1  0.2047711E-005  0.2289109E+04  0.7818608E-02  0.8482228E-01
         -2   -1    0    0    0  501 -0.00000000000E+00  0.00000000000E+00  0.42109396128E+03  0.42109396128E+03  0.00000000000E+00 0.  1.
          2   -1    0    0  501    0  0.00000000000E+00 -0.00000000000E+00 -0.31109574792E+04  0.31109574792E+04  0.00000000000E+00 0. -1.
         23    2    1    2    0    0 -0.81748499587E+03 -0.39749226680E+03 -0.27547725968E+03  0.95221756508E+03  0.67444421660E+02 0.  0.
         11    1    3    3    0    0 -0.64555739202E+03 -0.29130855726E+03 -0.23430087670E+03  0.74599056478E+03  0.00000000000E+00 0. -1.
        -11    1    3    3    0    0 -0.17192760385E+03 -0.10618370954E+03 -0.41176382989E+02  0.20622700030E+03  0.00000000000E+00 0.  1.
         22    1    1    2    0    0  0.81748499587E+03  0.39749226680E+03 -0.24143862582E+04  0.25798338753E+04  0.00000000000E+00 0. -1.
<mgrwt>
<rscale>  0 0.22891094E+04</rscale>
<asrwt>0</asrwt>
<pdfrwt beam="1">  1        2 0.47860885E+00 0.22891094E+04</pdfrwt>
<pdfrwt beam="2">  1       -2 0.64783686E-01 0.22891094E+04</pdfrwt>
<totfact> 0.29579826E+00</totfact>
</mgrwt>
</event>
<event>
 6    1  0.2047711E-005  0.1087534E+04  0.7818608E-02  0.9217428E-01
         -2   -1    0    0    0  501 -0.00000000000E+00  0.00000000000E+00  0.39072079598E+03  0.39072079598E+03  0.00000000000E+00 0.  1.
          2   -1    0    0  501    0  0.00000000000E+00 -0.00000000000E+00 -0.75676194860E+03  0.75676194860E+03  0.00000000000E+00 0. -1.
         23    2    1    2    0    0 -0.34547195241E+03 -0.13701462969E+03  0.22871037779E+03  0.44616023563E+03  0.92879708748E+02 0.  0.
         13    1    3    3    0    0 -0.20512084703E+03 -0.98366841503E+02  0.88657658782E+02  0.24415318522E+03  0.00000000000E+00 0.  1.
        -13    1    3    3    0    0 -0.14035110538E+03 -0.38647788188E+02  0.14005271900E+03  0.20200705041E+03  0.00000000000E+00 0. -1.
         22    1    1    2    0    0  0.34547195241E+03  0.13701462969E+03 -0.59475153040E+03  0.70132250896E+03  0.00000000000E+00 0. -1.
<mgrwt>
<rscale>  0 0.10875341E+04</rscale>
<asrwt>0</asrwt>
<pdfrwt beam="1">  1        2 0.11642492E+00 0.10875341E+04</pdfrwt>
<pdfrwt beam="2">  1       -2 0.60110892E-01 0.10875341E+04</pdfrwt>
<totfact> 0.95045127E+01</totfact>
</mgrwt>
</event>
<event>
 6    1  0.2047711E-005  0.8510104E+03  0.7818608E-02  0.9488982E-01
          2   -1    0    0  501    0  0.00000000000E+00  0.00000000000E+00  0.16954117940E+04  0.16954117940E+04  0.00000000000E+00 0. -1.
         -2   -1    0    0    0  501 -0.00000000000E+00 -0.00000000000E+00 -0.10679098261E+03  0.10679098261E+03  0.00000000000E+00 0.  1.
         23    2    1    2    0    0  0.37373175033E+03  0.99340951860E+02  0.11534585204E+04  0.12200427767E+04  0.92161667298E+02 0.  0.
         13    1    3    3    0    0  0.28807343041E+03  0.38322756790E+02  0.79386252806E+03  0.84538313708E+03  0.00000000000E+00 0. -1.
        -13    1    3    3    0    0  0.85658319924E+02  0.61018195069E+02  0.35959599229E+03  0.37465963964E+03  0.00000000000E+00 0.  1.
         22    1    1    2    0    0 -0.37373175033E+03 -0.99340951860E+02  0.43516229098E+03  0.58215999984E+03  0.00000000000E+00 0. -1.
<mgrwt>
<rscale>  0 0.85101044E+03</rscale>
<asrwt>0</asrwt>
<pdfrwt beam="1">  1        2 0.26083256E+00 0.85101044E+03</pdfrwt>
<pdfrwt beam="2">  1       -2 0.16429383E-01 0.85101044E+03</pdfrwt>
<totfact> 0.29891450E+02</totfact>
</mgrwt>
</event>
<event>
 6    1  0.2047711E-005  0.1743767E+04  0.7818608E-02  0.8736789E-01
         -1   -1    0    0    0  501 -0.00000000000E+00  0.00000000000E+00  0.65749296002E+03  0.65749296002E+03  0.00000000000E+00 0.  1.
          1   -1    0    0  501    0  0.00000000000E+00 -0.00000000000E+00 -0.11561813876E+04  0.11561813876E+04  0.00000000000E+00 0. -1.
         23    2    1    2    0    0  0.14846249185E+03  0.33492883812E+03  0.57016526629E+03  0.68377760144E+03  0.90801647862E+02 0.  0.
         11    1    3    3    0    0  0.13364802691E+03  0.19914202428E+03  0.38699388390E+03  0.45528409494E+03  0.00000000000E+00 0. -1.
        -11    1    3    3    0    0  0.14814464941E+02  0.13578681384E+03  0.18317138240E+03  0.22849350650E+03  0.00000000000E+00 0.  1.
         22    1    1    2    0    0 -0.14846249185E+03 -0.33492883812E+03 -0.10688536938E+04  0.11298967461E+04  0.00000000000E+00 0. -1.
<mgrwt>
<rscale>  0 0.17437673E+04</rscale>
<asrwt>0</asrwt>
<pdfrwt beam="1">  1        1 0.17787406E+00 0.17437673E+04</pdfrwt>
<pdfrwt beam="2">  1       -1 0.10115276E+00 0.17437673E+04</pdfrwt>
<totfact> 0.10132206E+01</totfact>
</mgrwt>
</event>
<event>
 6    1  0.2047711E-005  0.2088525E+04  0.7818608E-02  0.8566315E-01
          1   -1    0    0  501    0  0.00000000000E+00  0.00000000000E+00  0.26562764670E+04  0.26562764670E+04  0.00000000000E+00 0. -1.
         -1   -1    0    0    0  501 -0.00000000000E+00 -0.00000000000E+00 -0.41053101112E+03  0.41053101112E+03  0.00000000000E+00 0.  1.
         23    2    1    2    0    0 -0.22648442046E+03  0.10128145685E+04  0.12650234547E+04  0.16389054554E+04  0.92941960230E+02 0.  0.
         13    1    3    3    0    0 -0.44856340038E+02  0.36450004775E+03  0.40560354025E+03  0.54716232319E+03  0.00000000000E+00 0.  1.
        -13    1    3    3    0    0 -0.18162808043E+03  0.64831452074E+03  0.85941991450E+03  0.10917431323E+04  0.00000000000E+00 0. -1.
         22    1    1    2    0    0  0.22648442046E+03 -0.10128145685E+04  0.98072200113E+03  0.14279020227E+04  0.00000000000E+00 0.  1.
<mgrwt>
<rscale>  0 0.20885247E+04</rscale>
<asrwt>0</asrwt>
<pdfrwt beam="1">  1        1 0.40865791E+00 0.20885247E+04</pdfrwt>
<pdfrwt beam="2">  1       -1 0.63158619E-01 0.20885247E+04</pdfrwt>
<totfact> 0.24674021E+00</totfact>
</mgrwt>
</event>
<event>
 6    1  0.2047711E-005  0.1040702E+04  0.7818608E-02  0.9264996E-01
          2   -1    0    0  501    0  0.00000000000E+00  0.00000000000E+00  0.63466221522E+03  0.63466221522E+03  0.00000000000E+00 0. -1.
         -2   -1    0    0    0  501 -0.00000000000E+00 -0.00000000000E+00 -0.42662889869E+03  0.42662889869E+03  0.00000000000E+00 0.  1.
         23    2    1    2    0    0 -0.79828131148E+02 -0.48726821268E+03  0.25790690738E+03  0.56501476280E+03  0.94460932110E+02 0.  0.
         11    1    3    3    0    0 -0.76373801544E+02 -0.19986406408E+03  0.13050540607E+03  0.25061975717E+03  0.00000000000E+00 0.  1.
        -11    1    3    3    0    0 -0.34543296041E+01 -0.28740414860E+03  0.12740150132E+03  0.31439500562E+03  0.00000000000E+00 0. -1.
         22    1    1    2    0    0  0.79828131148E+02  0.48726821268E+03 -0.49873590863E+02  0.49627635111E+03  0.00000000000E+00 0.  1.
<mgrwt>
<rscale>  0 0.10407022E+04</rscale>
<asrwt>0</asrwt>
<pdfrwt beam="1">  1        2 0.97640340E-01 0.10407022E+04</pdfrwt>
<pdfrwt beam="2">  1       -2 0.65635215E-01 0.10407022E+04</pdfrwt>
<totfact> 0.98692562E+01</totfact>
</mgrwt>
</event>
<event>
 6    1  0.2047711E-005  0.2654490E+04  0.7818608E-02  0.8349924E-01
          2   -1    0    0  501    0  0.00000000000E+00  0.00000000000E+00  0.19179581886E+04  0.19179581886E+04  0.00000000000E+00 0. -1.
         -2   -1    0    0    0  501 -0.00000000000E+00 -0.00000000000E+00 -0.91846621603E+03  0.91846621603E+03  0.00000000000E+00 0.  1.
         23    2    1    2    0    0 -0.12635758972E+04 -0.13549654498E+02  0.71991598006E+02  0.12689217457E+04  0.90398923543E+02 0.  0.
         13    1    3    3    0    0 -0.36436306221E+03  0.26492178321E+02 -0.66832908826E+01  0.36538601916E+03  0.00000000000E+00 0.  1.
        -13    1    3    3    0    0 -0.89921283496E+03 -0.40041832819E+02  0.78674888888E+02  0.90353572651E+03  0.00000000000E+00 0. -1.
         22    1    1    2    0    0  0.12635758972E+04  0.13549654498E+02  0.92750037455E+03  0.15675026590E+04  0.00000000000E+00 0. -1.
<mgrwt>
<rscale>  0 0.26544904E+04</rscale>
<asrwt>0</asrwt>
<pdfrwt beam="1">  1        2 0.29507049E+00 0.26544904E+04</pdfrwt>
<pdfrwt beam="2">  1       -2 0.14130249E+00 0.26544904E+04</pdfrwt>
<totfact> 0.22913585E+00</totfact>
</mgrwt>
</event>
<event>
 6    1  0.2047711E-005  0.1326107E+04  0.7818608E-02  0.9009115E-01
         -2   -1    0    0    0  501 -0.00000000000E+00  0.00000000000E+00  0.35563295292E+03  0.35563295292E+03  0.00000000000E+00 0. -1.
          2   -1    0    0  501    0  0.00000000000E+00 -0.00000000000E+00 -0.12362179117E+04  0.12362179117E+04  0.00000000000E+00 0.  1.
         23    2    1    2    0    0 -0.17154416835E+03  0.61564823992E+03 -0.24645702041E+03  0.69153514266E+03  0.95024384297E+02 0.  0.
         13    1    3    3    0    0 -0.68387618421E+02  0.27742618782E+03 -0.60692508359E+02  0.29210569425E+03  0.00000000000E+00 0. -1.
        -13    1    3    3    0    0 -0.10315654993E+03  0.33822205210E+03 -0.18576451205E+03  0.39942944841E+03  0.00000000000E+00 0.  1.
         22    1    1    2    0    0  0.17154416835E+03 -0.61564823992E+03 -0.63412793840E+03  0.90031572199E+03  0.00000000000E+00 0.  1.
<mgrwt>
<rscale>  0 0.13261068E+04</rscale>
<asrwt>0</asrwt>
<pdfrwt beam="1">  1        2 0.19018737E+00 0.13261068E+04</pdfrwt>
<pdfrwt beam="2">  1       -2 0.54712763E-01 0.13261068E+04</pdfrwt>
<totfact> 0.55416459E+01</totfact>
</mgrwt>
</event>
<event>
 6    1  0.2047711E-005  0.3169718E+04  0.7818608E-02  0.8196861E-01
         -2   -1    0    0    0  501 -0.00000000000E+00  0.00000000000E+00  0.18306134925E+04  0.18306134925E+04  0.00000000000E+00 0.  1.
          2   -1    0    0  501    0  0.00000000000E+00 -0.00000000000E+00 -0.13720965512E+04  0.13720965512E+04  0.00000000000E+00 0. -1.
         23    2    1    2    0    0 -0.28321530241E+03 -0.94534046111E+03 -0.10214258157E+04  0.14239154915E+04  0.10171103700E+03 0.  0.
         13    1    3    3    0    0 -0.59861273359E+02 -0.37108023042E+03 -0.38110261626E+03  0.53527853831E+03  0.00000000000E+00 0. -1.
        -13    1    3    3    0    0 -0.22335402905E+03 -0.57426023069E+03 -0.64032319941E+03  0.88863695318E+03  0.00000000000E+00 0.  1.
         22    1    1    2    0    0  0.28321530241E+03  0.94534046111E+03  0.14799427570E+04  0.17787945522E+04  0.00000000000E+00 0.  1.
<mgrwt>
<rscale>  0 0.31697183E+04</rscale>
<asrwt>0</asrwt>
<pdfrwt beam="1">  1        2 0.21109178E+00 0.31697183E+04</pdfrwt>
<pdfrwt beam="2">  1       -2 0.28163284E+00 0.31697183E+04</pdfrwt>
<totfact> 0.52163996E-01</totfact>
</mgrwt>
</event>
<event>
 6    1  0.2047711E-005  0.6510120E+03  0.7818608E-02  0.9804882E-01
          2   -1    0    0  501    0  0.00000000000E+00  0.00000000000E+00  0.19047672516E+04  0.19047672516E+04  0.00000000000E+00 0. -1.
         -2   -1    0    0    0  501 -0.00000000000E+00 -0.00000000000E+00 -0.55625776171E+02  0.55625776171E+02  0.00000000000E+00 0.  1.
         23    2    1    2    0    0 -0.89527609019E+02 -0.15600113917E+02  0.18637900338E+04  0.18683433857E+04  0.93462080408E+02 0.  0.
         13    1    3    3    0    0 -0.44761113649E+02  0.36534895807E+02  0.63105307661E+03  0.63369262376E+03  0.00000000000E+00 0.  1.
        -13    1    3    3    0    0 -0.44766495370E+02 -0.52135009724E+02  0.12327369572E+04  0.12346507620E+04  0.00000000000E+00 0. -1.
         22    1    1    2    0    0  0.89527609019E+02  0.15600113917E+02 -0.14648558425E+02  0.92049642014E+02  0.00000000000E+00 0.  1.
<mgrwt>
<rscale>  0 0.65101200E+03</rscale>
<asrwt>0</asrwt>
<pdfrwt beam="1">  1        2 0.29304107E+00 0.65101200E+03</pdfrwt>
<pdfrwt beam="2">  1       -2 0.85578132E-02 0.65101200E+03</pdfrwt>
<totfact> 0.68489920E+02</totfact>
</mgrwt>
</event>
<event>
 6    1  0.2047711E-005  0.1478087E+04  0.7818608E-02  0.8899157E-01
          2   -1    0    0  501    0  0.00000000000E+00  0.00000000000E+00  0.18440050019E+04  0.18440050019E+04  0.00000000000E+00 0. -1.
         -2   -1    0    0    0  501 -0.00000000000E+00 -0.00000000000E+00 -0.29619496768E+03  0.29619496768E+03  0.00000000000E+00 0.  1.
         23    2    1    2    0    0  0.34279860386E+03  0.59437210866E+03  0.11633226716E+04  0.13536762138E+04  0.91271941291E+02 0.  0.
         11    1    3    3    0    0  0.11321096911E+03  0.28666270921E+03  0.50953790818E+03  0.59550072398E+03  0.00000000000E+00 0.  1.
        -11    1    3    3    0    0  0.22958763475E+03  0.30770939945E+03  0.65378476340E+03  0.75817548984E+03  0.00000000000E+00 0. -1.
         22    1    1    2    0    0 -0.34279860386E+03 -0.59437210866E+03  0.38448736263E+03  0.78652375577E+03  0.00000000000E+00 0.  1.
<mgrwt>
<rscale>  0 0.14780866E+04</rscale>
<asrwt>0</asrwt>
<pdfrwt beam="1">  1        2 0.28369307E+00 0.14780866E+04</pdfrwt>
<pdfrwt beam="2">  1       -2 0.45568458E-01 0.14780866E+04</pdfrwt>
<totfact> 0.36051935E+01</totfact>
</mgrwt>
</event>
<event>
 6    1  0.2047711E-005  0.3199969E+04  0.7818608E-02  0.8188825E-01
         -2   -1    0    0    0  501 -0.00000000000E+00  0.00000000000E+00  0.78343072516E+03  0.78343072516E+03  0.00000000000E+00 0.  1.
          2   -1    0    0  501    0  0.00000000000E+00 -0.00000000000E+00 -0.32676151961E+04  0.32676151961E+04  0.00000000000E+00 0. -1.
         23    2    1    2    0    0 -0.44328705589E+03 -0.13640053976E+04 -0.34890664357E+03  0.14788045759E+04  0.90072132685E+02 0.  0.
         11    1    3    3    0    0 -0.30926674044E+03 -0.96968725946E+03 -0.28901042982E+03  0.10580483573E+04  0.00000000000E+00 0.  1.
        -11    1    3    3    0    0 -0.13402031545E+03 -0.39431813817E+03 -0.59896213749E+02  0.42075621857E+03  0.00000000000E+00 0. -1.
         22    1    1    2    0    0  0.44328705589E+03  0.13640053976E+04 -0.21352778273E+04  0.25722413453E+04  0.00000000000E+00 0. -1.
<mgrwt>
<rscale>  0 0.31999688E+04</rscale>
<asrwt>0</asrwt>
<pdfrwt beam="1">  1        2 0.50271003E+00 0.31999688E+04</pdfrwt>
<pdfrwt beam="2">  1       -2 0.12052780E+00 0.31999688E+04</pdfrwt>
<totfact> 0.51716287E-01</totfact>
</mgrwt>
</event>
<event>
 6    1  0.2047711E-005  0.2823981E+04  0.7818608E-02  0.8295862E-01
          2   -1    0    0  501    0  0.00000000000E+00  0.00000000000E+00  0.40313088691E+04  0.40313088691E+04  0.00000000000E+00 0. -1.
         -2   -1    0    0    0  501 -0.00000000000E+00 -0.00000000000E+00 -0.49455829427E+03  0.49455829427E+03  0.00000000000E+00 0.  1.
         23    2    1    2    0    0  0.12952993501E+04 -0.50909918596E+03  0.21383573245E+04  0.25529287279E+04  0.88829358871E+02 0.  0.
         11    1    3    3    0    0  0.55532146521E+03 -0.17497032205E+03  0.86166894069E+03  0.10399374532E+04  0.00000000000E+00 0. -1.
        -11    1    3    3    0    0  0.73997788490E+03 -0.33412886391E+03  0.12766883838E+04  0.15129912747E+04  0.00000000000E+00 0.  1.
         22    1    1    2    0    0 -0.12952993501E+04  0.50909918596E+03  0.13983932503E+04  0.19729384354E+04  0.00000000000E+00 0.  1.
<mgrwt>
<rscale>  0 0.28239810E+04</rscale>
<asrwt>0</asrwt>
<pdfrwt beam="1">  1        2 0.62020134E+00 0.28239810E+04</pdfrwt>
<pdfrwt beam="2">  1       -2 0.76085894E-01 0.28239810E+04</pdfrwt>
<totfact> 0.43357005E-01</totfact>
</mgrwt>
</event>
<event>
 6    1  0.2047711E-005  0.2012512E+04  0.7818608E-02  0.8600793E-01
          2   -1    0    0  501    0  0.00000000000E+00  0.00000000000E+00  0.21502633268E+04  0.21502633268E+04  0.00000000000E+00 0. -1.
         -2   -1    0    0    0  501 -0.00000000000E+00 -0.00000000000E+00 -0.47089642984E+03  0.47089642984E+03  0.00000000000E+00 0.  1.
         23    2    1    2    0    0 -0.43177421624E+03 -0.46644698852E+03 -0.17116146601E+03  0.66451543816E+03  0.91009632379E+02 0.  0.
         13    1    3    3    0    0 -0.43428396261E+02 -0.47677670464E+02  0.10190674518E+02  0.65291926835E+02  0.00000000000E+00 0. -1.
        -13    1    3    3    0    0 -0.38834581998E+03 -0.41876931806E+03 -0.18135214053E+03  0.59922351132E+03  0.00000000000E+00 0.  1.
         22    1    1    2    0    0  0.43177421624E+03  0.46644698852E+03  0.18505283630E+04  0.19566443185E+04  0.00000000000E+00 0. -1.
<mgrwt>
<rscale>  0 0.20125122E+04</rscale>
<asrwt>0</asrwt>
<pdfrwt beam="1">  1        2 0.33080974E+00 0.20125122E+04</pdfrwt>
<pdfrwt beam="2">  1       -2 0.72445606E-01 0.20125122E+04</pdfrwt>
<totfact> 0.88113661E+00</totfact>
</mgrwt>
</event>
<event>
 6    1  0.2047711E-005  0.1631727E+04  0.7818608E-02  0.8801290E-01
          2   -1    0    0  501    0  0.00000000000E+00  0.00000000000E+00  0.88306312276E+03  0.88306312276E+03  0.00000000000E+00 0. -1.
         -2   -1    0    0    0  501 -0.00000000000E+00 -0.00000000000E+00 -0.75377785514E+03  0.75377785514E+03  0.00000000000E+00 0.  1.
         23    2    1    2    0    0  0.34411363958E+03  0.58482730185E+03  0.51468931929E+03  0.85647346642E+03  0.90578879242E+02 0.  0.
         11    1    3    3    0    0  0.29965374165E+03  0.50995632667E+03  0.40698615312E+03  0.71797322292E+03  0.00000000000E+00 0. -1.
        -11    1    3    3    0    0  0.44459897929E+02  0.74870975174E+02  0.10770316617E+03  0.13850024350E+03  0.00000000000E+00 0.  1.
         22    1    1    2    0    0 -0.34411363958E+03 -0.58482730185E+03 -0.38540405167E+03  0.78036751148E+03  0.00000000000E+00 0.  1.
<mgrwt>
<rscale>  0 0.16317272E+04</rscale>
<asrwt>0</asrwt>
<pdfrwt beam="1">  1        2 0.13585587E+00 0.16317272E+04</pdfrwt>
<pdfrwt beam="2">  1       -2 0.11596582E+00 0.16317272E+04</pdfrwt>
<totfact> 0.16641047E+01</totfact>
</mgrwt>
</event>
<event>
 6    1  0.2047711E-005  0.4421806E+04  0.7818608E-02  0.7924471E-01
         -2   -1    0    0    0  501 -0.00000000000E+00  0.00000000000E+00  0.20003299736E+04  0.20003299736E+04  0.00000000000E+00 0.  1.
          2   -1    0    0  501    0  0.00000000000E+00 -0.00000000000E+00 -0.24436431668E+04  0.24436431668E+04  0.00000000000E+00 0. -1.
         23    2    1    2    0    0  0.22758360764E+03  0.79115879273E+03 -0.22829435083E+04  0.24285411196E+04  0.90853583699E+02 0.  0.
         11    1    3    3    0    0  0.14591338581E+03  0.52643784191E+03 -0.16353460157E+04  0.17241763566E+04  0.00000000000E+00 0.  1.
        -11    1    3    3    0    0  0.81670221838E+02  0.26472095081E+03 -0.64759749261E+03  0.70436476301E+03  0.00000000000E+00 0. -1.
         22    1    1    2    0    0 -0.22758360764E+03 -0.79115879273E+03  0.18396303152E+04  0.20154320208E+04  0.00000000000E+00 0.  1.
<mgrwt>
<rscale>  0 0.44218063E+04</rscale>
<asrwt>0</asrwt>
<pdfrwt beam="1">  1        2 0.37594510E+00 0.44218063E+04</pdfrwt>
<pdfrwt beam="2">  1       -2 0.30774308E+00 0.44218063E+04</pdfrwt>
<totfact> 0.81518761E-02</totfact>
</mgrwt>
</event>
<event>
 6    1  0.2047711E-005  0.2392197E+04  0.7818608E-02  0.8442431E-01
          2   -1    0    0  501    0  0.00000000000E+00  0.00000000000E+00  0.75225362286E+03  0.75225362286E+03  0.00000000000E+00 0.  1.
         -2   -1    0    0    0  501 -0.00000000000E+00 -0.00000000000E+00 -0.19018207935E+04  0.19018207935E+04  0.00000000000E+00 0. -1.
         23    2    1    2    0    0  0.10208299011E+04 -0.18293913088E+03  0.81900679976E+02  0.10440826525E+04  0.88546323166E+02 0.  0.
         13    1    3    3    0    0  0.80136331664E+03 -0.15468143935E+03  0.99034954151E+02  0.82214197988E+03  0.00000000000E+00 0.  1.
        -13    1    3    3    0    0  0.21946658446E+03 -0.28257691526E+02 -0.17134274175E+02  0.22194067265E+03  0.00000000000E+00 0. -1.
         22    1    1    2    0    0 -0.10208299011E+04  0.18293913088E+03 -0.12314678507E+04  0.16099917639E+04  0.00000000000E+00 0. -1.
<mgrwt>
<rscale>  0 0.23921970E+04</rscale>
<asrwt>0</asrwt>
<pdfrwt beam="1">  1        2 0.11573133E+00 0.23921970E+04</pdfrwt>
<pdfrwt beam="2">  1       -2 0.29258781E+00 0.23921970E+04</pdfrwt>
<totfact> 0.11860942E+00</totfact>
</mgrwt>
</event>
<event>
 6    1  0.2047711E-005  0.1813823E+04  0.7818608E-02  0.8698983E-01
          2   -1    0    0  501    0  0.00000000000E+00  0.00000000000E+00  0.22146026433E+04  0.22146026433E+04  0.00000000000E+00 0. -1.
         -2   -1    0    0    0  501 -0.00000000000E+00 -0.00000000000E+00 -0.37139316674E+03  0.37139316674E+03  0.00000000000E+00 0.  1.
         23    2    1    2    0    0 -0.70603792048E+03  0.61422486553E+02  0.12208715982E+03  0.72467254521E+03  0.89346271133E+02 0.  0.
         13    1    3    3    0    0 -0.84823445805E+02  0.20563265900E+01  0.44539529393E+02  0.95828049734E+02  0.00000000000E+00 0.  1.
        -13    1    3    3    0    0 -0.62121447468E+03  0.59366159963E+02  0.77547630429E+02  0.62884449547E+03  0.00000000000E+00 0. -1.
         22    1    1    2    0    0  0.70603792048E+03 -0.61422486553E+02  0.17211223167E+04  0.18613232648E+04  0.00000000000E+00 0. -1.
<mgrwt>
<rscale>  0 0.18138228E+04</rscale>
<asrwt>0</asrwt>
<pdfrwt beam="1">  1        2 0.34070809E+00 0.18138228E+04</pdfrwt>
<pdfrwt beam="2">  1       -2 0.57137412E-01 0.18138228E+04</pdfrwt>
<totfact> 0.13721970E+01</totfact>
</mgrwt>
</event>
<event>
 6    1  0.2047711E-005  0.4431315E+04  0.7818608E-02  0.7922773E-01
         -2   -1    0    0    0  501 -0.00000000000E+00  0.00000000000E+00  0.13069730943E+04  0.13069730943E+04  0.00000000000E+00 0.  1.
          2   -1    0    0  501    0  0.00000000000E+00 -0.00000000000E+00 -0.37561129552E+04  0.37561129552E+04  0.00000000000E+00 0. -1.
         23    2    1    2    0    0  0.41751847886E+03  0.20691883013E+04 -0.45920583649E+03  0.21621035731E+04  0.89218575953E+02 0.  0.
         11    1    3    3    0    0  0.31547765056E+03  0.15325833113E+04 -0.30068617716E+03  0.15933455153E+04  0.00000000000E+00 0. -1.
        -11    1    3    3    0    0  0.10204082830E+03  0.53660498998E+03 -0.15851965934E+03  0.56875805780E+03  0.00000000000E+00 0.  1.
         22    1    1    2    0    0 -0.41751847886E+03 -0.20691883013E+04 -0.19899340245E+04  0.29009824763E+04  0.00000000000E+00 0. -1.
<mgrwt>
<rscale>  0 0.44313152E+04</rscale>
<asrwt>0</asrwt>
<pdfrwt beam="1">  1        2 0.57786352E+00 0.44313152E+04</pdfrwt>
<pdfrwt beam="2">  1       -2 0.20107279E+00 0.44313152E+04</pdfrwt>
<totfact> 0.52701793E-02</totfact>
</mgrwt>
</event>
<event>
 6    1  0.2047711E-005  0.8021900E+03  0.7818608E-02  0.9556853E-01
          2   -1    0    0  501    0  0.00000000000E+00  0.00000000000E+00  0.91276566172E+03  0.91276566172E+03  0.00000000000E+00 0. -1.
         -2   -1    0    0    0  501 -0.00000000000E+00 -0.00000000000E+00 -0.17625245360E+03  0.17625245360E+03  0.00000000000E+00 0.  1.
         23    2    1    2    0    0 -0.52355342115E+01  0.20842325336E+03  0.82983291792E+03  0.86059694381E+03  0.92394613861E+02 0.  0.
         13    1    3    3    0    0  0.51242909186E+01  0.20848881908E+03  0.70144186024E+03  0.73178858241E+03  0.00000000000E+00 0.  1.
        -13    1    3    3    0    0 -0.10359825130E+02 -0.65565724407E-01  0.12839105768E+03  0.12880836140E+03  0.00000000000E+00 0. -1.
         22    1    1    2    0    0  0.52355342115E+01 -0.20842325336E+03 -0.93319709803E+02  0.22842117152E+03  0.00000000000E+00 0.  1.
<mgrwt>
<rscale>  0 0.80218997E+03</rscale>
<asrwt>0</asrwt>
<pdfrwt beam="1">  1        2 0.14042548E+00 0.80218997E+03</pdfrwt>
<pdfrwt beam="2">  1       -2 0.27115763E-01 0.80218997E+03</pdfrwt>
<totfact> 0.35687796E+02</totfact>
</mgrwt>
</event>
<event>
 6    1  0.2047711E-005  0.3349103E+04  0.7818608E-02  0.8150512E-01
          2   -1    0    0  501    0  0.00000000000E+00  0.00000000000E+00  0.14137290281E+04  0.14137290281E+04  0.00000000000E+00 0. -1.
         -2   -1    0    0    0  501 -0.00000000000E+00 -0.00000000000E+00 -0.19834936498E+04  0.19834936498E+04  0.00000000000E+00 0.  1.
         23    2    1    2    0    0 -0.85786872706E+03 -0.43664968545E+03  0.11032820956E+04  0.14670187978E+04  0.91165069186E+02 0.  0.
         11    1    3    3    0    0 -0.14174585769E+03 -0.99668027885E+02  0.23763668024E+03  0.29410337596E+03  0.00000000000E+00 0.  1.
        -11    1    3    3    0    0 -0.71612286936E+03 -0.33698165757E+03  0.86564541541E+03  0.11729154218E+04  0.00000000000E+00 0. -1.
         22    1    1    2    0    0  0.85786872706E+03  0.43664968545E+03 -0.16730467173E+04  0.19302038802E+04  0.00000000000E+00 0.  1.
<mgrwt>
<rscale>  0 0.33491029E+04</rscale>
<asrwt>0</asrwt>
<pdfrwt beam="1">  1        2 0.21749677E+00 0.33491029E+04</pdfrwt>
<pdfrwt beam="2">  1       -2 0.30515287E+00 0.33491029E+04</pdfrwt>
<totfact> 0.34933495E-01</totfact>
</mgrwt>
</event>
<event>
 6    1  0.2047711E-005  0.3773122E+04  0.7818608E-02  0.8051948E-01
          2   -1    0    0  501    0  0.00000000000E+00  0.00000000000E+00  0.22451844997E+04  0.22451844997E+04  0.00000000000E+00 0. -1.
         -2   -1    0    0    0  501 -0.00000000000E+00 -0.00000000000E+00 -0.15852206015E+04  0.15852206015E+04  0.00000000000E+00 0.  1.
         23    2    1    2    0    0 -0.55803191882E+03  0.27791459384E+03 -0.14764670447E+04  0.16048774519E+04  0.83908031195E+02 0.  0.
         13    1    3    3    0    0 -0.75597086613E+02  0.16524394277E+02 -0.13628483320E+03  0.15672118833E+03  0.00000000000E+00 0.  1.
        -13    1    3    3    0    0 -0.48243483220E+03  0.26139019956E+03 -0.13401822115E+04  0.14481562636E+04  0.00000000000E+00 0. -1.
         22    1    1    2    0    0  0.55803191882E+03 -0.27791459384E+03  0.21364309429E+04  0.22255276493E+04  0.00000000000E+00 0. -1.
<mgrwt>
<rscale>  0 0.37731222E+04</rscale>
<asrwt>0</asrwt>
<pdfrwt beam="1">  1        2 0.34541300E+00 0.37731222E+04</pdfrwt>
<pdfrwt beam="2">  1       -2 0.24388009E+00 0.37731222E+04</pdfrwt>
<totfact> 0.27429616E-01</totfact>
</mgrwt>
</event>
<event>
 6    1  0.2047711E-005  0.2739356E+04  0.7818608E-02  0.8322347E-01
         -2   -1    0    0    0  501 -0.00000000000E+00  0.00000000000E+00  0.33125618244E+04  0.33125618244E+04  0.00000000000E+00 0.  1.
          2   -1    0    0  501    0  0.00000000000E+00 -0.00000000000E+00 -0.56633440983E+03  0.56633440983E+03  0.00000000000E+00 0. -1.
         23    2    1    2    0    0 -0.67469750225E+03  0.93207994725E+03  0.24227022134E+04  0.26836312831E+04  0.91657522073E+02 0.  0.
         13    1    3    3    0    0 -0.50937551823E+03  0.76520013135E+03  0.19118962658E+04  0.21214009500E+04  0.00000000000E+00 0.  1.
        -13    1    3    3    0    0 -0.16532198401E+03  0.16687981590E+03  0.51080594760E+03  0.56223033310E+03  0.00000000000E+00 0. -1.
         22    1    1    2    0    0  0.67469750225E+03 -0.93207994725E+03  0.32352520120E+03  0.11952649511E+04  0.00000000000E+00 0. -1.
<mgrwt>
<rscale>  0 0.27393559E+04</rscale>
<asrwt>0</asrwt>
<pdfrwt beam="1">  1        2 0.87128373E-01 0.27393559E+04</pdfrwt>
<pdfrwt beam="2">  1       -2 0.50962488E+00 0.27393559E+04</pdfrwt>
<totfact> 0.66639205E-02</totfact>
</mgrwt>
</event>
<event>
 6    1  0.2047711E-005  0.1710394E+04  0.7818608E-02  0.8755458E-01
          2   -1    0    0  501    0  0.00000000000E+00  0.00000000000E+00  0.28563376527E+04  0.28563376527E+04  0.00000000000E+00 0. -1.
         -2   -1    0    0    0  501 -0.00000000000E+00 -0.00000000000E+00 -0.25604885168E+03  0.25604885168E+03  0.00000000000E+00 0.  1.
         23    2    1    2    0    0 -0.36910070726E+03  0.15475038600E+03  0.26740987642E+04  0.27054087104E+04  0.90824421148E+02 0.  0.
         13    1    3    3    0    0 -0.30027832986E+02 -0.59900416097E+01  0.33570398943E+03  0.33709749313E+03  0.00000000000E+00 0. -1.
        -13    1    3    3    0    0 -0.33907287427E+03  0.16074042761E+03  0.23383947748E+04  0.23683112173E+04  0.00000000000E+00 0.  1.
         22    1    1    2    0    0  0.36910070726E+03 -0.15475038600E+03 -0.73809963262E+02  0.40697779392E+03  0.00000000000E+00 0.  1.
<mgrwt>
<rscale>  0 0.17103941E+04</rscale>
<asrwt>0</asrwt>
<pdfrwt beam="1">  1        2 0.43943654E+00 0.17103941E+04</pdfrwt>
<pdfrwt beam="2">  1       -2 0.39392133E-01 0.17103941E+04</pdfrwt>
<totfact> 0.12427232E+01</totfact>
</mgrwt>
</event>
<event>
 6    1  0.2047711E-005  0.2527874E+04  0.7818608E-02  0.8393122E-01
         -2   -1    0    0    0  501 -0.00000000000E+00  0.00000000000E+00  0.21383919495E+04  0.21383919495E+04  0.00000000000E+00 0.  1.
          2   -1    0    0  501    0  0.00000000000E+00 -0.00000000000E+00 -0.74707364041E+03  0.74707364041E+03  0.00000000000E+00 0. -1.
         23    2    1    2    0    0 -0.53232811919E+03 -0.56163578107E+03 -0.44189988021E+03  0.89561712668E+03  0.89702599808E+02 0.  0.
         11    1    3    3    0    0 -0.32809544514E+03 -0.30568058910E+03 -0.29474274725E+03  0.53661954002E+03  0.00000000000E+00 0. -1.
        -11    1    3    3    0    0 -0.20423267405E+03 -0.25595519197E+03 -0.14715713296E+03  0.35899758666E+03  0.00000000000E+00 0.  1.
         22    1    1    2    0    0  0.53232811919E+03  0.56163578107E+03  0.18332181893E+04  0.19898484632E+04  0.00000000000E+00 0.  1.
<mgrwt>
<rscale>  0 0.25278736E+04</rscale>
<asrwt>0</asrwt>
<pdfrwt beam="1">  1        2 0.11493441E+00 0.25278736E+04</pdfrwt>
<pdfrwt beam="2">  1       -2 0.32898337E+00 0.25278736E+04</pdfrwt>
<totfact> 0.70666530E-01</totfact>
</mgrwt>
</event>
<event>
 6    1  0.2103781E-005  0.5278080E+04  0.7818608E-02  0.7786986E-01
          2   -1    0    0  501    0  0.00000000000E+00  0.00000000000E+00  0.25547440127E+04  0.25547440127E+04  0.00000000000E+00 0. -1.
         -2   -1    0    0    0  501 -0.00000000000E+00 -0.00000000000E+00 -0.27261175620E+04  0.27261175620E+04  0.00000000000E+00 0.  1.
         23    2    1    2    0    0  0.58492361281E+03 -0.23448697261E+04  0.97345622685E+03  0.26066916322E+04  0.81698067663E+02 0.  0.
         11    1    3    3    0    0  0.42851893033E+03 -0.18557132907E+04  0.76850361481E+03  0.20537521995E+04  0.00000000000E+00 0. -1.
        -11    1    3    3    0    0  0.15640468249E+03 -0.48915643542E+03  0.20495261204E+03  0.55293943267E+03  0.00000000000E+00 0.  1.
         22    1    1    2    0    0 -0.58492361281E+03  0.23448697261E+04 -0.11448297761E+04  0.26741699425E+04  0.00000000000E+00 0.  1.
<mgrwt>
<rscale>  0 0.52780802E+04</rscale>
<asrwt>0</asrwt>
<pdfrwt beam="1">  1        2 0.39303754E+00 0.52780802E+04</pdfrwt>
<pdfrwt beam="2">  1       -2 0.41940270E+00 0.52780802E+04</pdfrwt>
<totfact> 0.12767511E-02</totfact>
</mgrwt>
</event>
<event>
 6    1  0.2047711E-005  0.2600110E+04  0.7818608E-02  0.8368164E-01
         -2   -1    0    0    0  501 -0.00000000000E+00  0.00000000000E+00  0.13721669634E+04  0.13721669634E+04  0.00000000000E+00 0.  1.
          2   -1    0    0  501    0  0.00000000000E+00 -0.00000000000E+00 -0.12317325606E+04  0.12317325606E+04  0.00000000000E+00 0. -1.
         23    2    1    2    0    0 -0.10686170406E+03 -0.12145695777E+04  0.51730256003E+03  0.13277223063E+04  0.92983338817E+02 0.  0.
         11    1    3    3    0    0 -0.76006611859E+02 -0.51803628529E+03  0.25958184010E+03  0.58439826286E+03  0.00000000000E+00 0.  1.
        -11    1    3    3    0    0 -0.30855092204E+02 -0.69653329240E+03  0.25772071992E+03  0.74332404348E+03  0.00000000000E+00 0. -1.
         22    1    1    2    0    0  0.10686170406E+03  0.12145695777E+04 -0.37686815725E+03  0.12761772176E+04  0.00000000000E+00 0. -1.
<mgrwt>
<rscale>  0 0.26001098E+04</rscale>
<asrwt>0</asrwt>
<pdfrwt beam="1">  1        2 0.18949732E+00 0.26001098E+04</pdfrwt>
<pdfrwt beam="2">  1       -2 0.21110261E+00 0.26001098E+04</pdfrwt>
<totfact> 0.18069528E+00</totfact>
</mgrwt>
</event>
<event>
 6    1  0.2047711E-005  0.9883815E+03  0.7818608E-02  0.9321380E-01
          2   -1    0    0  501    0  0.00000000000E+00  0.00000000000E+00  0.23989149558E+04  0.23989149558E+04  0.00000000000E+00 0. -1.
         -2   -1    0    0    0  501 -0.00000000000E+00 -0.00000000000E+00 -0.10180624276E+03  0.10180624276E+03  0.00000000000E+00 0.  1.
         23    2    1    2    0    0 -0.17519843539E+03  0.38035070925E+03  0.18017679997E+04  0.18520891179E+04  0.92222676146E+02 0.  0.
         13    1    3    3    0    0 -0.10598233511E+03  0.14594391887E+03  0.64253143555E+03  0.66736686199E+03  0.00000000000E+00 0.  1.
        -13    1    3    3    0    0 -0.69216100276E+02  0.23440679037E+03  0.11592365642E+04  0.11847222559E+04  0.00000000000E+00 0. -1.
         22    1    1    2    0    0  0.17519843539E+03 -0.38035070925E+03  0.49534071326E+03  0.64863208061E+03  0.00000000000E+00 0.  1.
<mgrwt>
<rscale>  0 0.98838154E+03</rscale>
<asrwt>0</asrwt>
<pdfrwt beam="1">  1        2 0.36906380E+00 0.98838154E+03</pdfrwt>
<pdfrwt beam="2">  1       -2 0.15662501E-01 0.98838154E+03</pdfrwt>
<totfact> 0.13117475E+02</totfact>
</mgrwt>
</event>
<event>
 6    1  0.2047711E-005  0.2295572E+04  0.7818608E-02  0.8479669E-01
         -2   -1    0    0    0  501 -0.00000000000E+00  0.00000000000E+00  0.77445859876E+03  0.77445859876E+03  0.00000000000E+00 0.  1.
          2   -1    0    0  501    0  0.00000000000E+00 -0.00000000000E+00 -0.17010752681E+04  0.17010752681E+04  0.00000000000E+00 0. -1.
         23    2    1    2    0    0  0.76385662444E+03 -0.51722221639E+03 -0.11972920240E+04  0.15141489744E+04  0.90239471200E+02 0.  0.
         11    1    3    3    0    0  0.58556341057E+03 -0.35607426222E+03 -0.85128436895E+03  0.10928670847E+04  0.00000000000E+00 0.  1.
        -11    1    3    3    0    0  0.17829321387E+03 -0.16114795416E+03 -0.34600765505E+03  0.42128188971E+03  0.00000000000E+00 0. -1.
         22    1    1    2    0    0 -0.76385662444E+03  0.51722221639E+03  0.27067535465E+03  0.96138489246E+03  0.00000000000E+00 0.  1.
<mgrwt>
<rscale>  0 0.22955717E+04</rscale>
<asrwt>0</asrwt>
<pdfrwt beam="1">  1        2 0.26170389E+00 0.22955717E+04</pdfrwt>
<pdfrwt beam="2">  1       -2 0.11914748E+00 0.22955717E+04</pdfrwt>
<totfact> 0.48012514E+00</totfact>
</mgrwt>
</event>
<event>
 6    1  0.2047711E-005  0.1369919E+04  0.7818608E-02  0.8975885E-01
         -4   -1    0    0    0  501 -0.00000000000E+00  0.00000000000E+00  0.10678301953E+04  0.10678301953E+04  0.00000000000E+00 0.  1.
          4   -1    0    0  501    0  0.00000000000E+00 -0.00000000000E+00 -0.43936721518E+03  0.43936721518E+03  0.00000000000E+00 0. -1.
         23    2    1    2    0    0 -0.60257990320E+03  0.28177310768E+03  0.15117302749E+03  0.68847625964E+03  0.92992751840E+02 0.  0.
         13    1    3    3    0    0 -0.10524615672E+03  0.87891304249E+02  0.17736009930E+02  0.13826135004E+03  0.00000000000E+00 0. -1.
        -13    1    3    3    0    0 -0.49733374648E+03  0.19388180343E+03  0.13343701756E+03  0.55021490960E+03  0.00000000000E+00 0.  1.
         22    1    1    2    0    0  0.60257990320E+03 -0.28177310768E+03  0.47728995262E+03  0.81872115083E+03  0.00000000000E+00 0. -1.
<mgrwt>
<rscale>  0 0.13699191E+04</rscale>
<asrwt>0</asrwt>
<pdfrwt beam="1">  1        4 0.67594956E-01 0.13699191E+04</pdfrwt>
<pdfrwt beam="2">  1       -4 0.16428157E+00 0.13699191E+04</pdfrwt>
<totfact> 0.91693438E-01</totfact>
</mgrwt>
</event>
<event>
 6    1  0.2047711E-005  0.1528969E+04  0.7818608E-02  0.8865414E-01
          1   -1    0    0  501    0  0.00000000000E+00  0.00000000000E+00  0.17498389296E+04  0.17498389296E+04  0.00000000000E+00 0. -1.
         -1   -1    0    0    0  501 -0.00000000000E+00 -0.00000000000E+00 -0.33399462593E+03  0.33399462593E+03  0.00000000000E+00 0.  1.
         23    2    1    2    0    0  0.74981686702E+03 -0.12374106447E+03  0.63915177855E+03  0.99719264719E+03  0.91329045150E+02 0.  0.
         11    1    3    3    0    0  0.52977629366E+03 -0.11188491597E+03  0.49688417377E+03  0.73489797788E+03  0.00000000000E+00 0. -1.
        -11    1    3    3    0    0  0.22004057336E+03 -0.11856148500E+02  0.14226760479E+03  0.26229466932E+03  0.00000000000E+00 0.  1.
         22    1    1    2    0    0 -0.74981686702E+03  0.12374106447E+03  0.77669252514E+03  0.10866409084E+04  0.00000000000E+00 0. -1.
<mgrwt>
<rscale>  0 0.15289693E+04</rscale>
<asrwt>0</asrwt>
<pdfrwt beam="1">  1        1 0.26920598E+00 0.15289693E+04</pdfrwt>
<pdfrwt beam="2">  1       -1 0.51383790E-01 0.15289693E+04</pdfrwt>
<totfact> 0.16205716E+01</totfact>
</mgrwt>
</event>
<event>
 6    1  0.2047711E-005  0.1176761E+04  0.7818608E-02  0.9133445E-01
          2   -1    0    0  501    0  0.00000000000E+00  0.00000000000E+00  0.28116384265E+03  0.28116384265E+03  0.00000000000E+00 0. -1.
         -2   -1    0    0    0  501 -0.00000000000E+00 -0.00000000000E+00 -0.12312801973E+04  0.12312801973E+04  0.00000000000E+00 0.  1.
         23    2    1    2    0    0  0.38397654777E+03 -0.42672905009E+03 -0.62166018784E+03  0.85106735080E+03  0.91206222540E+02 0.  0.
         13    1    3    3    0    0  0.29264544722E+03 -0.36134163384E+03 -0.53747828444E+03  0.71069827661E+03  0.00000000000E+00 0.  1.
        -13    1    3    3    0    0  0.91331100545E+02 -0.65387416252E+02 -0.84181903399E+02  0.14036907420E+03  0.00000000000E+00 0. -1.
         22    1    1    2    0    0 -0.38397654777E+03  0.42672905009E+03 -0.32845616678E+03  0.66137668913E+03  0.00000000000E+00 0.  1.
<mgrwt>
<rscale>  0 0.11767608E+04</rscale>
<asrwt>0</asrwt>
<pdfrwt beam="1">  1        2 0.43255975E-01 0.11767608E+04</pdfrwt>
<pdfrwt beam="2">  1       -2 0.18942773E+00 0.11767608E+04</pdfrwt>
<totfact> 0.18224783E+01</totfact>
</mgrwt>
</event>
<event>
 6    1  0.2047711E-005  0.2744412E+04  0.7818608E-02  0.8320737E-01
          2   -1    0    0  501    0  0.00000000000E+00  0.00000000000E+00  0.17568914878E+04  0.17568914878E+04  0.00000000000E+00 0. -1.
         -2   -1    0    0    0  501 -0.00000000000E+00 -0.00000000000E+00 -0.10717508261E+04  0.10717508261E+04  0.00000000000E+00 0.  1.
         23    2    1    2    0    0  0.40824303614E+03 -0.12877701189E+04  0.10412981892E+03  0.13580683256E+04  0.92153687652E+02 0.  0.
         11    1    3    3    0    0  0.28974889849E+03 -0.78086614225E+03  0.44228288644E+02  0.83406384516E+03  0.00000000000E+00 0.  1.
        -11    1    3    3    0    0  0.11849413765E+03 -0.50690397665E+03  0.59901530279E+02  0.52400448045E+03  0.00000000000E+00 0. -1.
         22    1    1    2    0    0 -0.40824303614E+03  0.12877701189E+04  0.58101084275E+03  0.14705739883E+04  0.00000000000E+00 0. -1.
<mgrwt>
<rscale>  0 0.27444124E+04</rscale>
<asrwt>0</asrwt>
<pdfrwt beam="1">  1        2 0.27029100E+00 0.27444124E+04</pdfrwt>
<pdfrwt beam="2">  1       -2 0.16488474E+00 0.27444124E+04</pdfrwt>
<totfact> 0.18490620E+00</totfact>
</mgrwt>
</event>
<event>
 6    1  0.2047711E-005  0.2092149E+04  0.7818608E-02  0.8564710E-01
          2   -1    0    0  501    0  0.00000000000E+00  0.00000000000E+00  0.33144281570E+04  0.33144281570E+04  0.00000000000E+00 0.  1.
         -2   -1    0    0    0  501 -0.00000000000E+00 -0.00000000000E+00 -0.33015417697E+03  0.33015417697E+03  0.00000000000E+00 0. -1.
         23    2    1    2    0    0  0.51863839504E+03 -0.24689303586E+03 -0.23644629517E+02  0.58230927010E+03  0.92644814116E+02 0.  0.
         11    1    3    3    0    0  0.37803624317E+02 -0.43802058483E+02 -0.16985501135E+02  0.60301256933E+02  0.00000000000E+00 0. -1.
        -11    1    3    3    0    0  0.48083477072E+03 -0.20309097738E+03 -0.66591283818E+01  0.52200801317E+03  0.00000000000E+00 0.  1.
         22    1    1    2    0    0 -0.51863839504E+03  0.24689303586E+03  0.30079186095E+04  0.30622730638E+04  0.00000000000E+00 0.  1.
<mgrwt>
<rscale>  0 0.20921494E+04</rscale>
<asrwt>0</asrwt>
<pdfrwt beam="1">  1        2 0.50991200E+00 0.20921494E+04</pdfrwt>
<pdfrwt beam="2">  1       -2 0.50792953E-01 0.20921494E+04</pdfrwt>
<totfact> 0.36936728E+00</totfact>
</mgrwt>
</event>
<event>
 6    1  0.2047711E-005  0.9540497E+03  0.7818608E-02  0.9360430E-01
          2   -1    0    0  501    0  0.00000000000E+00  0.00000000000E+00  0.61626049753E+03  0.61626049753E+03  0.00000000000E+00 0.  1.
         -2   -1    0    0    0  501 -0.00000000000E+00 -0.00000000000E+00 -0.36924763184E+03  0.36924763184E+03  0.00000000000E+00 0. -1.
         23    2    1    2    0    0  0.42237343136E+03 -0.18333602837E+03  0.15124975348E+02  0.46996627025E+03  0.92887649741E+02 0.  0.
         13    1    3    3    0    0  0.26416861262E+03 -0.65277826102E+02  0.15685689254E+02  0.27256612285E+03  0.00000000000E+00 0.  1.
        -13    1    3    3    0    0  0.15820481874E+03 -0.11805820227E+03 -0.56071390620E+00  0.19740014740E+03  0.00000000000E+00 0. -1.
         22    1    1    2    0    0 -0.42237343136E+03  0.18333602837E+03  0.23188789034E+03  0.51554185912E+03  0.00000000000E+00 0. -1.
<mgrwt>
<rscale>  0 0.95404975E+03</rscale>
<asrwt>0</asrwt>
<pdfrwt beam="1">  1        2 0.94809307E-01 0.95404975E+03</pdfrwt>
<pdfrwt beam="2">  1       -2 0.56807328E-01 0.95404975E+03</pdfrwt>
<totfact> 0.13968164E+02</totfact>
</mgrwt>
</event>
<event>
 6    1  0.2047711E-005  0.2565454E+04  0.7818608E-02  0.8380031E-01
          2   -1    0    0  501    0  0.00000000000E+00  0.00000000000E+00  0.34741722256E+04  0.34741722256E+04  0.00000000000E+00 0. -1.
         -2   -1    0    0    0  501 -0.00000000000E+00 -0.00000000000E+00 -0.47360606100E+03  0.47360606100E+03  0.00000000000E+00 0.  1.
         23    2    1    2    0    0 -0.42640255198E+03 -0.56261191325E+03  0.31466716804E+04  0.32268773760E+04  0.11332975773E+03 0.  0.
         13    1    3    3    0    0 -0.18820470132E+03 -0.16927470656E+03  0.12354536184E+04  0.12611187808E+04  0.00000000000E+00 0.  1.
        -13    1    3    3    0    0 -0.23819785066E+03 -0.39333720669E+03  0.19112180620E+04  0.19657585952E+04  0.00000000000E+00 0. -1.
         22    1    1    2    0    0  0.42640255198E+03  0.56261191325E+03 -0.14610551578E+03  0.72090091067E+03  0.00000000000E+00 0.  1.
<mgrwt>
<rscale>  0 0.25654544E+04</rscale>
<asrwt>0</asrwt>
<pdfrwt beam="1">  1        2 0.53448802E+00 0.25654544E+04</pdfrwt>
<pdfrwt beam="2">  1       -2 0.72862473E-01 0.25654544E+04</pdfrwt>
<totfact> 0.12808070E+00</totfact>
</mgrwt>
</event>
<event>
 6    1  0.2047711E-005  0.2617555E+04  0.7818608E-02  0.8362262E-01
         -2   -1    0    0    0  501 -0.00000000000E+00  0.00000000000E+00  0.76070826596E+03  0.76070826596E+03  0.00000000000E+00 0.  1.
          2   -1    0    0  501    0  0.00000000000E+00 -0.00000000000E+00 -0.22517155793E+04  0.22517155793E+04  0.00000000000E+00 0. -1.
         23    2    1    2    0    0 -0.74173184287E+03  0.17698704659E+03  0.47752717450E+03  0.90135336533E+03  0.53992086723E+02 0.  0.
         13    1    3    3    0    0 -0.14950425737E+03  0.24415687500E+02  0.11721984380E+03  0.19154148519E+03  0.00000000000E+00 0. -1.
        -13    1    3    3    0    0 -0.59222758550E+03  0.15257135909E+03  0.36030733070E+03  0.70981188015E+03  0.00000000000E+00 0.  1.
         22    1    1    2    0    0  0.74173184287E+03 -0.17698704659E+03 -0.19685344879E+04  0.21110704800E+04  0.00000000000E+00 0. -1.
<mgrwt>
<rscale>  0 0.26175551E+04</rscale>
<asrwt>0</asrwt>
<pdfrwt beam="1">  1        2 0.34641778E+00 0.26175551E+04</pdfrwt>
<pdfrwt beam="2">  1       -2 0.11703204E+00 0.26175551E+04</pdfrwt>
<totfact> 0.24088758E+00</totfact>
</mgrwt>
</event>
<event>
 6    1  0.2047711E-005  0.2476086E+04  0.7818608E-02  0.8411555E-01
          1   -1    0    0  501    0  0.00000000000E+00  0.00000000000E+00  0.30964955870E+04  0.30964955870E+04  0.00000000000E+00 0. -1.
         -1   -1    0    0    0  501 -0.00000000000E+00 -0.00000000000E+00 -0.49499514126E+03  0.49499514126E+03  0.00000000000E+00 0.  1.
         23    2    1    2    0    0 -0.46197843127E+03  0.52261056400E+03 -0.17760046473E+03  0.72619009077E+03  0.96250975539E+02 0.  0.
         13    1    3    3    0    0 -0.61134585087E+02  0.93052160768E+02 -0.61845482041E+02  0.12736171232E+03  0.00000000000E+00 0.  1.
        -13    1    3    3    0    0 -0.40084384619E+03  0.42955840324E+03 -0.11575498269E+03  0.59882837845E+03  0.00000000000E+00 0. -1.
         22    1    1    2    0    0  0.46197843127E+03 -0.52261056400E+03  0.27791009105E+04  0.28653006375E+04  0.00000000000E+00 0. -1.
<mgrwt>
<rscale>  0 0.24760858E+04</rscale>
<asrwt>0</asrwt>
<pdfrwt beam="1">  1        1 0.47638392E+00 0.24760858E+04</pdfrwt>
<pdfrwt beam="2">  1       -1 0.76153101E-01 0.24760858E+04</pdfrwt>
<totfact> 0.78273006E-01</totfact>
</mgrwt>
</event>
<event>
 6    1  0.2047711E-005  0.1515870E+04  0.7818608E-02  0.8873967E-01
          2   -1    0    0  501    0  0.00000000000E+00  0.00000000000E+00  0.27325177514E+03  0.27325177514E+03  0.00000000000E+00 0. -1.
         -2   -1    0    0    0  501 -0.00000000000E+00 -0.00000000000E+00 -0.21023311065E+04  0.21023311065E+04  0.00000000000E+00 0.  1.
         23    2    1    2    0    0  0.22288036977E+03  0.19962169245E+02 -0.20482562867E+04  0.20623534367E+04  0.88734066421E+02 0.  0.
         13    1    3    3    0    0  0.94417549490E+02 -0.20266256506E+02 -0.58485535587E+03  0.59277414088E+03  0.00000000000E+00 0. -1.
        -13    1    3    3    0    0  0.12846282028E+03  0.40228425751E+02 -0.14634009308E+04  0.14695792958E+04  0.00000000000E+00 0.  1.
         22    1    1    2    0    0 -0.22288036977E+03 -0.19962169245E+02  0.21917695531E+03  0.31322944493E+03  0.00000000000E+00 0. -1.
<mgrwt>
<rscale>  0 0.15158703E+04</rscale>
<asrwt>0</asrwt>
<pdfrwt beam="1">  1        2 0.42038735E-01 0.15158703E+04</pdfrwt>
<pdfrwt beam="2">  1       -2 0.32343555E+00 0.15158703E+04</pdfrwt>
<totfact> 0.26950657E+00</totfact>
</mgrwt>
</event>
<event>
 6    1  0.2047711E-005  0.1302322E+04  0.7818608E-02  0.9027726E-01
         -1   -1    0    0    0  501 -0.00000000000E+00  0.00000000000E+00  0.87886544412E+02  0.87886544412E+02  0.00000000000E+00 0.  1.
          1   -1    0    0  501    0  0.00000000000E+00 -0.00000000000E+00 -0.48245200296E+04  0.48245200296E+04  0.00000000000E+00 0. -1.
         23    2    1    2    0    0 -0.23845553739E+03 -0.30277629268E+03 -0.43447423573E+04  0.43627583384E+04  0.91321639802E+02 0.  0.
         13    1    3    3    0    0 -0.13014068977E+03 -0.16635956824E+03 -0.18692920020E+04  0.18811870438E+04  0.00000000000E+00 0. -1.
        -13    1    3    3    0    0 -0.10831484762E+03 -0.13641672444E+03 -0.24754503553E+04  0.24815712946E+04  0.00000000000E+00 0.  1.
         22    1    1    2    0    0  0.23845553739E+03  0.30277629268E+03 -0.39189112792E+03  0.54964823557E+03  0.00000000000E+00 0.  1.
<mgrwt>
<rscale>  0 0.13023216E+04</rscale>
<asrwt>0</asrwt>
<pdfrwt beam="1">  1        1 0.74223391E+00 0.13023216E+04</pdfrwt>
<pdfrwt beam="2">  1       -1 0.13521006E-01 0.13023216E+04</pdfrwt>
<totfact> 0.57241898E-01</totfact>
</mgrwt>
</event>
<event>
 6    1  0.2047711E-005  0.1194994E+04  0.7818608E-02  0.9117249E-01
          2   -1    0    0  501    0  0.00000000000E+00  0.00000000000E+00  0.97787041131E+03  0.97787041131E+03  0.00000000000E+00 0. -1.
         -2   -1    0    0    0  501 -0.00000000000E+00 -0.00000000000E+00 -0.36508191168E+03  0.36508191168E+03  0.00000000000E+00 0.  1.
         23    2    1    2    0    0 -0.45718026186E+03  0.23214184781E+03  0.64479573254E+03  0.82921299971E+03  0.94493559823E+02 0.  0.
         13    1    3    3    0    0 -0.10618370733E+03  0.93002355532E+02  0.13972205938E+03  0.19861186197E+03  0.00000000000E+00 0.  1.
        -13    1    3    3    0    0 -0.35099655452E+03  0.13913949228E+03  0.50507367316E+03  0.63060113774E+03  0.00000000000E+00 0. -1.
         22    1    1    2    0    0  0.45718026186E+03 -0.23214184781E+03 -0.32007232904E+02  0.51373932329E+03  0.00000000000E+00 0.  1.
<mgrwt>
<rscale>  0 0.11949942E+04</rscale>
<asrwt>0</asrwt>
<pdfrwt beam="1">  1        2 0.15044160E+00 0.11949942E+04</pdfrwt>
<pdfrwt beam="2">  1       -2 0.56166448E-01 0.11949942E+04</pdfrwt>
<totfact> 0.76469421E+01</totfact>
</mgrwt>
</event>
<event>
 6    1  0.2047711E-005  0.1999487E+04  0.7818608E-02  0.8606861E-01
          1   -1    0    0  501    0  0.00000000000E+00  0.00000000000E+00  0.13308793167E+04  0.13308793167E+04  0.00000000000E+00 0. -1.
         -1   -1    0    0    0  501 -0.00000000000E+00 -0.00000000000E+00 -0.75099737345E+03  0.75099737345E+03  0.00000000000E+00 0.  1.
         23    2    1    2    0    0  0.19807129241E+03  0.91533193408E+03  0.64873713745E+03  0.11428315240E+04  0.90217693677E+02 0.  0.
         11    1    3    3    0    0 -0.41373284289E+01  0.12160657671E+03  0.89498678985E+02  0.15104731221E+03  0.00000000000E+00 0. -1.
        -11    1    3    3    0    0  0.20220862084E+03  0.79372535737E+03  0.55923845846E+03  0.99178421176E+03  0.00000000000E+00 0.  1.
         22    1    1    2    0    0 -0.19807129241E+03 -0.91533193408E+03 -0.68855194169E+02  0.93904516621E+03  0.00000000000E+00 0.  1.
<mgrwt>
<rscale>  0 0.19994868E+04</rscale>
<asrwt>0</asrwt>
<pdfrwt beam="1">  1        1 0.20475066E+00 0.19994868E+04</pdfrwt>
<pdfrwt beam="2">  1       -1 0.11553806E+00 0.19994868E+04</pdfrwt>
<totfact> 0.54141800E+00</totfact>
</mgrwt>
</event>
<event>
 6    1  0.2047711E-005  0.3837584E+04  0.7818608E-02  0.8038137E-01
         -2   -1    0    0    0  501 -0.00000000000E+00  0.00000000000E+00  0.19776655494E+04  0.19776655494E+04  0.00000000000E+00 0.  1.
          2   -1    0    0  501    0  0.00000000000E+00 -0.00000000000E+00 -0.18616710097E+04  0.18616710097E+04  0.00000000000E+00 0. -1.
         23    2    1    2    0    0 -0.77435595432E+03 -0.17358458576E+04 -0.19866762977E+03  0.19127332615E+04  0.79320345039E+02 0.  0.
         11    1    3    3    0    0 -0.43664638493E+03 -0.98914346463E+03 -0.15225696182E+03  0.10919006555E+04  0.00000000000E+00 0. -1.
        -11    1    3    3    0    0 -0.33770956939E+03 -0.74670239300E+03 -0.46410667957E+02  0.82083260600E+03  0.00000000000E+00 0.  1.
         22    1    1    2    0    0  0.77435595432E+03  0.17358458576E+04  0.31466216946E+03  0.19266032976E+04  0.00000000000E+00 0. -1.
<mgrwt>
<rscale>  0 0.38375839E+04</rscale>
<asrwt>0</asrwt>
<pdfrwt beam="1">  1        2 0.28641093E+00 0.38375839E+04</pdfrwt>
<pdfrwt beam="2">  1       -2 0.30425624E+00 0.38375839E+04</pdfrwt>
<totfact> 0.19079090E-01</totfact>
</mgrwt>
</event>
<event>
 6    1  0.2047711E-005  0.8097441E+03  0.7818608E-02  0.9546019E-01
          2   -1    0    0  501    0  0.00000000000E+00  0.00000000000E+00  0.15471056089E+04  0.15471056089E+04  0.00000000000E+00 0. -1.
         -2   -1    0    0    0  501 -0.00000000000E+00 -0.00000000000E+00 -0.10595359000E+03  0.10595359000E+03  0.00000000000E+00 0.  1.
         23    2    1    2    0    0 -0.36336591808E+03 -0.13321531108E+03  0.52510859612E+03  0.65861630867E+03  0.90858652810E+02 0.  0.
         13    1    3    3    0    0 -0.27944065087E+03 -0.13779970265E+03  0.43858676114E+03  0.53799087581E+03  0.00000000000E+00 0.  1.
        -13    1    3    3    0    0 -0.83925267218E+02  0.45843915691E+01  0.86521834987E+02  0.12062543286E+03  0.00000000000E+00 0. -1.
         22    1    1    2    0    0  0.36336591808E+03  0.13321531108E+03  0.91604342282E+03  0.99444289028E+03  0.00000000000E+00 0. -1.
<mgrwt>
<rscale>  0 0.80974414E+03</rscale>
<asrwt>0</asrwt>
<pdfrwt beam="1">  1        2 0.23801623E+00 0.80974414E+03</pdfrwt>
<pdfrwt beam="2">  1       -2 0.16300553E-01 0.80974414E+03</pdfrwt>
<totfact> 0.36676836E+02</totfact>
</mgrwt>
</event>
<event>
 6    1  0.2047711E-005  0.2252052E+04  0.7818608E-02  0.8497070E-01
          2   -1    0    0  501    0  0.00000000000E+00  0.00000000000E+00  0.24154243245E+04  0.24154243245E+04  0.00000000000E+00 0. -1.
         -2   -1    0    0    0  501 -0.00000000000E+00 -0.00000000000E+00 -0.52493223399E+03  0.52493223399E+03  0.00000000000E+00 0.  1.
         23    2    1    2    0    0 -0.10055497565E+04 -0.49202780382E+03  0.10792223245E+04  0.15578297754E+04  0.94292687959E+02 0.  0.
         11    1    3    3    0    0 -0.45190517185E+03 -0.21409114671E+03  0.41802783948E+03  0.65176727291E+03  0.00000000000E+00 0.  1.
        -11    1    3    3    0    0 -0.55364458467E+03 -0.27793665711E+03  0.66119448502E+03  0.90606250254E+03  0.00000000000E+00 0. -1.
         22    1    1    2    0    0  0.10055497565E+04  0.49202780382E+03  0.81126976598E+03  0.13825267830E+04  0.00000000000E+00 0.  1.
<mgrwt>
<rscale>  0 0.22520516E+04</rscale>
<asrwt>0</asrwt>
<pdfrwt beam="1">  1        2 0.37160373E+00 0.22520516E+04</pdfrwt>
<pdfrwt beam="2">  1       -2 0.80758807E-01 0.22520516E+04</pdfrwt>
<totfact> 0.47973186E+00</totfact>
</mgrwt>
</event>
<event>
 6    1  0.2047711E-005  0.2677773E+04  0.7818608E-02  0.8342253E-01
         -2   -1    0    0    0  501 -0.00000000000E+00  0.00000000000E+00  0.35117995929E+03  0.35117995929E+03  0.00000000000E+00 0.  1.
          2   -1    0    0  501    0  0.00000000000E+00 -0.00000000000E+00 -0.51045534679E+04  0.51045534679E+04  0.00000000000E+00 0. -1.
         23    2    1    2    0    0 -0.71010968666E+03 -0.10745722244E+04 -0.31126123427E+04  0.33698143405E+04  0.91279027421E+02 0.  0.
         13    1    3    3    0    0 -0.55061735415E+03 -0.84135009050E+03 -0.23275459171E+04  0.25354525122E+04  0.00000000000E+00 0. -1.
        -13    1    3    3    0    0 -0.15949233251E+03 -0.23322213394E+03 -0.78506642561E+03  0.83436182829E+03  0.00000000000E+00 0.  1.
         22    1    1    2    0    0  0.71010968666E+03  0.10745722244E+04 -0.16407611659E+04  0.20859190866E+04  0.00000000000E+00 0.  1.
<mgrwt>
<rscale>  0 0.26777729E+04</rscale>
<asrwt>0</asrwt>
<pdfrwt beam="1">  1        2 0.78531583E+00 0.26777729E+04</pdfrwt>
<pdfrwt beam="2">  1       -2 0.54027692E-01 0.26777729E+04</pdfrwt>
<totfact> 0.71503372E-02</totfact>
</mgrwt>
</event>
<event>
 6    1  0.2047711E-005  0.4309403E+04  0.7818608E-02  0.7944882E-01
          2   -1    0    0  501    0  0.00000000000E+00  0.00000000000E+00  0.25853705744E+04  0.25853705744E+04  0.00000000000E+00 0.  1.
         -2   -1    0    0    0  501 -0.00000000000E+00 -0.00000000000E+00 -0.17957731498E+04  0.17957731498E+04  0.00000000000E+00 0. -1.
         23    2    1    2    0    0 -0.34501414888E+03  0.99675507598E+03  0.23039806147E+04  0.25356324426E+04  0.92464947029E+02 0.  0.
         13    1    3    3    0    0 -0.14179281669E+02  0.86778084634E+02  0.14685613449E+03  0.17116720550E+03  0.00000000000E+00 0. -1.
        -13    1    3    3    0    0 -0.33083486721E+03  0.90997699134E+03  0.21571244802E+04  0.23644652371E+04  0.00000000000E+00 0.  1.
         22    1    1    2    0    0  0.34501414888E+03 -0.99675507598E+03 -0.15143831901E+04  0.18455112817E+04  0.00000000000E+00 0. -1.
<mgrwt>
<rscale>  0 0.43094032E+04</rscale>
<asrwt>0</asrwt>
<pdfrwt beam="1">  1        2 0.39774932E+00 0.43094032E+04</pdfrwt>
<pdfrwt beam="2">  1       -2 0.27627279E+00 0.43094032E+04</pdfrwt>
<totfact> 0.10598380E-01</totfact>
</mgrwt>
</event>
<event>
 6    1  0.2047711E-005  0.4672616E+04  0.7818608E-02  0.7881095E-01
          2   -1    0    0  501    0  0.00000000000E+00  0.00000000000E+00  0.25251698761E+04  0.25251698761E+04  0.00000000000E+00 0. -1.
         -2   -1    0    0    0  501 -0.00000000000E+00 -0.00000000000E+00 -0.21615713728E+04  0.21615713728E+04  0.00000000000E+00 0.  1.
         23    2    1    2    0    0 -0.38178822032E+03  0.63150370965E+03 -0.20405064419E+04  0.21719291748E+04  0.95134746976E+02 0.  0.
         11    1    3    3    0    0 -0.34528223333E+03  0.58906183376E+03 -0.19431774333E+04  0.20596485627E+04  0.00000000000E+00 0. -1.
        -11    1    3    3    0    0 -0.36505986994E+02  0.42441875895E+02 -0.97329008639E+02  0.11228061203E+03  0.00000000000E+00 0.  1.
         22    1    1    2    0    0  0.38178822032E+03 -0.63150370965E+03  0.24041049453E+04  0.25148120741E+04  0.00000000000E+00 0. -1.
<mgrwt>
<rscale>  0 0.46726159E+04</rscale>
<asrwt>0</asrwt>
<pdfrwt beam="1">  1        2 0.38848767E+00 0.46726159E+04</pdfrwt>
<pdfrwt beam="2">  1       -2 0.33254944E+00 0.46726159E+04</pdfrwt>
<totfact> 0.50336056E-02</totfact>
</mgrwt>
</event>
<event>
 6    1  0.2047711E-005  0.2468803E+04  0.7818608E-02  0.8414185E-01
         -1   -1    0    0    0  501 -0.00000000000E+00  0.00000000000E+00  0.11815553309E+04  0.11815553309E+04  0.00000000000E+00 0.  1.
          1   -1    0    0  501    0  0.00000000000E+00 -0.00000000000E+00 -0.12896111035E+04  0.12896111035E+04  0.00000000000E+00 0. -1.
         23    2    1    2    0    0  0.20828328645E+03 -0.19458249896E+03  0.11463260614E+04  0.11848079844E+04  0.91990458791E+02 0.  0.
         11    1    3    3    0    0  0.79142406467E+02 -0.93059911712E+02  0.66753615388E+03  0.67862226932E+03  0.00000000000E+00 0.  1.
        -11    1    3    3    0    0  0.12914087998E+03 -0.10152258725E+03  0.47878990756E+03  0.50618571511E+03  0.00000000000E+00 0. -1.
         22    1    1    2    0    0 -0.20828328645E+03  0.19458249896E+03 -0.12543818340E+04  0.12863584500E+04  0.00000000000E+00 0. -1.
<mgrwt>
<rscale>  0 0.24688028E+04</rscale>
<asrwt>0</asrwt>
<pdfrwt beam="1">  1        1 0.19840171E+00 0.24688028E+04</pdfrwt>
<pdfrwt beam="2">  1       -1 0.18177774E+00 0.24688028E+04</pdfrwt>
<totfact> 0.16566412E+00</totfact>
</mgrwt>
</event>
<event>
 6    1  0.2047711E-005  0.1295478E+04  0.7818608E-02  0.9033159E-01
          2   -1    0    0  501    0  0.00000000000E+00  0.00000000000E+00  0.10824706838E+04  0.10824706838E+04  0.00000000000E+00 0. -1.
         -2   -1    0    0    0  501 -0.00000000000E+00 -0.00000000000E+00 -0.38760005852E+03  0.38760005852E+03  0.00000000000E+00 0.  1.
         23    2    1    2    0    0  0.33195195199E+03 -0.14658841076E+03 -0.25528207150E+03  0.45298155853E+03  0.91340548202E+02 0.  0.
         11    1    3    3    0    0  0.18018857258E+03 -0.70284808298E+02 -0.81228726245E+02  0.20977602802E+03  0.00000000000E+00 0. -1.
        -11    1    3    3    0    0  0.15176337942E+03 -0.76303602462E+02 -0.17405334525E+03  0.24320553052E+03  0.00000000000E+00 0.  1.
         22    1    1    2    0    0 -0.33195195199E+03  0.14658841076E+03  0.95015269679E+03  0.10170891838E+04  0.00000000000E+00 0. -1.
<mgrwt>
<rscale>  0 0.12954778E+04</rscale>
<asrwt>0</asrwt>
<pdfrwt beam="1">  1        2 0.16653395E+00 0.12954778E+04</pdfrwt>
<pdfrwt beam="2">  1       -2 0.59630779E-01 0.12954778E+04</pdfrwt>
<totfact> 0.57473944E+01</totfact>
</mgrwt>
</event>
<event>
 6    1  0.2047711E-005  0.4979671E+04  0.7818608E-02  0.7831651E-01
          2   -1    0    0  501    0  0.00000000000E+00  0.00000000000E+00  0.17025443659E+04  0.17025443659E+04  0.00000000000E+00 0. -1.
         -2   -1    0    0    0  501 -0.00000000000E+00 -0.00000000000E+00 -0.36411855743E+04  0.36411855743E+04  0.00000000000E+00 0.  1.
         23    2    1    2    0    0  0.17520826369E+04  0.11823334824E+04  0.44075749317E+03  0.21610825812E+04  0.91130262679E+02 0.  0.
         11    1    3    3    0    0  0.10376704009E+04  0.66259911179E+03  0.28962852567E+03  0.12647854074E+04  0.00000000000E+00 0.  1.
        -11    1    3    3    0    0  0.71441223601E+03  0.51973437065E+03  0.15112896750E+03  0.89629717383E+03  0.00000000000E+00 0. -1.
         22    1    1    2    0    0 -0.17520826369E+04 -0.11823334824E+04 -0.23793987015E+04  0.31826473589E+04  0.00000000000E+00 0.  1.
<mgrwt>
<rscale>  0 0.49796707E+04</rscale>
<asrwt>0</asrwt>
<pdfrwt beam="1">  1        2 0.26192990E+00 0.49796707E+04</pdfrwt>
<pdfrwt beam="2">  1       -2 0.56018239E+00 0.49796707E+04</pdfrwt>
<totfact> 0.54655405E-03</totfact>
</mgrwt>
</event>
<event>
 6    1  0.2047711E-005  0.4105143E+04  0.7818608E-02  0.7983665E-01
         -2   -1    0    0    0  501 -0.00000000000E+00  0.00000000000E+00  0.17939702371E+04  0.17939702371E+04  0.00000000000E+00 0.  1.
          2   -1    0    0  501    0  0.00000000000E+00 -0.00000000000E+00 -0.23484506299E+04  0.23484506299E+04  0.00000000000E+00 0. -1.
         23    2    1    2    0    0  0.21637392836E+03 -0.19442982561E+04  0.34690047988E+03  0.19884475934E+04  0.80439438053E+02 0.  0.
         13    1    3    3    0    0  0.95642133229E+02 -0.11642091266E+04  0.18616688013E+03  0.11828729498E+04  0.00000000000E+00 0.  1.
        -13    1    3    3    0    0  0.12073179513E+03 -0.78008912954E+03  0.16073359975E+03  0.80557464364E+03  0.00000000000E+00 0. -1.
         22    1    1    2    0    0 -0.21637392836E+03  0.19442982561E+04 -0.90138087267E+03  0.21539732736E+04  0.00000000000E+00 0. -1.
<mgrwt>
<rscale>  0 0.41051434E+04</rscale>
<asrwt>0</asrwt>
<pdfrwt beam="1">  1        2 0.36130010E+00 0.41051434E+04</pdfrwt>
<pdfrwt beam="2">  1       -2 0.27599542E+00 0.41051434E+04</pdfrwt>
<totfact> 0.14827579E-01</totfact>
</mgrwt>
</event>
<event>
 6    1  0.2047711E-005  0.2064181E+04  0.7818608E-02  0.8577188E-01
         -2   -1    0    0    0  501 -0.00000000000E+00  0.00000000000E+00  0.15263896336E+04  0.15263896336E+04  0.00000000000E+00 0.  1.
          2   -1    0    0  501    0  0.00000000000E+00 -0.00000000000E+00 -0.69786321380E+03  0.69786321380E+03  0.00000000000E+00 0. -1.
         23    2    1    2    0    0 -0.68140108960E+01  0.89629165734E+03 -0.13171095931E+03  0.91069242245E+03  0.92885659506E+02 0.  0.
         13    1    3    3    0    0  0.15581403613E+02  0.11624370180E+03  0.94309838665E+01  0.11766189614E+03  0.00000000000E+00 0.  1.
        -13    1    3    3    0    0 -0.22395414509E+02  0.78004795554E+03 -0.14114194318E+03  0.79303052631E+03  0.00000000000E+00 0. -1.
         22    1    1    2    0    0  0.68140108960E+01 -0.89629165734E+03  0.96023737909E+03  0.13135604249E+04  0.00000000000E+00 0.  1.
<mgrwt>
<rscale>  0 0.20641814E+04</rscale>
<asrwt>0</asrwt>
<pdfrwt beam="1">  1        2 0.10736357E+00 0.20641814E+04</pdfrwt>
<pdfrwt beam="2">  1       -2 0.23482917E+00 0.20641814E+04</pdfrwt>
<totfact> 0.30310708E+00</totfact>
</mgrwt>
</event>
<event>
 6    1  0.2389924E-005  0.4386064E+04  0.7818608E-02  0.7930893E-01
         -1   -1    0    0    0  501 -0.00000000000E+00  0.00000000000E+00  0.16508294882E+04  0.16508294882E+04  0.00000000000E+00 0.  1.
          1   -1    0    0  501    0  0.00000000000E+00 -0.00000000000E+00 -0.29133165503E+04  0.29133165503E+04  0.00000000000E+00 0. -1.
         23    2    1    2    0    0 -0.11634819142E+04  0.13424165238E+04  0.70483282363E+03  0.19134631414E+04  0.93699499573E+02 0.  0.
         13    1    3    3    0    0 -0.75798314634E+03  0.93991440504E+03  0.48811323153E+03  0.13023947427E+04  0.00000000000E+00 0.  1.
        -13    1    3    3    0    0 -0.40549876781E+03  0.40250211878E+03  0.21671959209E+03  0.61106839872E+03  0.00000000000E+00 0. -1.
         22    1    1    2    0    0  0.11634819142E+04 -0.13424165238E+04 -0.19673198857E+04  0.26506828971E+04  0.00000000000E+00 0. -1.
<mgrwt>
<rscale>  0 0.43860638E+04</rscale>
<asrwt>0</asrwt>
<pdfrwt beam="1">  1        1 0.44820255E+00 0.43860638E+04</pdfrwt>
<pdfrwt beam="2">  1       -1 0.25397377E+00 0.43860638E+04</pdfrwt>
<totfact> 0.34412266E-02</totfact>
</mgrwt>
</event>
<event>
 6    1  0.2047711E-005  0.5884985E+03  0.7818608E-02  0.9929560E-01
          2   -1    0    0  501    0  0.00000000000E+00  0.00000000000E+00  0.10527435790E+04  0.10527435790E+04  0.00000000000E+00 0. -1.
         -2   -1    0    0    0  501 -0.00000000000E+00 -0.00000000000E+00 -0.82244739180E+02  0.82244739180E+02  0.00000000000E+00 0.  1.
         23    2    1    2    0    0  0.65412747412E+02 -0.50165904954E+02  0.10274036246E+04  0.10348204587E+04  0.92193971451E+02 0.  0.
         13    1    3    3    0    0  0.52891713729E+02 -0.75548914962E+02  0.87173668276E+03  0.87660140087E+03  0.00000000000E+00 0. -1.
        -13    1    3    3    0    0  0.12521033683E+02  0.25383010007E+02  0.15566694181E+03  0.15821905781E+03  0.00000000000E+00 0.  1.
         22    1    1    2    0    0 -0.65412747412E+02  0.50165904954E+02 -0.56904784769E+02  0.10016785948E+03  0.00000000000E+00 0.  1.
<mgrwt>
<rscale>  0 0.58849850E+03</rscale>
<asrwt>0</asrwt>
<pdfrwt beam="1">  1        2 0.16196054E+00 0.58849850E+03</pdfrwt>
<pdfrwt beam="2">  1       -2 0.12653038E-01 0.58849850E+03</pdfrwt>
<totfact> 0.10964863E+03</totfact>
</mgrwt>
</event>
<event>
 6    1  0.2047711E-005  0.3145421E+04  0.7818608E-02  0.8203382E-01
         -2   -1    0    0    0  501 -0.00000000000E+00  0.00000000000E+00  0.93068394120E+03  0.93068394120E+03  0.00000000000E+00 0.  1.
          2   -1    0    0  501    0  0.00000000000E+00 -0.00000000000E+00 -0.26576353513E+04  0.26576353513E+04  0.00000000000E+00 0. -1.
         23    2    1    2    0    0  0.11803154735E+04 -0.55798407348E+03 -0.18617377936E+04  0.22758185449E+04  0.93763501986E+02 0.  0.
         11    1    3    3    0    0  0.82252999021E+03 -0.39033417425E+03 -0.12215244669E+04  0.15234954465E+04  0.00000000000E+00 0. -1.
        -11    1    3    3    0    0  0.35778548329E+03 -0.16764989923E+03 -0.64021332667E+03  0.75232309842E+03  0.00000000000E+00 0.  1.
         22    1    1    2    0    0 -0.11803154735E+04  0.55798407348E+03  0.13478638342E+03  0.13125007476E+04  0.00000000000E+00 0.  1.
<mgrwt>
<rscale>  0 0.31454211E+04</rscale>
<asrwt>0</asrwt>
<pdfrwt beam="1">  1        2 0.40886697E+00 0.31454211E+04</pdfrwt>
<pdfrwt beam="2">  1       -2 0.14318215E+00 0.31454211E+04</pdfrwt>
<totfact> 0.80591802E-01</totfact>
</mgrwt>
</event>
<event>
 6    1  0.2047711E-005  0.1780705E+04  0.7818608E-02  0.8716628E-01
         -2   -1    0    0    0  501 -0.00000000000E+00  0.00000000000E+00  0.52219031810E+03  0.52219031810E+03  0.00000000000E+00 0.  1.
          2   -1    0    0  501    0  0.00000000000E+00 -0.00000000000E+00 -0.15180813781E+04  0.15180813781E+04  0.00000000000E+00 0. -1.
         23    2    1    2    0    0  0.41339193414E+03  0.75423298267E+03 -0.24606291084E+03  0.89921843863E+03  0.91030549407E+02 0.  0.
         13    1    3    3    0    0  0.19999170136E+03  0.34544233343E+03 -0.16045050361E+03  0.43019931479E+03  0.00000000000E+00 0.  1.
        -13    1    3    3    0    0  0.21340023277E+03  0.40879064924E+03 -0.85612407234E+02  0.46901912384E+03  0.00000000000E+00 0. -1.
         22    1    1    2    0    0 -0.41339193414E+03 -0.75423298267E+03 -0.74982814918E+03  0.11410532576E+04  0.00000000000E+00 0.  1.
<mgrwt>
<rscale>  0 0.17807048E+04</rscale>
<asrwt>0</asrwt>
<pdfrwt beam="1">  1        2 0.23355098E+00 0.17807048E+04</pdfrwt>
<pdfrwt beam="2">  1       -2 0.80336973E-01 0.17807048E+04</pdfrwt>
<totfact> 0.16052237E+01</totfact>
</mgrwt>
</event>
<event>
 6    1  0.2047711E-005  0.8275384E+03  0.7818608E-02  0.9520990E-01
         -2   -1    0    0    0  501 -0.00000000000E+00  0.00000000000E+00  0.10254128260E+03  0.10254128260E+03  0.00000000000E+00 0.  1.
          2   -1    0    0  501    0  0.00000000000E+00 -0.00000000000E+00 -0.16696198456E+04  0.16696198456E+04  0.00000000000E+00 0. -1.
         23    2    1    2    0    0  0.94689984309E+02  0.18518118041E+03 -0.15464654648E+04  0.15631559548E+04  0.92966889671E+02 0.  0.
         13    1    3    3    0    0  0.10135128050E+03  0.10915374338E+03 -0.11274754629E+04  0.11372719733E+04  0.00000000000E+00 0. -1.
        -13    1    3    3    0    0 -0.66612961903E+01  0.76027437028E+02 -0.41899000184E+03  0.42588398149E+03  0.00000000000E+00 0.  1.
         22    1    1    2    0    0 -0.94689984309E+02 -0.18518118041E+03 -0.20613098257E+02  0.20900517344E+03  0.00000000000E+00 0.  1.
<mgrwt>
<rscale>  0 0.82753842E+03</rscale>
<asrwt>0</asrwt>
<pdfrwt beam="1">  1        2 0.25686459E+00 0.82753842E+03</pdfrwt>
<pdfrwt beam="2">  1       -2 0.15775582E-01 0.82753842E+03</pdfrwt>
<totfact> 0.33151123E+02</totfact>
</mgrwt>
</event>
<event>
 6    1  0.2047711E-005  0.2504369E+04  0.7818608E-02  0.8401431E-01
          2   -1    0    0  501    0  0.00000000000E+00  0.00000000000E+00  0.15251764124E+04  0.15251764124E+04  0.00000000000E+00 0. -1.
         -2   -1    0    0    0  501 -0.00000000000E+00 -0.00000000000E+00 -0.10280555265E+04  0.10280555265E+04  0.00000000000E+00 0.  1.
         23    2    1    2    0    0 -0.55433157456E+03 -0.59456172217E+03 -0.71978390143E+03  0.10897961194E+04  0.93699419274E+02 0.  0.
         13    1    3    3    0    0 -0.48945645043E+03 -0.47639008927E+03 -0.58756628974E+03  0.90097129747E+03  0.00000000000E+00 0. -1.
        -13    1    3    3    0    0 -0.64875124130E+02 -0.11817163290E+03 -0.13221761169E+03  0.18882482197E+03  0.00000000000E+00 0.  1.
         22    1    1    2    0    0  0.55433157456E+03  0.59456172217E+03  0.12169047874E+04  0.14634358195E+04  0.00000000000E+00 0. -1.
<mgrwt>
<rscale>  0 0.25043690E+04</rscale>
<asrwt>0</asrwt>
<pdfrwt beam="1">  1        2 0.23464252E+00 0.25043690E+04</pdfrwt>
<pdfrwt beam="2">  1       -2 0.15816239E+00 0.25043690E+04</pdfrwt>
<totfact> 0.28474942E+00</totfact>
</mgrwt>
</event>
<event>
 6    1  0.2047711E-005  0.8711831E+03  0.7818608E-02  0.9462339E-01
         -2   -1    0    0    0  501 -0.00000000000E+00  0.00000000000E+00  0.22106337185E+03  0.22106337185E+03  0.00000000000E+00 0.  1.
          2   -1    0    0  501    0  0.00000000000E+00 -0.00000000000E+00 -0.85830586304E+03  0.85830586304E+03  0.00000000000E+00 0. -1.
         23    2    1    2    0    0  0.63065266495E+02 -0.34742445725E+03 -0.62800964856E+03  0.72614660436E+03  0.90618932950E+02 0.  0.
         11    1    3    3    0    0  0.14096146159E+02 -0.78029662848E+02 -0.75383777287E+02  0.10940769396E+03  0.00000000000E+00 0.  1.
        -11    1    3    3    0    0  0.48969120335E+02 -0.26939479440E+03 -0.55262587128E+03  0.61673891040E+03  0.00000000000E+00 0. -1.
         22    1    1    2    0    0 -0.63065266495E+02  0.34742445725E+03 -0.92328426229E+01  0.35322263052E+03  0.00000000000E+00 0.  1.
<mgrwt>
<rscale>  0 0.87118308E+03</rscale>
<asrwt>0</asrwt>
<pdfrwt beam="1">  1        2 0.13204705E+00 0.87118308E+03</pdfrwt>
<pdfrwt beam="2">  1       -2 0.34009750E-01 0.87118308E+03</pdfrwt>
<totfact> 0.25411943E+02</totfact>
</mgrwt>
</event>
<event>
 6    1  0.2047711E-005  0.3756702E+04  0.7818608E-02  0.8055511E-01
         -2   -1    0    0    0  501 -0.00000000000E+00  0.00000000000E+00  0.11917317346E+04  0.11917317346E+04  0.00000000000E+00 0.  1.
          2   -1    0    0  501    0  0.00000000000E+00 -0.00000000000E+00 -0.29605676360E+04  0.29605676360E+04  0.00000000000E+00 0. -1.
         23    2    1    2    0    0  0.13992153779E+04  0.80193273500E+03  0.17687640428E+03  0.16251080123E+04  0.93760354741E+02 0.  0.
         11    1    3    3    0    0  0.15531326863E+03  0.90199555900E+02 -0.98005027254E+01  0.17987279158E+03  0.00000000000E+00 0.  1.
        -11    1    3    3    0    0  0.12439021092E+04  0.71173317910E+03  0.18667690700E+03  0.14452352207E+04  0.00000000000E+00 0. -1.
         22    1    1    2    0    0 -0.13992153779E+04 -0.80193273500E+03 -0.19457123057E+04  0.25271913583E+04  0.00000000000E+00 0. -1.
<mgrwt>
<rscale>  0 0.37567020E+04</rscale>
<asrwt>0</asrwt>
<pdfrwt beam="1">  1        2 0.45547194E+00 0.37567020E+04</pdfrwt>
<pdfrwt beam="2">  1       -2 0.18334334E+00 0.37567020E+04</pdfrwt>
<totfact> 0.25485918E-01</totfact>
</mgrwt>
</event>
<event>
 6    1  0.2047711E-005  0.2247631E+04  0.7818608E-02  0.8498860E-01
         -2   -1    0    0    0  501 -0.00000000000E+00  0.00000000000E+00  0.13250205987E+04  0.13250205987E+04  0.00000000000E+00 0.  1.
          2   -1    0    0  501    0  0.00000000000E+00 -0.00000000000E+00 -0.95316352329E+03  0.95316352329E+03  0.00000000000E+00 0. -1.
         23    2    1    2    0    0 -0.86727536558E+02  0.43054060561E+03 -0.86024611634E+03  0.97014545522E+03  0.90950233225E+02 0.  0.
         13    1    3    3    0    0 -0.10364675322E+03  0.35050640993E+03 -0.67407431096E+03  0.76679434632E+03  0.00000000000E+00 0.  1.
        -13    1    3    3    0    0  0.16919216660E+02  0.80034195680E+02 -0.18617180538E+03  0.20335110889E+03  0.00000000000E+00 0. -1.
         22    1    1    2    0    0  0.86727536558E+02 -0.43054060561E+03  0.12321031918E+04  0.13080386668E+04  0.00000000000E+00 0.  1.
<mgrwt>
<rscale>  0 0.22476310E+04</rscale>
<asrwt>0</asrwt>
<pdfrwt beam="1">  1        2 0.14664054E+00 0.22476310E+04</pdfrwt>
<pdfrwt beam="2">  1       -2 0.20384932E+00 0.22476310E+04</pdfrwt>
<totfact> 0.30867393E+00</totfact>
</mgrwt>
</event>
<event>
 6    1  0.2047711E-005  0.2078555E+04  0.7818608E-02  0.8570749E-01
         -1   -1    0    0    0  501 -0.00000000000E+00  0.00000000000E+00  0.92959837812E+03  0.92959837812E+03  0.00000000000E+00 0.  1.
          1   -1    0    0  501    0  0.00000000000E+00 -0.00000000000E+00 -0.11618969871E+04  0.11618969871E+04  0.00000000000E+00 0. -1.
         23    2    1    2    0    0  0.76567159171E+03  0.81447368797E+02  0.58302233545E+03  0.97005214212E+03  0.90550839629E+02 0.  0.
         13    1    3    3    0    0  0.20197004296E+03  0.40558989466E+02  0.20139085453E+03  0.28808888589E+03  0.00000000000E+00 0. -1.
        -13    1    3    3    0    0  0.56370154875E+03  0.40888379332E+02  0.38163148092E+03  0.68196325623E+03  0.00000000000E+00 0.  1.
         22    1    1    2    0    0 -0.76567159171E+03 -0.81447368797E+02 -0.81532094445E+03  0.11214432231E+04  0.00000000000E+00 0. -1.
<mgrwt>
<rscale>  0 0.20785548E+04</rscale>
<asrwt>0</asrwt>
<pdfrwt beam="1">  1        1 0.17875338E+00 0.20785548E+04</pdfrwt>
<pdfrwt beam="2">  1       -1 0.14301513E+00 0.20785548E+04</pdfrwt>
<totfact> 0.41625275E+00</totfact>
</mgrwt>
</event>
<event>
 6    1  0.2047711E-005  0.1762550E+04  0.7818608E-02  0.8726472E-01
         -2   -1    0    0    0  501 -0.00000000000E+00  0.00000000000E+00  0.13723342025E+04  0.13723342025E+04  0.00000000000E+00 0. -1.
          2   -1    0    0  501    0  0.00000000000E+00 -0.00000000000E+00 -0.56593029756E+03  0.56593029756E+03  0.00000000000E+00 0.  1.
         23    2    1    2    0    0 -0.59299193332E+03  0.33959375198E+03 -0.20361015511E+03  0.71880078560E+03  0.90852213821E+02 0.  0.
         13    1    3    3    0    0 -0.46584063641E+03  0.22989468032E+03 -0.17680029070E+03  0.54874165630E+03  0.00000000000E+00 0.  1.
        -13    1    3    3    0    0 -0.12715129691E+03  0.10969907166E+03 -0.26809864405E+02  0.17005912930E+03  0.00000000000E+00 0. -1.
         22    1    1    2    0    0  0.59299193332E+03 -0.33959375198E+03  0.10100140600E+04  0.12194637144E+04  0.00000000000E+00 0. -1.
<mgrwt>
<rscale>  0 0.17625499E+04</rscale>
<asrwt>0</asrwt>
<pdfrwt beam="1">  1        2 0.87066200E-01 0.17625499E+04</pdfrwt>
<pdfrwt beam="2">  1       -2 0.21112834E+00 0.17625499E+04</pdfrwt>
<totfact> 0.56692549E+00</totfact>
</mgrwt>
</event>
<event>
 6    1  0.2047711E-005  0.2371691E+04  0.7818608E-02  0.8450179E-01
          2   -1    0    0  501    0  0.00000000000E+00  0.00000000000E+00  0.26566359127E+04  0.26566359127E+04  0.00000000000E+00 0.  1.
         -2   -1    0    0    0  501 -0.00000000000E+00 -0.00000000000E+00 -0.52932715675E+03  0.52932715675E+03  0.00000000000E+00 0. -1.
         23    2    1    2    0    0  0.69083992760E+03  0.92270462802E+03  0.70317642777E+03  0.13538068195E+04  0.98448868761E+02 0.  0.
         11    1    3    3    0    0  0.21383725595E+03  0.21460198166E+03  0.19317786301E+03  0.35930219777E+03  0.00000000000E+00 0. -1.
        -11    1    3    3    0    0  0.47700267165E+03  0.70810264636E+03  0.50999856476E+03  0.99450462171E+03  0.00000000000E+00 0.  1.
         22    1    1    2    0    0 -0.69083992760E+03 -0.92270462802E+03  0.14241323282E+04  0.18321562500E+04  0.00000000000E+00 0.  1.
<mgrwt>
<rscale>  0 0.23716910E+04</rscale>
<asrwt>0</asrwt>
<pdfrwt beam="1">  1        2 0.40871321E+00 0.23716910E+04</pdfrwt>
<pdfrwt beam="2">  1       -2 0.81434949E-01 0.23716910E+04</pdfrwt>
<totfact> 0.33728353E+00</totfact>
</mgrwt>
</event>
<event>
 6    1  0.2047711E-005  0.3794397E+04  0.7818608E-02  0.8047358E-01
         -2   -1    0    0    0  501 -0.00000000000E+00  0.00000000000E+00  0.27115642466E+04  0.27115642466E+04  0.00000000000E+00 0.  1.
          2   -1    0    0  501    0  0.00000000000E+00 -0.00000000000E+00 -0.13274116152E+04  0.13274116152E+04  0.00000000000E+00 0. -1.
         23    2    1    2    0    0  0.43302407048E+03 -0.10346390744E+04  0.23198527071E+04  0.25783176227E+04  0.89539493626E+02 0.  0.
         13    1    3    3    0    0  0.31483348358E+03 -0.84292891616E+03  0.18384830029E+04  0.20468681032E+04  0.00000000000E+00 0. -1.
        -13    1    3    3    0    0  0.11819058689E+03 -0.19171015824E+03  0.48136970420E+03  0.53144951945E+03  0.00000000000E+00 0.  1.
         22    1    1    2    0    0 -0.43302407048E+03  0.10346390744E+04 -0.93570007573E+03  0.14606582392E+04  0.00000000000E+00 0. -1.
<mgrwt>
<rscale>  0 0.37943969E+04</rscale>
<asrwt>0</asrwt>
<pdfrwt beam="1">  1        2 0.20421717E+00 0.37943969E+04</pdfrwt>
<pdfrwt beam="2">  1       -2 0.41716373E+00 0.37943969E+04</pdfrwt>
<totfact> 0.73124431E-02</totfact>
</mgrwt>
</event>
<event>
 6    1  0.2047711E-005  0.3016714E+04  0.7818608E-02  0.8238974E-01
         -2   -1    0    0    0  501 -0.00000000000E+00  0.00000000000E+00  0.71723195047E+03  0.71723195047E+03  0.00000000000E+00 0.  1.
          2   -1    0    0  501    0  0.00000000000E+00 -0.00000000000E+00 -0.31721129477E+04  0.31721129477E+04  0.00000000000E+00 0. -1.
         23    2    1    2    0    0  0.14514576597E+04  0.95095300487E+02 -0.72071484616E+03  0.16259172555E+04  0.91676486970E+02 0.  0.
         11    1    3    3    0    0  0.77990056031E+03  0.29174053194E+02 -0.34165834503E+03  0.85195447888E+03  0.00000000000E+00 0. -1.
        -11    1    3    3    0    0  0.67155709937E+03  0.65921247293E+02 -0.37905650113E+03  0.77396277663E+03  0.00000000000E+00 0.  1.
         22    1    1    2    0    0 -0.14514576597E+04 -0.95095300487E+02 -0.17341661511E+04  0.22634276426E+04  0.00000000000E+00 0.  1.
<mgrwt>
<rscale>  0 0.30167139E+04</rscale>
<asrwt>0</asrwt>
<pdfrwt beam="1">  1        2 0.48801738E+00 0.30167139E+04</pdfrwt>
<pdfrwt beam="2">  1       -2 0.11034338E+00 0.30167139E+04</pdfrwt>
<totfact> 0.75315811E-01</totfact>
</mgrwt>
</event>
<event>
 6    1  0.2047711E-005  0.3050684E+04  0.7818608E-02  0.8229404E-01
          2   -1    0    0  501    0  0.00000000000E+00  0.00000000000E+00  0.15732375077E+04  0.15732375077E+04  0.00000000000E+00 0. -1.
         -2   -1    0    0    0  501 -0.00000000000E+00 -0.00000000000E+00 -0.14789044300E+04  0.14789044300E+04  0.00000000000E+00 0.  1.
         23    2    1    2    0    0  0.36508776646E+03 -0.86866346806E+03 -0.11511419629E+04  0.14903886362E+04  0.90912982444E+02 0.  0.
         11    1    3    3    0    0  0.65341469923E+02 -0.92340015939E+02 -0.16477030193E+03  0.19986355004E+03  0.00000000000E+00 0. -1.
        -11    1    3    3    0    0  0.29974629654E+03 -0.77632345212E+03 -0.98637166096E+03  0.12905250862E+04  0.00000000000E+00 0.  1.
         22    1    1    2    0    0 -0.36508776646E+03  0.86866346806E+03  0.12454750406E+04  0.15617533015E+04  0.00000000000E+00 0. -1.
<mgrwt>
<rscale>  0 0.30506838E+04</rscale>
<asrwt>0</asrwt>
<pdfrwt beam="1">  1        2 0.24203654E+00 0.30506838E+04</pdfrwt>
<pdfrwt beam="2">  1       -2 0.22752376E+00 0.30506838E+04</pdfrwt>
<totfact> 0.87204213E-01</totfact>
</mgrwt>
</event>
<event>
 6    1  0.2047711E-005  0.3908090E+04  0.7818608E-02  0.8023349E-01
          2   -1    0    0  501    0  0.00000000000E+00  0.00000000000E+00  0.18292777973E+04  0.18292777973E+04  0.00000000000E+00 0. -1.
         -2   -1    0    0    0  501 -0.00000000000E+00 -0.00000000000E+00 -0.20873223659E+04  0.20873223659E+04  0.00000000000E+00 0.  1.
         23    2    1    2    0    0  0.17651790041E+04  0.12401944718E+03 -0.95723679168E+03  0.20139421528E+04  0.91776790908E+02 0.  0.
         13    1    3    3    0    0  0.35629072670E+03  0.55603457931E+02 -0.21884075742E+03  0.42181287744E+03  0.00000000000E+00 0.  1.
        -13    1    3    3    0    0  0.14088882774E+04  0.68415989251E+02 -0.73839603426E+03  0.15921292753E+04  0.00000000000E+00 0. -1.
         22    1    1    2    0    0 -0.17651790041E+04 -0.12401944718E+03  0.69919222309E+03  0.19026580105E+04  0.00000000000E+00 0. -1.
<mgrwt>
<rscale>  0 0.39080903E+04</rscale>
<asrwt>0</asrwt>
<pdfrwt beam="1">  1        2 0.28142735E+00 0.39080903E+04</pdfrwt>
<pdfrwt beam="2">  1       -2 0.32112652E+00 0.39080903E+04</pdfrwt>
<totfact> 0.15563921E-01</totfact>
</mgrwt>
</event>
<event>
 6    1  0.2047711E-005  0.4698866E+04  0.7818608E-02  0.7876717E-01
          2   -1    0    0  501    0  0.00000000000E+00  0.00000000000E+00  0.15135483254E+04  0.15135483254E+04  0.00000000000E+00 0.  1.
         -2   -1    0    0    0  501 -0.00000000000E+00 -0.00000000000E+00 -0.36469495186E+04  0.36469495186E+04  0.00000000000E+00 0. -1.
         23    2    1    2    0    0  0.16533012864E+04  0.86887558356E+03 -0.26313598825E+04  0.32275434267E+04  0.68057452572E+02 0.  0.
         13    1    3    3    0    0  0.54000760858E+03  0.25741108858E+03 -0.80565337299E+03  0.10034670115E+04  0.00000000000E+00 0.  1.
        -13    1    3    3    0    0  0.11132936778E+04  0.61146449499E+03 -0.18257065095E+04  0.22240764152E+04  0.00000000000E+00 0. -1.
         22    1    1    2    0    0 -0.16533012864E+04 -0.86887558356E+03  0.49795868932E+03  0.19329544173E+04  0.00000000000E+00 0.  1.
<mgrwt>
<rscale>  0 0.46988655E+04</rscale>
<asrwt>0</asrwt>
<pdfrwt beam="1">  1        2 0.23285359E+00 0.46988655E+04</pdfrwt>
<pdfrwt beam="2">  1       -2 0.56106915E+00 0.46988655E+04</pdfrwt>
<totfact> 0.70410595E-03</totfact>
</mgrwt>
</event>
<event>
 6    1  0.2047711E-005  0.4186395E+04  0.7818608E-02  0.7967965E-01
          2   -1    0    0  501    0  0.00000000000E+00  0.00000000000E+00  0.21557552945E+04  0.21557552945E+04  0.00000000000E+00 0. -1.
         -2   -1    0    0    0  501 -0.00000000000E+00 -0.00000000000E+00 -0.20324547011E+04  0.20324547011E+04  0.00000000000E+00 0.  1.
         23    2    1    2    0    0  0.13157151741E+04 -0.13046874445E+04  0.10336867446E+04  0.21237200607E+04  0.91448692013E+02 0.  0.
         11    1    3    3    0    0  0.33172374480E+03 -0.32028732275E+03  0.30257654926E+03  0.55152260166E+03  0.00000000000E+00 0. -1.
        -11    1    3    3    0    0  0.98399142930E+03 -0.98440012175E+03  0.73111019533E+03  0.15721974591E+04  0.00000000000E+00 0.  1.
         22    1    1    2    0    0 -0.13157151741E+04  0.13046874445E+04 -0.91038615115E+03  0.20644899349E+04  0.00000000000E+00 0.  1.
<mgrwt>
<rscale>  0 0.41863946E+04</rscale>
<asrwt>0</asrwt>
<pdfrwt beam="1">  1        2 0.33165466E+00 0.41863946E+04</pdfrwt>
<pdfrwt beam="2">  1       -2 0.31268534E+00 0.41863946E+04</pdfrwt>
<totfact> 0.11288554E-01</totfact>
</mgrwt>
</event>
<event>
 6    1  0.2047711E-005  0.1914033E+04  0.7818608E-02  0.8647903E-01
          2   -1    0    0  501    0  0.00000000000E+00  0.00000000000E+00  0.45264175719E+03  0.45264175719E+03  0.00000000000E+00 0. -1.
         -2   -1    0    0    0  501 -0.00000000000E+00 -0.00000000000E+00 -0.20234117011E+04  0.20234117011E+04  0.00000000000E+00 0.  1.
         23    2    1    2    0    0  0.54516143756E+03  0.70528361460E+03 -0.34435311029E+03  0.95989904010E+03  0.90560104821E+02 0.  0.
         11    1    3    3    0    0  0.18127364512E+03  0.17405915000E+03 -0.11492735976E+03  0.27634221562E+03  0.00000000000E+00 0.  1.
        -11    1    3    3    0    0  0.36388779243E+03  0.53122446461E+03 -0.22942575054E+03  0.68355682448E+03  0.00000000000E+00 0. -1.
         22    1    1    2    0    0 -0.54516143756E+03 -0.70528361460E+03 -0.12264168336E+04  0.15161544182E+04  0.00000000000E+00 0.  1.
<mgrwt>
<rscale>  0 0.19140330E+04</rscale>
<asrwt>0</asrwt>
<pdfrwt beam="1">  1        2 0.69637192E-01 0.19140330E+04</pdfrwt>
<pdfrwt beam="2">  1       -2 0.31129412E+00 0.19140330E+04</pdfrwt>
<totfact> 0.17539553E+00</totfact>
</mgrwt>
</event>
<event>
 6    1  0.2047711E-005  0.4024319E+04  0.7818608E-02  0.7999659E-01
          2   -1    0    0  501    0  0.00000000000E+00  0.00000000000E+00  0.18647823981E+04  0.18647823981E+04  0.00000000000E+00 0. -1.
         -2   -1    0    0    0  501 -0.00000000000E+00 -0.00000000000E+00 -0.21711837272E+04  0.21711837272E+04  0.00000000000E+00 0.  1.
         23    2    1    2    0    0  0.63804155502E+03 -0.16984905132E+04  0.71678873063E+03  0.19529670979E+04  0.91254324824E+02 0.  0.
         13    1    3    3    0    0  0.51825560238E+03 -0.14681905846E+04  0.62172211369E+03  0.16765174764E+04  0.00000000000E+00 0. -1.
        -13    1    3    3    0    0  0.11978595264E+03 -0.23029992860E+03  0.95066616944E+02  0.27644962149E+03  0.00000000000E+00 0.  1.
         22    1    1    2    0    0 -0.63804155502E+03  0.16984905132E+04 -0.10231900597E+04  0.20829990273E+04  0.00000000000E+00 0.  1.
<mgrwt>
<rscale>  0 0.40243187E+04</rscale>
<asrwt>0</asrwt>
<pdfrwt beam="1">  1        2 0.28688960E+00 0.40243187E+04</pdfrwt>
<pdfrwt beam="2">  1       -2 0.33402827E+00 0.40243187E+04</pdfrwt>
<totfact> 0.12252016E-01</totfact>
</mgrwt>
</event>
<event>
 6    1  0.2047711E-005  0.2698479E+04  0.7818608E-02  0.8335499E-01
          2   -1    0    0  501    0  0.00000000000E+00  0.00000000000E+00  0.12678054749E+04  0.12678054749E+04  0.00000000000E+00 0. -1.
         -2   -1    0    0    0  501 -0.00000000000E+00 -0.00000000000E+00 -0.14359038228E+04  0.14359038228E+04  0.00000000000E+00 0.  1.
         23    2    1    2    0    0  0.20501947709E+03 -0.62668901668E+03  0.10934965605E+04  0.12801946955E+04  0.91605790212E+02 0.  0.
         11    1    3    3    0    0  0.65360047206E-01 -0.10567432440E+03  0.16373356712E+03  0.19487367218E+03  0.00000000000E+00 0. -1.
        -11    1    3    3    0    0  0.20495411704E+03 -0.52101469228E+03  0.92976299341E+03  0.10853210233E+04  0.00000000000E+00 0.  1.
         22    1    1    2    0    0 -0.20501947709E+03  0.62668901668E+03 -0.12615949085E+04  0.14235146022E+04  0.00000000000E+00 0.  1.
<mgrwt>
<rscale>  0 0.26984786E+04</rscale>
<asrwt>0</asrwt>
<pdfrwt beam="1">  1        2 0.19504700E+00 0.26984786E+04</pdfrwt>
<pdfrwt beam="2">  1       -2 0.22090828E+00 0.26984786E+04</pdfrwt>
<totfact> 0.14775380E+00</totfact>
</mgrwt>
</event>
<event>
 6    1  0.2054328E-005  0.2165529E+04  0.7818608E-02  0.8532914E-01
          2   -1    0    0  501    0  0.00000000000E+00  0.00000000000E+00  0.16804974849E+04  0.16804974849E+04  0.00000000000E+00 0. -1.
         -2   -1    0    0    0  501 -0.00000000000E+00 -0.00000000000E+00 -0.69763775103E+03  0.69763775103E+03  0.00000000000E+00 0.  1.
         23    2    1    2    0    0 -0.85594397098E+03  0.65870625288E+03  0.53657466656E+03  0.12095016875E+04  0.91912732222E+02 0.  0.
         11    1    3    3    0    0 -0.36546597038E+03  0.23799701160E+03  0.18370278602E+03  0.47323848811E+03  0.00000000000E+00 0.  1.
        -11    1    3    3    0    0 -0.49047800060E+03  0.42070924128E+03  0.35287188054E+03  0.73626319944E+03  0.00000000000E+00 0. -1.
         22    1    1    2    0    0  0.85594397098E+03 -0.65870625288E+03  0.44628506728E+03  0.11686335483E+04  0.00000000000E+00 0. -1.
<mgrwt>
<rscale>  0 0.21655286E+04</rscale>
<asrwt>0</asrwt>
<pdfrwt beam="1">  1        2 0.25853807E+00 0.21655286E+04</pdfrwt>
<pdfrwt beam="2">  1       -2 0.10732889E+00 0.21655286E+04</pdfrwt>
<totfact> 0.64271385E+00</totfact>
</mgrwt>
</event>
<event>
 6    1  0.2447926E-005  0.2804680E+04  0.7818608E-02  0.8301817E-01
         -2   -1    0    0    0  501 -0.00000000000E+00  0.00000000000E+00  0.92787470502E+03  0.92787470502E+03  0.00000000000E+00 0.  1.
          2   -1    0    0  501    0  0.00000000000E+00 -0.00000000000E+00 -0.21194210949E+04  0.21194210949E+04  0.00000000000E+00 0. -1.
         23    2    1    2    0    0 -0.68984236658E+03  0.44613561382E+02 -0.19201952750E+04  0.20429044129E+04  0.91845989208E+02 0.  0.
         11    1    3    3    0    0 -0.33424360084E+03 -0.24215615565E+02 -0.93373066554E+03  0.99204744670E+03  0.00000000000E+00 0.  1.
        -11    1    3    3    0    0 -0.35559876574E+03  0.68829176946E+02 -0.98646460945E+03  0.10508569662E+04  0.00000000000E+00 0. -1.
         22    1    1    2    0    0  0.68984236658E+03 -0.44613561382E+02  0.72864888507E+03  0.10043913870E+04  0.00000000000E+00 0.  1.
<mgrwt>
<rscale>  0 0.28046798E+04</rscale>
<asrwt>0</asrwt>
<pdfrwt beam="1">  1        2 0.32606478E+00 0.28046798E+04</pdfrwt>
<pdfrwt beam="2">  1       -2 0.14274995E+00 0.28046798E+04</pdfrwt>
<totfact> 0.17017284E+00</totfact>
</mgrwt>
</event>
<event>
 6    1  0.2047711E-005  0.1185878E+04  0.7818608E-02  0.9125308E-01
         -2   -1    0    0    0  501 -0.00000000000E+00  0.00000000000E+00  0.12884656631E+03  0.12884656631E+03  0.00000000000E+00 0.  1.
          2   -1    0    0  501    0  0.00000000000E+00 -0.00000000000E+00 -0.27286476935E+04  0.27286476935E+04  0.00000000000E+00 0. -1.
         23    2    1    2    0    0 -0.19645340926E+03 -0.46832018580E+03 -0.20282346986E+04  0.20928989938E+04  0.92587620343E+02 0.  0.
         11    1    3    3    0    0 -0.18641029458E+03 -0.36462742701E+03 -0.15274883310E+04  0.15814305422E+04  0.00000000000E+00 0. -1.
        -11    1    3    3    0    0 -0.10043114682E+02 -0.10369275879E+03 -0.50074636758E+03  0.51146845164E+03  0.00000000000E+00 0.  1.
         22    1    1    2    0    0  0.19645340926E+03  0.46832018580E+03 -0.57156642866E+03  0.76459526601E+03  0.00000000000E+00 0.  1.
<mgrwt>
<rscale>  0 0.11858784E+04</rscale>
<asrwt>0</asrwt>
<pdfrwt beam="1">  1        2 0.41979195E+00 0.11858784E+04</pdfrwt>
<pdfrwt beam="2">  1       -2 0.19822549E-01 0.11858784E+04</pdfrwt>
<totfact> 0.55302898E+01</totfact>
</mgrwt>
</event>
<event>
 6    1  0.2047711E-005  0.3246680E+04  0.7818608E-02  0.8176597E-01
         -2   -1    0    0    0  501 -0.00000000000E+00  0.00000000000E+00  0.30017190215E+04  0.30017190215E+04  0.00000000000E+00 0.  1.
          2   -1    0    0  501    0  0.00000000000E+00 -0.00000000000E+00 -0.87790788876E+03  0.87790788876E+03  0.00000000000E+00 0. -1.
         23    2    1    2    0    0 -0.11619624230E+04 -0.10370879934E+04  0.16030611865E+04  0.22374062537E+04  0.10233961930E+03 0.  0.
         13    1    3    3    0    0 -0.83671158175E+03 -0.68750031725E+03  0.10889741497E+04  0.15357759133E+04  0.00000000000E+00 0.  1.
        -13    1    3    3    0    0 -0.32525084128E+03 -0.34958767611E+03  0.51408703683E+03  0.70163034033E+03  0.00000000000E+00 0. -1.
         22    1    1    2    0    0  0.11619624230E+04  0.10370879934E+04  0.52074994624E+03  0.16422206566E+04  0.00000000000E+00 0. -1.
<mgrwt>
<rscale>  0 0.32466800E+04</rscale>
<asrwt>0</asrwt>
<pdfrwt beam="1">  1        2 0.13506275E+00 0.32466800E+04</pdfrwt>
<pdfrwt beam="2">  1       -2 0.46180292E+00 0.32466800E+04</pdfrwt>
<totfact> 0.73764387E-02</totfact>
</mgrwt>
</event>
<event>
 6    1  0.2047711E-005  0.2908166E+04  0.7818608E-02  0.8270452E-01
         -4   -1    0    0    0  501 -0.00000000000E+00  0.00000000000E+00  0.27137002787E+04  0.27137002787E+04  0.00000000000E+00 0.  1.
          4   -1    0    0  501    0  0.00000000000E+00 -0.00000000000E+00 -0.77914197526E+03  0.77914197526E+03  0.00000000000E+00 0. -1.
         23    2    1    2    0    0 -0.76004565590E+03 -0.18712910705E+03 -0.50126535883E+03  0.93434198713E+03  0.95085683417E+02 0.  0.
         11    1    3    3    0    0 -0.56647013232E+03 -0.16880203542E+03 -0.41124824266E+03  0.72007475658E+03  0.00000000000E+00 0.  1.
        -11    1    3    3    0    0 -0.19357552358E+03 -0.18327071626E+02 -0.90017116175E+02  0.21426723055E+03  0.00000000000E+00 0. -1.
         22    1    1    2    0    0  0.76004565590E+03  0.18712910705E+03  0.24358236623E+04  0.25585002669E+04  0.00000000000E+00 0.  1.
<mgrwt>
<rscale>  0 0.29081663E+04</rscale>
<asrwt>0</asrwt>
<pdfrwt beam="1">  1        4 0.11986800E+00 0.29081663E+04</pdfrwt>
<pdfrwt beam="2">  1       -4 0.41749235E+00 0.29081663E+04</pdfrwt>
<totfact> 0.46613119E-03</totfact>
</mgrwt>
</event>
<event>
 6    1  0.2047711E-005  0.1672695E+04  0.7818608E-02  0.8777092E-01
          2   -1    0    0  501    0  0.00000000000E+00  0.00000000000E+00  0.66484636765E+03  0.66484636765E+03  0.00000000000E+00 0. -1.
         -2   -1    0    0    0  501 -0.00000000000E+00 -0.00000000000E+00 -0.10520884346E+04  0.10520884346E+04  0.00000000000E+00 0.  1.
         23    2    1    2    0    0  0.60898528070E+02 -0.83162457880E+03 -0.18415613969E+03  0.85870874544E+03  0.90328040631E+02 0.  0.
         11    1    3    3    0    0  0.46751578378E+02 -0.21587012673E+03 -0.74541222210E+02  0.23311373941E+03  0.00000000000E+00 0. -1.
        -11    1    3    3    0    0  0.14146949693E+02 -0.61575445208E+03 -0.10961491748E+03  0.62559500603E+03  0.00000000000E+00 0.  1.
         22    1    1    2    0    0 -0.60898528070E+02  0.83162457880E+03 -0.20308592730E+03  0.85822605685E+03  0.00000000000E+00 0.  1.
<mgrwt>
<rscale>  0 0.16726950E+04</rscale>
<asrwt>0</asrwt>
<pdfrwt beam="1">  1        2 0.10228406E+00 0.16726950E+04</pdfrwt>
<pdfrwt beam="2">  1       -2 0.16185976E+00 0.16726950E+04</pdfrwt>
<totfact> 0.10167135E+01</totfact>
</mgrwt>
</event>
<event>
 6    1  0.2388973E-005  0.2822769E+04  0.7818608E-02  0.8296234E-01
          2   -1    0    0  501    0  0.00000000000E+00  0.00000000000E+00  0.23966971678E+04  0.23966971678E+04  0.00000000000E+00 0. -1.
         -2   -1    0    0    0  501 -0.00000000000E+00 -0.00000000000E+00 -0.83114633437E+03  0.83114633437E+03  0.00000000000E+00 0.  1.
         23    2    1    2    0    0  0.80967920130E+02  0.95239224204E+03  0.19687860466E+04  0.21904402903E+04  0.91122891042E+02 0.  0.
         13    1    3    3    0    0  0.80108176221E+02  0.70645629613E+03  0.13809119769E+04  0.15531953213E+04  0.00000000000E+00 0. -1.
        -13    1    3    3    0    0  0.85974390959E+00  0.24593594590E+03  0.58787406973E+03  0.63724496900E+03  0.00000000000E+00 0.  1.
         22    1    1    2    0    0 -0.80967920130E+02 -0.95239224204E+03 -0.40323521320E+03  0.10374032118E+04  0.00000000000E+00 0.  1.
<mgrwt>
<rscale>  0 0.28227689E+04</rscale>
<asrwt>0</asrwt>
<pdfrwt beam="1">  1        2 0.36872264E+00 0.28227689E+04</pdfrwt>
<pdfrwt beam="2">  1       -2 0.12786867E+00 0.28227689E+04</pdfrwt>
<totfact> 0.15701954E+00</totfact>
</mgrwt>
</event>
<event>
 6    1  0.2047711E-005  0.3108420E+04  0.7818608E-02  0.8213431E-01
         -2   -1    0    0    0  501 -0.00000000000E+00  0.00000000000E+00  0.95464885176E+03  0.95464885176E+03  0.00000000000E+00 0.  1.
          2   -1    0    0  501    0  0.00000000000E+00 -0.00000000000E+00 -0.25303212052E+04  0.25303212052E+04  0.00000000000E+00 0. -1.
         23    2    1    2    0    0 -0.45783973072E+03  0.64706099144E+03  0.70834573490E+03  0.10673175233E+04  0.95435159781E+02 0.  0.
         13    1    3    3    0    0 -0.24894446850E+02  0.72593151229E+02  0.93921700829E+02  0.12128802487E+03  0.00000000000E+00 0. -1.
        -13    1    3    3    0    0 -0.43294528387E+03  0.57446784021E+03  0.61442403407E+03  0.94602949843E+03  0.00000000000E+00 0.  1.
         22    1    1    2    0    0  0.45783973072E+03 -0.64706099144E+03 -0.22840180884E+04  0.24176525337E+04  0.00000000000E+00 0. -1.
<mgrwt>
<rscale>  0 0.31084197E+04</rscale>
<asrwt>0</asrwt>
<pdfrwt beam="1">  1        2 0.38928018E+00 0.31084197E+04</pdfrwt>
<pdfrwt beam="2">  1       -2 0.14686906E+00 0.31084197E+04</pdfrwt>
<totfact> 0.89828794E-01</totfact>
</mgrwt>
</event>
<event>
 6    1  0.2047711E-005  0.4053307E+04  0.7818608E-02  0.7993878E-01
          2   -1    0    0  501    0  0.00000000000E+00  0.00000000000E+00  0.17688014843E+04  0.17688014843E+04  0.00000000000E+00 0. -1.
         -2   -1    0    0    0  501 -0.00000000000E+00 -0.00000000000E+00 -0.23220944694E+04  0.23220944694E+04  0.00000000000E+00 0.  1.
         23    2    1    2    0    0 -0.57290612083E+02 -0.19977986675E+04  0.56112265861E+02  0.20014327476E+04  0.90015147635E+02 0.  0.
         11    1    3    3    0    0  0.13397530696E+02 -0.91141283086E+03  0.46749233534E+02  0.91270933650E+03  0.00000000000E+00 0.  1.
        -11    1    3    3    0    0 -0.70688142779E+02 -0.10863858366E+04  0.93630323267E+01  0.10887234111E+04  0.00000000000E+00 0. -1.
         22    1    1    2    0    0  0.57290612083E+02  0.19977986675E+04 -0.60940525097E+03  0.20894632062E+04  0.00000000000E+00 0.  1.
<mgrwt>
<rscale>  0 0.40533069E+04</rscale>
<asrwt>0</asrwt>
<pdfrwt beam="1">  1        2 0.27212331E+00 0.40533069E+04</pdfrwt>
<pdfrwt beam="2">  1       -2 0.35724530E+00 0.40533069E+04</pdfrwt>
<totfact> 0.98728707E-02</totfact>
</mgrwt>
</event>
<event>
 6    1  0.2047711E-005  0.2779413E+04  0.7818608E-02  0.8309688E-01
         -2   -1    0    0    0  501 -0.00000000000E+00  0.00000000000E+00  0.10662801731E+04  0.10662801731E+04  0.00000000000E+00 0. -1.
          2   -1    0    0  501    0  0.00000000000E+00 -0.00000000000E+00 -0.18112351417E+04  0.18112351417E+04  0.00000000000E+00 0.  1.
         23    2    1    2    0    0  0.77687495923E+03 -0.11002043177E+04 -0.72098924748E+03  0.15304597856E+04  0.92181436548E+02 0.  0.
         11    1    3    3    0    0  0.28798522455E+03 -0.46671148505E+03 -0.25936809899E+03  0.60665221553E+03  0.00000000000E+00 0. -1.
        -11    1    3    3    0    0  0.48888973468E+03 -0.63349283270E+03 -0.46162114849E+03  0.92380757005E+03  0.00000000000E+00 0.  1.
         22    1    1    2    0    0 -0.77687495923E+03  0.11002043177E+04 -0.23965721183E+02  0.13470555292E+04  0.00000000000E+00 0. -1.
<mgrwt>
<rscale>  0 0.27794130E+04</rscale>
<asrwt>0</asrwt>
<pdfrwt beam="1">  1        2 0.27865156E+00 0.27794130E+04</pdfrwt>
<pdfrwt beam="2">  1       -2 0.16404310E+00 0.27794130E+04</pdfrwt>
<totfact> 0.17443830E+00</totfact>
</mgrwt>
</event>
<event>
 6    1  0.2047711E-005  0.3258980E+04  0.7818608E-02  0.8173412E-01
         -2   -1    0    0    0  501 -0.00000000000E+00  0.00000000000E+00  0.91149868072E+03  0.91149868072E+03  0.00000000000E+00 0.  1.
          2   -1    0    0  501    0  0.00000000000E+00 -0.00000000000E+00 -0.29130468156E+04  0.29130468156E+04  0.00000000000E+00 0. -1.
         23    2    1    2    0    0 -0.11105112260E+04  0.40573242330E+03  0.31224327210E+03  0.12261835782E+04  0.90423029184E+02 0.  0.
         11    1    3    3    0    0 -0.76699782685E+03  0.29919488318E+03  0.17813710126E+03  0.84233964133E+03  0.00000000000E+00 0.  1.
        -11    1    3    3    0    0 -0.34351339913E+03  0.10653754012E+03  0.13410617084E+03  0.38384393690E+03  0.00000000000E+00 0. -1.
         22    1    1    2    0    0  0.11105112260E+04 -0.40573242330E+03 -0.23137914070E+04  0.25983619181E+04  0.00000000000E+00 0. -1.
<mgrwt>
<rscale>  0 0.32589804E+04</rscale>
<asrwt>0</asrwt>
<pdfrwt beam="1">  1        2 0.44816105E+00 0.32589804E+04</pdfrwt>
<pdfrwt beam="2">  1       -2 0.14023056E+00 0.32589804E+04</pdfrwt>
<totfact> 0.59068047E-01</totfact>
</mgrwt>
</event>
<event>
 6    1  0.2047711E-005  0.2448721E+04  0.7818608E-02  0.8421485E-01
         -2   -1    0    0    0  501 -0.00000000000E+00  0.00000000000E+00  0.50644908996E+03  0.50644908996E+03  0.00000000000E+00 0.  1.
          2   -1    0    0  501    0  0.00000000000E+00 -0.00000000000E+00 -0.29599394385E+04  0.29599394385E+04  0.00000000000E+00 0. -1.
         23    2    1    2    0    0 -0.15384281880E+03  0.10978050821E+04 -0.19587467222E+04  0.22524631325E+04  0.89765419203E+02 0.  0.
         13    1    3    3    0    0 -0.10891561132E+03  0.48685949204E+03 -0.84037093684E+03  0.97730143091E+03  0.00000000000E+00 0.  1.
        -13    1    3    3    0    0 -0.44927207479E+02  0.61094559005E+03 -0.11183757853E+04  0.12751617016E+04  0.00000000000E+00 0. -1.
         22    1    1    2    0    0  0.15384281880E+03 -0.10978050821E+04 -0.49474362639E+03  0.12139253960E+04  0.00000000000E+00 0.  1.
<mgrwt>
<rscale>  0 0.24487210E+04</rscale>
<asrwt>0</asrwt>
<pdfrwt beam="1">  1        2 0.45537531E+00 0.24487210E+04</pdfrwt>
<pdfrwt beam="2">  1       -2 0.77915243E-01 0.24487210E+04</pdfrwt>
<totfact> 0.24235918E+00</totfact>
</mgrwt>
</event>
<event>
 6    1  0.2047711E-005  0.2530795E+04  0.7818608E-02  0.8392096E-01
          2   -1    0    0  501    0  0.00000000000E+00  0.00000000000E+00  0.21435659524E+04  0.21435659524E+04  0.00000000000E+00 0. -1.
         -2   -1    0    0    0  501 -0.00000000000E+00 -0.00000000000E+00 -0.74699385957E+03  0.74699385957E+03  0.00000000000E+00 0.  1.
         23    2    1    2    0    0  0.59725884219E+03  0.11068353770E+04  0.55807929376E+03  0.13789802241E+04  0.91275868476E+02 0.  0.
         13    1    3    3    0    0  0.29609186704E+03  0.50502751505E+03  0.30402760606E+03  0.65966352781E+03  0.00000000000E+00 0.  1.
        -13    1    3    3    0    0  0.30116697515E+03  0.60180786191E+03  0.25405168769E+03  0.71931669632E+03  0.00000000000E+00 0. -1.
         22    1    1    2    0    0 -0.59725884219E+03 -0.11068353770E+04  0.83849279907E+03  0.15115795878E+04  0.00000000000E+00 0. -1.
<mgrwt>
<rscale>  0 0.25307948E+04</rscale>
<asrwt>0</asrwt>
<pdfrwt beam="1">  1        2 0.32977938E+00 0.25307948E+04</pdfrwt>
<pdfrwt beam="2">  1       -2 0.11492213E+00 0.25307948E+04</pdfrwt>
<totfact> 0.29185027E+00</totfact>
</mgrwt>
</event>
<event>
 6    1  0.2047711E-005  0.1599484E+04  0.7818608E-02  0.8820865E-01
          2   -1    0    0  501    0  0.00000000000E+00  0.00000000000E+00  0.18113789016E+04  0.18113789016E+04  0.00000000000E+00 0. -1.
         -2   -1    0    0    0  501 -0.00000000000E+00 -0.00000000000E+00 -0.35309405119E+03  0.35309405119E+03  0.00000000000E+00 0.  1.
         23    2    1    2    0    0  0.67569366344E+03  0.35382467167E+03  0.10448742762E+04  0.12969119302E+04  0.92002589444E+02 0.  0.
         11    1    3    3    0    0  0.28253819028E+03  0.19907314287E+03  0.45902547392E+03  0.57459753818E+03  0.00000000000E+00 0.  1.
        -11    1    3    3    0    0  0.39315547316E+03  0.15475152880E+03  0.58584880227E+03  0.72231439198E+03  0.00000000000E+00 0. -1.
         22    1    1    2    0    0 -0.67569366344E+03 -0.35382467167E+03  0.41341057419E+03  0.86756102261E+03  0.00000000000E+00 0.  1.
<mgrwt>
<rscale>  0 0.15994838E+04</rscale>
<asrwt>0</asrwt>
<pdfrwt beam="1">  1        2 0.27867367E+00 0.15994838E+04</pdfrwt>
<pdfrwt beam="2">  1       -2 0.54322163E-01 0.15994838E+04</pdfrwt>
<totfact> 0.26015422E+01</totfact>
</mgrwt>
</event>
<event>
 6    1  0.2047711E-005  0.1024067E+04  0.7818608E-02  0.9282535E-01
          2   -1    0    0  501    0  0.00000000000E+00  0.00000000000E+00  0.62845201441E+03  0.62845201441E+03  0.00000000000E+00 0. -1.
         -2   -1    0    0    0  501 -0.00000000000E+00 -0.00000000000E+00 -0.41718133052E+03  0.41718133052E+03  0.00000000000E+00 0.  1.
         23    2    1    2    0    0 -0.16748868825E+03  0.87679172992E+02 -0.37505360896E+03  0.42958442280E+03  0.90207919008E+02 0.  0.
         11    1    3    3    0    0 -0.16150897675E+03  0.46838510882E+02 -0.29821237830E+03  0.34235890268E+03  0.00000000000E+00 0. -1.
        -11    1    3    3    0    0 -0.59797114994E+01  0.40840662110E+02 -0.76841230666E+02  0.87225520127E+02  0.00000000000E+00 0.  1.
         22    1    1    2    0    0  0.16748868825E+03 -0.87679172992E+02  0.58632429285E+03  0.61604892213E+03  0.00000000000E+00 0. -1.
<mgrwt>
<rscale>  0 0.10240673E+04</rscale>
<asrwt>0</asrwt>
<pdfrwt beam="1">  1        2 0.96684925E-01 0.10240673E+04</pdfrwt>
<pdfrwt beam="2">  1       -2 0.64181743E-01 0.10240673E+04</pdfrwt>
<totfact> 0.10491861E+02</totfact>
</mgrwt>
</event>
<event>
 6    1  0.2047711E-005  0.8040966E+03  0.7818608E-02  0.9554106E-01
          1   -1    0    0  501    0  0.00000000000E+00  0.00000000000E+00  0.20805354679E+03  0.20805354679E+03  0.00000000000E+00 0. -1.
         -1   -1    0    0    0  501 -0.00000000000E+00 -0.00000000000E+00 -0.77692899884E+03  0.77692899884E+03  0.00000000000E+00 0.  1.
         23    2    1    2    0    0  0.70575640045E+02  0.20648998059E+03  0.11763197697E+03  0.26462743657E+03  0.92581667343E+02 0.  0.
         11    1    3    3    0    0  0.53009776089E+02  0.15295533300E+03  0.36656974367E+02  0.16597922769E+03  0.00000000000E+00 0.  1.
        -11    1    3    3    0    0  0.17565863955E+02  0.53534647584E+02  0.80975002599E+02  0.98648208875E+02  0.00000000000E+00 0. -1.
         22    1    1    2    0    0 -0.70575640045E+02 -0.20648998059E+03 -0.68650742902E+03  0.72035510906E+03  0.00000000000E+00 0.  1.
<mgrwt>
<rscale>  0 0.80409660E+03</rscale>
<asrwt>0</asrwt>
<pdfrwt beam="1">  1        1 0.32008239E-01 0.80409660E+03</pdfrwt>
<pdfrwt beam="2">  1       -1 0.11952754E+00 0.80409660E+03</pdfrwt>
<totfact> 0.89464775E+01</totfact>
</mgrwt>
</event>
<event>
 6    1  0.2047711E-005  0.5141087E+04  0.7818608E-02  0.7807104E-01
         -2   -1    0    0    0  501 -0.00000000000E+00  0.00000000000E+00  0.21504173112E+04  0.21504173112E+04  0.00000000000E+00 0.  1.
          2   -1    0    0  501    0  0.00000000000E+00 -0.00000000000E+00 -0.30727499284E+04  0.30727499284E+04  0.00000000000E+00 0. -1.
         23    2    1    2    0    0 -0.36565202921E+03 -0.24522578718E+04  0.22492415421E+03  0.24912323619E+04  0.91529939169E+02 0.  0.
         11    1    3    3    0    0 -0.28707005782E+03 -0.20033798069E+04  0.14982355342E+03  0.20293809317E+04  0.00000000000E+00 0. -1.
        -11    1    3    3    0    0 -0.78581971392E+02 -0.44887806487E+03  0.75100600784E+02  0.46185143021E+03  0.00000000000E+00 0.  1.
         22    1    1    2    0    0  0.36565202921E+03  0.24522578718E+04 -0.11472567714E+04  0.27319348776E+04  0.00000000000E+00 0. -1.
<mgrwt>
<rscale>  0 0.51410873E+04</rscale>
<asrwt>0</asrwt>
<pdfrwt beam="1">  1        2 0.47273076E+00 0.51410873E+04</pdfrwt>
<pdfrwt beam="2">  1       -2 0.33083343E+00 0.51410873E+04</pdfrwt>
<totfact> 0.23116452E-02</totfact>
</mgrwt>
</event>
<event>
 6    1  0.2047711E-005  0.3838079E+04  0.7818608E-02  0.8038032E-01
          1   -1    0    0  501    0  0.00000000000E+00  0.00000000000E+00  0.20878741920E+04  0.20878741920E+04  0.00000000000E+00 0. -1.
         -1   -1    0    0    0  501 -0.00000000000E+00 -0.00000000000E+00 -0.17638578982E+04  0.17638578982E+04  0.00000000000E+00 0.  1.
         23    2    1    2    0    0 -0.53425212700E+03  0.16270901157E+03  0.20034670898E+04  0.20818579325E+04  0.91392086819E+02 0.  0.
         11    1    3    3    0    0 -0.34634387954E+03  0.66763928224E+02  0.11628255769E+04  0.12151439533E+04  0.00000000000E+00 0. -1.
        -11    1    3    3    0    0 -0.18790824747E+03  0.95945083347E+02  0.84064151289E+03  0.86671397917E+03  0.00000000000E+00 0.  1.
         22    1    1    2    0    0  0.53425212700E+03 -0.16270901157E+03 -0.16794507961E+04  0.17698741577E+04  0.00000000000E+00 0.  1.
<mgrwt>
<rscale>  0 0.38380794E+04</rscale>
<asrwt>0</asrwt>
<pdfrwt beam="1">  1        1 0.32121142E+00 0.38380794E+04</pdfrwt>
<pdfrwt beam="2">  1       -1 0.27136275E+00 0.38380794E+04</pdfrwt>
<totfact> 0.10430206E-01</totfact>
</mgrwt>
</event>
<event>
 6    1  0.2047711E-005  0.1335000E+04  0.7818608E-02  0.9002261E-01
         -2   -1    0    0    0  501 -0.00000000000E+00  0.00000000000E+00  0.15410836307E+04  0.15410836307E+04  0.00000000000E+00 0.  1.
          2   -1    0    0  501    0  0.00000000000E+00 -0.00000000000E+00 -0.28911897260E+03  0.28911897260E+03  0.00000000000E+00 0. -1.
         23    2    1    2    0    0 -0.50554099175E+03 -0.26086352076E+03  0.15937659013E+03  0.59838680656E+03  0.95102060909E+02 0.  0.
         11    1    3    3    0    0 -0.14663467860E+03 -0.47418173804E+02  0.83560248609E+01  0.15433740741E+03  0.00000000000E+00 0. -1.
        -11    1    3    3    0    0 -0.35890631315E+03 -0.21344534696E+03  0.15102056527E+03  0.44404939915E+03  0.00000000000E+00 0.  1.
         22    1    1    2    0    0  0.50554099175E+03  0.26086352076E+03  0.10925880679E+04  0.12318157967E+04  0.00000000000E+00 0.  1.
<mgrwt>
<rscale>  0 0.13350004E+04</rscale>
<asrwt>0</asrwt>
<pdfrwt beam="1">  1        2 0.44479843E-01 0.13350004E+04</pdfrwt>
<pdfrwt beam="2">  1       -2 0.23708978E+00 0.13350004E+04</pdfrwt>
<totfact> 0.86449061E+00</totfact>
</mgrwt>
</event>
<event>
 6    1  0.2047711E-005  0.2361761E+04  0.7818608E-02  0.8453960E-01
          2   -1    0    0  501    0  0.00000000000E+00  0.00000000000E+00  0.29415096427E+04  0.29415096427E+04  0.00000000000E+00 0. -1.
         -2   -1    0    0    0  501 -0.00000000000E+00 -0.00000000000E+00 -0.47406918660E+03  0.47406918660E+03  0.00000000000E+00 0.  1.
         23    2    1    2    0    0  0.69912357708E+02 -0.45063185327E+03  0.28081163165E+04  0.28463540522E+04  0.90869898717E+02 0.  0.
         13    1    3    3    0    0  0.78567480013E+02 -0.21041226205E+03  0.13468193246E+04  0.13654187864E+04  0.00000000000E+00 0. -1.
        -13    1    3    3    0    0 -0.86551223049E+01 -0.24021959123E+03  0.14612969919E+04  0.14809352659E+04  0.00000000000E+00 0.  1.
         22    1    1    2    0    0 -0.69912357708E+02  0.45063185327E+03 -0.34067586043E+03  0.56922477707E+03  0.00000000000E+00 0.  1.
<mgrwt>
<rscale>  0 0.23617613E+04</rscale>
<asrwt>0</asrwt>
<pdfrwt beam="1">  1        2 0.45253993E+00 0.23617613E+04</pdfrwt>
<pdfrwt beam="2">  1       -2 0.72933723E-01 0.23617613E+04</pdfrwt>
<totfact> 0.29031093E+00</totfact>
</mgrwt>
</event>
<event>
 6    1  0.2047711E-005  0.2079373E+04  0.7818608E-02  0.8570385E-01
         -2   -1    0    0    0  501 -0.00000000000E+00  0.00000000000E+00  0.63704275521E+03  0.63704275521E+03  0.00000000000E+00 0.  1.
          2   -1    0    0  501    0  0.00000000000E+00 -0.00000000000E+00 -0.16968212143E+04  0.16968212143E+04  0.00000000000E+00 0. -1.
         23    2    1    2    0    0  0.46968144078E+03  0.71436052255E+03 -0.11909736589E+04  0.14689224730E+04  0.91669861838E+02 0.  0.
         13    1    3    3    0    0  0.23921288338E+03  0.39799136700E+03 -0.57463078829E+03  0.73879663957E+03  0.00000000000E+00 0. -1.
        -13    1    3    3    0    0  0.23046855740E+03  0.31636915555E+03 -0.61634287059E+03  0.73012583344E+03  0.00000000000E+00 0.  1.
         22    1    1    2    0    0 -0.46968144078E+03 -0.71436052255E+03  0.13119519976E+03  0.86494149654E+03  0.00000000000E+00 0. -1.
<mgrwt>
<rscale>  0 0.20793727E+04</rscale>
<asrwt>0</asrwt>
<pdfrwt beam="1">  1        2 0.26104942E+00 0.20793727E+04</pdfrwt>
<pdfrwt beam="2">  1       -2 0.98006577E-01 0.20793727E+04</pdfrwt>
<totfact> 0.78743410E+00</totfact>
</mgrwt>
</event>
<event>
 6    1  0.2047711E-005  0.4053993E+04  0.7818608E-02  0.7993742E-01
          2   -1    0    0  501    0  0.00000000000E+00  0.00000000000E+00  0.39009029566E+04  0.39009029566E+04  0.00000000000E+00 0. -1.
         -2   -1    0    0    0  501 -0.00000000000E+00 -0.00000000000E+00 -0.10532728000E+04  0.10532728000E+04  0.00000000000E+00 0.  1.
         23    2    1    2    0    0 -0.73708392475E+03 -0.64148982392E+03  0.35933685375E+04  0.37249777908E+04  0.91434069958E+02 0.  0.
         13    1    3    3    0    0 -0.37368890889E+03 -0.27872477732E+03  0.18212456983E+04  0.18799645729E+04  0.00000000000E+00 0. -1.
        -13    1    3    3    0    0 -0.36339501586E+03 -0.36276504661E+03  0.17721228393E+04  0.18450132178E+04  0.00000000000E+00 0.  1.
         22    1    1    2    0    0  0.73708392475E+03  0.64148982392E+03 -0.74573838095E+03  0.12291979658E+04  0.00000000000E+00 0.  1.
<mgrwt>
<rscale>  0 0.40539931E+04</rscale>
<asrwt>0</asrwt>
<pdfrwt beam="1">  1        2 0.60013891E+00 0.40539931E+04</pdfrwt>
<pdfrwt beam="2">  1       -2 0.16204197E+00 0.40539931E+04</pdfrwt>
<totfact> 0.78174961E-02</totfact>
</mgrwt>
</event>
<event>
 6    1  0.2047711E-005  0.2185199E+04  0.7818608E-02  0.8524614E-01
          2   -1    0    0  501    0  0.00000000000E+00  0.00000000000E+00  0.78335773737E+03  0.78335773737E+03  0.00000000000E+00 0. -1.
         -2   -1    0    0    0  501 -0.00000000000E+00 -0.00000000000E+00 -0.15239183531E+04  0.15239183531E+04  0.00000000000E+00 0.  1.
         23    2    1    2    0    0  0.62924558337E+03  0.79132349478E+03 -0.80303873029E+03  0.12943366093E+04  0.91066889506E+02 0.  0.
         13    1    3    3    0    0  0.34526398588E+03  0.44207431155E+03 -0.50253972312E+03  0.75311558886E+03  0.00000000000E+00 0.  1.
        -13    1    3    3    0    0  0.28398159749E+03  0.34924918323E+03 -0.30049900717E+03  0.54122102048E+03  0.00000000000E+00 0. -1.
         22    1    1    2    0    0 -0.62924558337E+03 -0.79132349478E+03  0.62478114583E+02  0.10129394811E+04  0.00000000000E+00 0.  1.
<mgrwt>
<rscale>  0 0.21851986E+04</rscale>
<asrwt>0</asrwt>
<pdfrwt beam="1">  1        2 0.12051658E+00 0.21851986E+04</pdfrwt>
<pdfrwt beam="2">  1       -2 0.23444898E+00 0.21851986E+04</pdfrwt>
<totfact> 0.25988337E+00</totfact>
</mgrwt>
</event>
<event>
 6    1  0.2047711E-005  0.3208472E+03  0.7818608E-02  0.1075260E+00
         -2   -1    0    0    0  501 -0.00000000000E+00  0.00000000000E+00  0.21383085308E+03  0.21383085308E+03  0.00000000000E+00 0.  1.
          2   -1    0    0  501    0  0.00000000000E+00 -0.00000000000E+00 -0.12035553704E+03  0.12035553704E+03  0.00000000000E+00 0. -1.
         23    2    1    2    0    0  0.10085692283E+02 -0.96921650077E+02 -0.64189327378E+02  0.14883896708E+03  0.92397191129E+02 0.  0.
         11    1    3    3    0    0 -0.31777750017E+01 -0.17349031346E+00 -0.50069279486E+02  0.50170320919E+02  0.00000000000E+00 0. -1.
        -11    1    3    3    0    0  0.13263467285E+02 -0.96748159763E+02 -0.14120047892E+02  0.98668646157E+02  0.00000000000E+00 0.  1.
         22    1    1    2    0    0 -0.10085692283E+02  0.96921650077E+02  0.15766464342E+03  0.18534742304E+03  0.00000000000E+00 0.  1.
<mgrwt>
<rscale>  0 0.32084717E+03</rscale>
<asrwt>0</asrwt>
<pdfrwt beam="1">  1        2 0.18516237E-01 0.32084717E+03</pdfrwt>
<pdfrwt beam="2">  1       -2 0.32897054E-01 0.32084717E+03</pdfrwt>
<totfact> 0.26247610E+03</totfact>
</mgrwt>
</event>
<event>
 6    1  0.2047711E-005  0.3643464E+04  0.7818608E-02  0.8080608E-01
          1   -1    0    0  501    0  0.00000000000E+00  0.00000000000E+00  0.40326633440E+04  0.40326633440E+04  0.00000000000E+00 0. -1.
         -1   -1    0    0    0  501 -0.00000000000E+00 -0.00000000000E+00 -0.82295673776E+03  0.82295673776E+03  0.00000000000E+00 0.  1.
         23    2    1    2    0    0  0.16392134152E+02 -0.18172053366E+04  0.17511865960E+04  0.25254302702E+04  0.92949546137E+02 0.  0.
         13    1    3    3    0    0  0.12006347666E+02 -0.65859460684E+03  0.69679384406E+03  0.95886008868E+03  0.00000000000E+00 0. -1.
        -13    1    3    3    0    0  0.43857864858E+01 -0.11586107298E+04  0.10543927520E+04  0.15665701816E+04  0.00000000000E+00 0.  1.
         22    1    1    2    0    0 -0.16392134152E+02  0.18172053366E+04  0.14585200102E+04  0.23301898115E+04  0.00000000000E+00 0.  1.
<mgrwt>
<rscale>  0 0.36434640E+04</rscale>
<asrwt>0</asrwt>
<pdfrwt beam="1">  1        1 0.62040973E+00 0.36434640E+04</pdfrwt>
<pdfrwt beam="2">  1       -1 0.12660873E+00 0.36434640E+04</pdfrwt>
<totfact> 0.39113519E-02</totfact>
</mgrwt>
</event>
<event>
 6    1  0.2047711E-005  0.3920403E+04  0.7818608E-02  0.8020799E-01
          3   -1    0    0  501    0  0.00000000000E+00  0.00000000000E+00  0.30834801939E+04  0.30834801939E+04  0.00000000000E+00 0. -1.
         -3   -1    0    0    0  501 -0.00000000000E+00 -0.00000000000E+00 -0.12461214373E+04  0.12461214373E+04  0.00000000000E+00 0.  1.
         23    2    1    2    0    0 -0.50326496957E+03  0.17786524071E+04  0.20243967533E+03  0.18618414286E+04  0.92691252807E+02 0.  0.
         11    1    3    3    0    0 -0.32125296410E+02  0.89744654135E+02  0.30295417682E+02  0.10001974779E+03  0.00000000000E+00 0.  1.
        -11    1    3    3    0    0 -0.47113967316E+03  0.16889077530E+04  0.17214425765E+03  0.17618216809E+04  0.00000000000E+00 0. -1.
         22    1    1    2    0    0  0.50326496957E+03 -0.17786524071E+04  0.16349190813E+04  0.24677602026E+04  0.00000000000E+00 0.  1.
<mgrwt>
<rscale>  0 0.39204034E+04</rscale>
<asrwt>0</asrwt>
<pdfrwt beam="1">  1        3 0.47438157E+00 0.39204034E+04</pdfrwt>
<pdfrwt beam="2">  1       -3 0.19171099E+00 0.39204034E+04</pdfrwt>
<totfact> 0.15571714E-03</totfact>
</mgrwt>
</event>
<event>
 6    1  0.2047711E-005  0.4502521E+04  0.7818608E-02  0.7910196E-01
         -2   -1    0    0    0  501 -0.00000000000E+00  0.00000000000E+00  0.13448621764E+04  0.13448621764E+04  0.00000000000E+00 0.  1.
          2   -1    0    0  501    0  0.00000000000E+00 -0.00000000000E+00 -0.37685450437E+04  0.37685450437E+04  0.00000000000E+00 0. -1.
         23    2    1    2    0    0 -0.33613945497E+03 -0.14324375619E+04  0.72111498877E+03  0.16414307431E+04  0.97061606336E+02 0.  0.
         13    1    3    3    0    0 -0.79855870736E+02 -0.25286796427E+03  0.95500012100E+02  0.28184999513E+03  0.00000000000E+00 0. -1.
        -13    1    3    3    0    0 -0.25628358423E+03 -0.11795695976E+04  0.62561497667E+03  0.13595807479E+04  0.00000000000E+00 0.  1.
         22    1    1    2    0    0  0.33613945497E+03  0.14324375619E+04 -0.31447978560E+04  0.34719764770E+04  0.00000000000E+00 0. -1.
<mgrwt>
<rscale>  0 0.45025209E+04</rscale>
<asrwt>0</asrwt>
<pdfrwt beam="1">  1        2 0.57977616E+00 0.45025209E+04</pdfrwt>
<pdfrwt beam="2">  1       -2 0.20690187E+00 0.45025209E+04</pdfrwt>
<totfact> 0.46985122E-02</totfact>
</mgrwt>
</event>
<event>
 6    1  0.2047711E-005  0.1159410E+04  0.7818608E-02  0.9149146E-01
         -2   -1    0    0    0  501 -0.00000000000E+00  0.00000000000E+00  0.55286791798E+03  0.55286791798E+03  0.00000000000E+00 0.  1.
          2   -1    0    0  501    0  0.00000000000E+00 -0.00000000000E+00 -0.60784495539E+03  0.60784495539E+03  0.00000000000E+00 0. -1.
         23    2    1    2    0    0  0.38415945382E+03  0.39325077075E+03  0.14515679877E+03  0.57566739903E+03  0.89987795939E+02 0.  0.
         11    1    3    3    0    0  0.76540942473E+02  0.80277576712E+02 -0.71458789099E+01  0.11114885867E+03  0.00000000000E+00 0. -1.
        -11    1    3    3    0    0  0.30761851135E+03  0.31297319404E+03  0.15230267768E+03  0.46451854036E+03  0.00000000000E+00 0.  1.
         22    1    1    2    0    0 -0.38415945382E+03 -0.39325077075E+03 -0.20013383619E+03  0.58504547434E+03  0.00000000000E+00 0. -1.
<mgrwt>
<rscale>  0 0.11594102E+04</rscale>
<asrwt>0</asrwt>
<pdfrwt beam="1">  1        2 0.93514609E-01 0.11594102E+04</pdfrwt>
<pdfrwt beam="2">  1       -2 0.85056603E-01 0.11594102E+04</pdfrwt>
<totfact> 0.58135885E+01</totfact>
</mgrwt>
</event>
<event>
 6    1  0.2047711E-005  0.1030393E+04  0.7818608E-02  0.9275825E-01
         -2   -1    0    0    0  501 -0.00000000000E+00  0.00000000000E+00  0.37135143220E+03  0.37135143220E+03  0.00000000000E+00 0.  1.
          2   -1    0    0  501    0  0.00000000000E+00 -0.00000000000E+00 -0.71476047263E+03  0.71476047263E+03  0.00000000000E+00 0. -1.
         23    2    1    2    0    0 -0.25830722664E+03 -0.42999923381E+03 -0.68524416774E+02  0.51411232376E+03  0.89408731864E+02 0.  0.
         13    1    3    3    0    0 -0.54593758910E+02 -0.14681095849E+03  0.84954364595E+01  0.15686334335E+03  0.00000000000E+00 0.  1.
        -13    1    3    3    0    0 -0.20371346773E+03 -0.28318827532E+03 -0.77019853234E+02  0.35724898041E+03  0.00000000000E+00 0. -1.
         22    1    1    2    0    0  0.25830722664E+03  0.42999923381E+03 -0.27488462365E+03  0.57199958106E+03  0.00000000000E+00 0.  1.
<mgrwt>
<rscale>  0 0.10303928E+04</rscale>
<asrwt>0</asrwt>
<pdfrwt beam="1">  1        2 0.10996315E+00 0.10303928E+04</pdfrwt>
<pdfrwt beam="2">  1       -2 0.57130990E-01 0.10303928E+04</pdfrwt>
<totfact> 0.11424948E+02</totfact>
</mgrwt>
</event>
<event>
 6    1  0.2047711E-005  0.2406745E+04  0.7818608E-02  0.8436983E-01
          1   -1    0    0  501    0  0.00000000000E+00  0.00000000000E+00  0.27779536686E+04  0.27779536686E+04  0.00000000000E+00 0. -1.
         -1   -1    0    0    0  501 -0.00000000000E+00 -0.00000000000E+00 -0.52128504781E+03  0.52128504781E+03  0.00000000000E+00 0.  1.
         23    2    1    2    0    0 -0.60665750412E+03  0.58009332600E+03 -0.48636589697E+02  0.84587903882E+03  0.92759022619E+02 0.  0.
         11    1    3    3    0    0 -0.50228590413E+03  0.42818235390E+03 -0.31530496423E+02  0.66077638418E+03  0.00000000000E+00 0. -1.
        -11    1    3    3    0    0 -0.10437159999E+03  0.15191097209E+03 -0.17106093274E+02  0.18510265464E+03  0.00000000000E+00 0.  1.
         22    1    1    2    0    0  0.60665750412E+03 -0.58009332600E+03  0.23053052105E+04  0.24533596776E+04  0.00000000000E+00 0. -1.
<mgrwt>
<rscale>  0 0.24067453E+04</rscale>
<asrwt>0</asrwt>
<pdfrwt beam="1">  1        1 0.42737748E+00 0.24067453E+04</pdfrwt>
<pdfrwt beam="2">  1       -1 0.80197701E-01 0.24067453E+04</pdfrwt>
<totfact> 0.12007791E+00</totfact>
</mgrwt>
</event>
<event>
 6    1  0.2047711E-005  0.1992248E+04  0.7818608E-02  0.8610254E-01
         -2   -1    0    0    0  501 -0.00000000000E+00  0.00000000000E+00  0.11874417971E+04  0.11874417971E+04  0.00000000000E+00 0.  1.
          2   -1    0    0  501    0  0.00000000000E+00 -0.00000000000E+00 -0.83563069552E+03  0.83563069552E+03  0.00000000000E+00 0. -1.
         23    2    1    2    0    0 -0.24692706664E+03 -0.91986989224E+03  0.46395582574E+03  0.10640573551E+04  0.99143591473E+02 0.  0.
         13    1    3    3    0    0 -0.15901686532E+02 -0.18135879698E+03  0.11397171301E+03  0.21478693686E+03  0.00000000000E+00 0. -1.
        -13    1    3    3    0    0 -0.23102538011E+03 -0.73851109525E+03  0.34998411273E+03  0.84927041820E+03  0.00000000000E+00 0.  1.
         22    1    1    2    0    0  0.24692706664E+03  0.91986989224E+03 -0.11214472417E+03  0.95901513755E+03  0.00000000000E+00 0. -1.
<mgrwt>
<rscale>  0 0.19922478E+04</rscale>
<asrwt>0</asrwt>
<pdfrwt beam="1">  1        2 0.12855857E+00 0.19922478E+04</pdfrwt>
<pdfrwt beam="2">  1       -2 0.18268335E+00 0.19922478E+04</pdfrwt>
<totfact> 0.52454220E+00</totfact>
</mgrwt>
</event>
<event>
 6    1  0.2047711E-005  0.3692881E+04  0.7818608E-02  0.8069541E-01
          2   -1    0    0  501    0  0.00000000000E+00  0.00000000000E+00  0.33964311387E+04  0.33964311387E+04  0.00000000000E+00 0. -1.
         -2   -1    0    0    0  501 -0.00000000000E+00 -0.00000000000E+00 -0.10038016936E+04  0.10038016936E+04  0.00000000000E+00 0.  1.
         23    2    1    2    0    0 -0.12403477938E+04  0.13471013957E+04  0.92533033123E+03  0.20537223359E+04  0.91620911007E+02 0.  0.
         13    1    3    3    0    0 -0.59691436792E+03  0.67659517109E+03  0.40925513068E+03  0.99074595642E+03  0.00000000000E+00 0. -1.
        -13    1    3    3    0    0 -0.64343342590E+03  0.67050622457E+03  0.51607520055E+03  0.10629763795E+04  0.00000000000E+00 0.  1.
         22    1    1    2    0    0  0.12403477938E+04 -0.13471013957E+04  0.14672991139E+04  0.23465104963E+04  0.00000000000E+00 0. -1.
<mgrwt>
<rscale>  0 0.36928814E+04</rscale>
<asrwt>0</asrwt>
<pdfrwt beam="1">  1        2 0.52252786E+00 0.36928814E+04</pdfrwt>
<pdfrwt beam="2">  1       -2 0.15443103E+00 0.36928814E+04</pdfrwt>
<totfact> 0.21469084E-01</totfact>
</mgrwt>
</event>
<event>
 6    1  0.2047711E-005  0.2213927E+04  0.7818608E-02  0.8512654E-01
         -2   -1    0    0    0  501 -0.00000000000E+00  0.00000000000E+00  0.67111481859E+03  0.67111481859E+03  0.00000000000E+00 0.  1.
          2   -1    0    0  501    0  0.00000000000E+00 -0.00000000000E+00 -0.18258693789E+04  0.18258693789E+04  0.00000000000E+00 0. -1.
         23    2    1    2    0    0 -0.10137765168E+03  0.83971565411E+03  0.22371554989E+03  0.87970881811E+03  0.91864842986E+02 0.  0.
         11    1    3    3    0    0 -0.54864600472E+02  0.57004749551E+03  0.10887910550E+03  0.58293990354E+03  0.00000000000E+00 0.  1.
        -11    1    3    3    0    0 -0.46513051210E+02  0.26966815860E+03  0.11483644439E+03  0.29676891457E+03  0.00000000000E+00 0. -1.
         22    1    1    2    0    0  0.10137765168E+03 -0.83971565411E+03 -0.13784701102E+04  0.16172753794E+04  0.00000000000E+00 0. -1.
<mgrwt>
<rscale>  0 0.22139268E+04</rscale>
<asrwt>0</asrwt>
<pdfrwt beam="1">  1        2 0.28090297E+00 0.22139268E+04</pdfrwt>
<pdfrwt beam="2">  1       -2 0.10324844E+00 0.22139268E+04</pdfrwt>
<totfact> 0.58333900E+00</totfact>
</mgrwt>
</event>
<event>
 6    1  0.2047711E-005  0.2843736E+04  0.7818608E-02  0.8289817E-01
         -2   -1    0    0    0  501 -0.00000000000E+00  0.00000000000E+00  0.14264909336E+04  0.14264909336E+04  0.00000000000E+00 0.  1.
          2   -1    0    0  501    0  0.00000000000E+00 -0.00000000000E+00 -0.14172604132E+04  0.14172604132E+04  0.00000000000E+00 0. -1.
         23    2    1    2    0    0 -0.76904997477E+03  0.11455072494E+04  0.34241851123E+03  0.14243715670E+04  0.89214358606E+02 0.  0.
         13    1    3    3    0    0 -0.56125674470E+03  0.88404148842E+03  0.23136447443E+03  0.10724122373E+04  0.00000000000E+00 0.  1.
        -13    1    3    3    0    0 -0.20779323007E+03  0.26146576101E+03  0.11105403680E+03  0.35195932965E+03  0.00000000000E+00 0. -1.
         22    1    1    2    0    0  0.76904997477E+03 -0.11455072494E+04 -0.33318799082E+03  0.14193797798E+04  0.00000000000E+00 0. -1.
<mgrwt>
<rscale>  0 0.28437364E+04</rscale>
<asrwt>0</asrwt>
<pdfrwt beam="1">  1        2 0.21804006E+00 0.28437364E+04</pdfrwt>
<pdfrwt beam="2">  1       -2 0.21946014E+00 0.28437364E+04</pdfrwt>
<totfact> 0.12218387E+00</totfact>
</mgrwt>
</event>
<event>
 6    1  0.2047711E-005  0.1378186E+04  0.7818608E-02  0.8969762E-01
         -2   -1    0    0    0  501 -0.00000000000E+00  0.00000000000E+00  0.52077563712E+03  0.52077563712E+03  0.00000000000E+00 0.  1.
          2   -1    0    0  501    0  0.00000000000E+00 -0.00000000000E+00 -0.91181166260E+03  0.91181166260E+03  0.00000000000E+00 0. -1.
         23    2    1    2    0    0  0.61851431244E+03 -0.16610533561E+03 -0.45224564284E+03  0.78923859608E+03  0.90666988871E+02 0.  0.
         13    1    3    3    0    0  0.46020786341E+03 -0.81683280436E+02 -0.32534732953E+03  0.56948601448E+03  0.00000000000E+00 0.  1.
        -13    1    3    3    0    0  0.15830644903E+03 -0.84422055175E+02 -0.12689831330E+03  0.21975258161E+03  0.00000000000E+00 0. -1.
         22    1    1    2    0    0 -0.61851431244E+03  0.16610533561E+03  0.61209617357E+02  0.64334870364E+03  0.00000000000E+00 0.  1.
<mgrwt>
<rscale>  0 0.13781862E+04</rscale>
<asrwt>0</asrwt>
<pdfrwt beam="1">  1        2 0.14027872E+00 0.13781862E+04</pdfrwt>
<pdfrwt beam="2">  1       -2 0.80119329E-01 0.13781862E+04</pdfrwt>
<totfact> 0.38674231E+01</totfact>
</mgrwt>
</event>
<event>
 6    1  0.2047711E-005  0.1871012E+04  0.7818608E-02  0.8669422E-01
         -2   -1    0    0    0  501 -0.00000000000E+00  0.00000000000E+00  0.45881224336E+03  0.45881224336E+03  0.00000000000E+00 0.  1.
          2   -1    0    0  501    0  0.00000000000E+00 -0.00000000000E+00 -0.19074719433E+04  0.19074719433E+04  0.00000000000E+00 0. -1.
         23    2    1    2    0    0  0.27837617444E+03  0.29487812905E+03  0.33855884088E+03  0.53363677972E+03  0.75496479728E+02 0.  0.
         13    1    3    3    0    0  0.16526026485E+03  0.13474894517E+03  0.20942998670E+03  0.29887982985E+03  0.00000000000E+00 0. -1.
        -13    1    3    3    0    0  0.11311590959E+03  0.16012918389E+03  0.12912885418E+03  0.23475694988E+03  0.00000000000E+00 0.  1.
         22    1    1    2    0    0 -0.27837617444E+03 -0.29487812905E+03 -0.17872185408E+04  0.18326474069E+04  0.00000000000E+00 0. -1.
<mgrwt>
<rscale>  0 0.18710120E+04</rscale>
<asrwt>0</asrwt>
<pdfrwt beam="1">  1        2 0.29345723E+00 0.18710120E+04</pdfrwt>
<pdfrwt beam="2">  1       -2 0.70586498E-01 0.18710120E+04</pdfrwt>
<totfact> 0.12886135E+01</totfact>
</mgrwt>
</event>
<event>
 6    1  0.2047711E-005  0.1817301E+04  0.7818608E-02  0.8697153E-01
         -2   -1    0    0    0  501 -0.00000000000E+00  0.00000000000E+00  0.36492669549E+03  0.36492669549E+03  0.00000000000E+00 0. -1.
          2   -1    0    0  501    0  0.00000000000E+00 -0.00000000000E+00 -0.22624978984E+04  0.22624978984E+04  0.00000000000E+00 0.  1.
         23    2    1    2    0    0  0.26660159812E+02  0.55774289032E+03 -0.19834954654E+04  0.20624724944E+04  0.88037677930E+02 0.  0.
         13    1    3    3    0    0  0.54751428635E+02  0.23704461400E+03 -0.86934839149E+03  0.90274830033E+03  0.00000000000E+00 0. -1.
        -13    1    3    3    0    0 -0.28091268823E+02  0.32069827632E+03 -0.11141470739E+04  0.11597241940E+04  0.00000000000E+00 0.  1.
         22    1    1    2    0    0 -0.26660159812E+02 -0.55774289032E+03  0.85924262564E+02  0.56495209949E+03  0.00000000000E+00 0. -1.
<mgrwt>
<rscale>  0 0.18173012E+04</rscale>
<asrwt>0</asrwt>
<pdfrwt beam="1">  1        2 0.34807659E+00 0.18173012E+04</pdfrwt>
<pdfrwt beam="2">  1       -2 0.56142569E-01 0.18173012E+04</pdfrwt>
<totfact> 0.13374102E+01</totfact>
</mgrwt>
</event>
<event>
 6    1  0.2152095E-005  0.3090858E+04  0.7818608E-02  0.8218251E-01
          1   -1    0    0  501    0  0.00000000000E+00  0.00000000000E+00  0.10020378864E+04  0.10020378864E+04  0.00000000000E+00 0. -1.
         -1   -1    0    0    0  501 -0.00000000000E+00 -0.00000000000E+00 -0.23834936172E+04  0.23834936172E+04  0.00000000000E+00 0.  1.
         23    2    1    2    0    0 -0.65004957225E+03  0.24618329366E+03  0.81890046850E+03  0.10779921076E+04  0.91095259270E+02 0.  0.
         13    1    3    3    0    0 -0.49262162988E+03  0.22623959652E+03  0.62069044683E+03  0.82408558782E+03  0.00000000000E+00 0.  1.
        -13    1    3    3    0    0 -0.15742794237E+03  0.19943697138E+02  0.19821002167E+03  0.25390651977E+03  0.00000000000E+00 0. -1.
         22    1    1    2    0    0  0.65004957225E+03 -0.24618329366E+03 -0.22003561993E+04  0.23075393960E+04  0.00000000000E+00 0.  1.
<mgrwt>
<rscale>  0 0.30908581E+04</rscale>
<asrwt>0</asrwt>
<pdfrwt beam="1">  1        1 0.15415968E+00 0.30908581E+04</pdfrwt>
<pdfrwt beam="2">  1       -1 0.36669132E+00 0.30908581E+04</pdfrwt>
<totfact> 0.15302388E-01</totfact>
</mgrwt>
</event>
<event>
 6    1  0.2047711E-005  0.3954963E+04  0.7818608E-02  0.8013694E-01
          2   -1    0    0  501    0  0.00000000000E+00  0.00000000000E+00  0.30167971040E+04  0.30167971040E+04  0.00000000000E+00 0.  1.
         -2   -1    0    0    0  501 -0.00000000000E+00 -0.00000000000E+00 -0.12962200416E+04  0.12962200416E+04  0.00000000000E+00 0. -1.
         23    2    1    2    0    0  0.10971194337E+04 -0.13633135818E+04  0.18626390450E+04  0.25573188284E+04  0.90334954281E+02 0.  0.
         13    1    3    3    0    0  0.10922152576E+03 -0.15200565517E+03  0.23887075142E+03  0.30347042159E+03  0.00000000000E+00 0.  1.
        -13    1    3    3    0    0  0.98789790791E+03 -0.12113079266E+04  0.16237682936E+04  0.22538484068E+04  0.00000000000E+00 0. -1.
         22    1    1    2    0    0 -0.10971194337E+04  0.13633135818E+04 -0.14206198255E+03  0.17556983172E+04  0.00000000000E+00 0. -1.
<mgrwt>
<rscale>  0 0.39549629E+04</rscale>
<asrwt>0</asrwt>
<pdfrwt beam="1">  1        2 0.46412263E+00 0.39549629E+04</pdfrwt>
<pdfrwt beam="2">  1       -2 0.19941847E+00 0.39549629E+04</pdfrwt>
<totfact> 0.18041344E-01</totfact>
</mgrwt>
</event>
<event>
 6    1  0.2743451E-005  0.4618860E+04  0.7818608E-02  0.7890152E-01
         -2   -1    0    0    0  501 -0.00000000000E+00  0.00000000000E+00  0.17722142663E+04  0.17722142663E+04  0.00000000000E+00 0.  1.
          2   -1    0    0  501    0  0.00000000000E+00 -0.00000000000E+00 -0.30094933446E+04  0.30094933446E+04  0.00000000000E+00 0. -1.
         23    2    1    2    0    0  0.61594261743E+03 -0.19646156805E+04  0.46207726359E+03  0.21120799109E+04  0.90917945698E+02 0.  0.
         13    1    3    3    0    0  0.38246621497E+03 -0.13102178319E+04  0.34038407904E+03  0.14067027028E+04  0.00000000000E+00 0. -1.
        -13    1    3    3    0    0  0.23347640246E+03 -0.65439784852E+03  0.12169318455E+03  0.70537720818E+03  0.00000000000E+00 0.  1.
         22    1    1    2    0    0 -0.61594261743E+03  0.19646156805E+04 -0.16993563418E+04  0.26696276999E+04  0.00000000000E+00 0.  1.
<mgrwt>
<rscale>  0 0.46188600E+04</rscale>
<asrwt>0</asrwt>
<pdfrwt beam="1">  1        2 0.46299897E+00 0.46188600E+04</pdfrwt>
<pdfrwt beam="2">  1       -2 0.27264835E+00 0.46188600E+04</pdfrwt>
<totfact> 0.60151733E-02</totfact>
</mgrwt>
</event>
<event>
 6    1  0.2047711E-005  0.1142385E+04  0.7818608E-02  0.9164838E-01
          1   -1    0    0  501    0  0.00000000000E+00  0.00000000000E+00  0.35618141216E+03  0.35618141216E+03  0.00000000000E+00 0. -1.
         -1   -1    0    0    0  501 -0.00000000000E+00 -0.00000000000E+00 -0.91599568525E+03  0.91599568525E+03  0.00000000000E+00 0.  1.
         23    2    1    2    0    0  0.50100807181E+03 -0.26369382358E+03 -0.32819937025E+03  0.66046721206E+03  0.89210935204E+02 0.  0.
         11    1    3    3    0    0  0.25935290881E+03 -0.11725953657E+03 -0.21219269838E+03  0.35502038177E+03  0.00000000000E+00 0. -1.
        -11    1    3    3    0    0  0.24165516300E+03 -0.14643428701E+03 -0.11600667187E+03  0.30544683029E+03  0.00000000000E+00 0.  1.
         22    1    1    2    0    0 -0.50100807181E+03  0.26369382358E+03 -0.23161490284E+03  0.61170988535E+03  0.00000000000E+00 0.  1.
<mgrwt>
<rscale>  0 0.11423846E+04</rscale>
<asrwt>0</asrwt>
<pdfrwt beam="1">  1        1 0.54797141E-01 0.11423846E+04</pdfrwt>
<pdfrwt beam="2">  1       -1 0.14092241E+00 0.11423846E+04</pdfrwt>
<totfact> 0.28655698E+01</totfact>
</mgrwt>
</event>
<event>
 6    1  0.2047711E-005  0.1078033E+04  0.7818608E-02  0.9226871E-01
         -2   -1    0    0    0  501 -0.00000000000E+00  0.00000000000E+00  0.28277344970E+03  0.28277344970E+03  0.00000000000E+00 0.  1.
          2   -1    0    0  501    0  0.00000000000E+00 -0.00000000000E+00 -0.10274607869E+04  0.10274607869E+04  0.00000000000E+00 0. -1.
         23    2    1    2    0    0  0.12530070844E+03  0.44615786600E+03 -0.70007739886E+03  0.84467311760E+03  0.92775008866E+02 0.  0.
         11    1    3    3    0    0  0.15300912467E+02  0.60279722551E+02 -0.16147561938E+03  0.17303796845E+03  0.00000000000E+00 0. -1.
        -11    1    3    3    0    0  0.10999979597E+03  0.38587814345E+03 -0.53860177949E+03  0.67163514915E+03  0.00000000000E+00 0.  1.
         22    1    1    2    0    0 -0.12530070844E+03 -0.44615786600E+03 -0.44609938349E+02  0.46556111901E+03  0.00000000000E+00 0. -1.
<mgrwt>
<rscale>  0 0.10780327E+04</rscale>
<asrwt>0</asrwt>
<pdfrwt beam="1">  1        2 0.15807089E+00 0.10780327E+04</pdfrwt>
<pdfrwt beam="2">  1       -2 0.43503607E-01 0.10780327E+04</pdfrwt>
<totfact> 0.12041954E+02</totfact>
</mgrwt>
</event>
<event>
 6    1  0.2047711E-005  0.3542763E+04  0.7818608E-02  0.8103730E-01
          1   -1    0    0  501    0  0.00000000000E+00  0.00000000000E+00  0.22600547375E+04  0.22600547375E+04  0.00000000000E+00 0. -1.
         -1   -1    0    0    0  501 -0.00000000000E+00 -0.00000000000E+00 -0.13883702468E+04  0.13883702468E+04  0.00000000000E+00 0.  1.
         23    2    1    2    0    0 -0.87318002789E+03 -0.13673527870E+04  0.11654064580E+04  0.19996770959E+04  0.91865501771E+02 0.  0.
         13    1    3    3    0    0 -0.51840523035E+03 -0.73768270950E+03  0.67415272126E+03  0.11257893472E+04  0.00000000000E+00 0.  1.
        -13    1    3    3    0    0 -0.35477479754E+03 -0.62967007752E+03  0.49125373672E+03  0.87388774871E+03  0.00000000000E+00 0. -1.
         22    1    1    2    0    0  0.87318002789E+03  0.13673527870E+04 -0.29372196728E+03  0.16487478884E+04  0.00000000000E+00 0.  1.
<mgrwt>
<rscale>  0 0.35427632E+04</rscale>
<asrwt>0</asrwt>
<pdfrwt beam="1">  1        1 0.34770073E+00 0.35427632E+04</pdfrwt>
<pdfrwt beam="2">  1       -1 0.21359542E+00 0.35427632E+04</pdfrwt>
<totfact> 0.19584993E-01</totfact>
</mgrwt>
</event>
<event>
 6    1  0.2047711E-005  0.2691210E+04  0.7818608E-02  0.8337863E-01
          2   -1    0    0  501    0  0.00000000000E+00  0.00000000000E+00  0.32616478956E+04  0.32616478956E+04  0.00000000000E+00 0. -1.
         -2   -1    0    0    0  501 -0.00000000000E+00 -0.00000000000E+00 -0.55513434331E+03  0.55513434331E+03  0.00000000000E+00 0.  1.
         23    2    1    2    0    0  0.60134879348E+03 -0.16910351850E+03  0.30426460433E+04  0.31074153219E+04  0.90103644701E+02 0.  0.
         13    1    3    3    0    0  0.29194506644E+03 -0.36788490603E+02  0.14730069285E+04  0.15021100913E+04  0.00000000000E+00 0.  1.
        -13    1    3    3    0    0  0.30940372705E+03 -0.13231502789E+03  0.15696391148E+04  0.16053052306E+04  0.00000000000E+00 0. -1.
         22    1    1    2    0    0 -0.60134879348E+03  0.16910351850E+03 -0.33613249101E+03  0.70936691698E+03  0.00000000000E+00 0.  1.
<mgrwt>
<rscale>  0 0.26912100E+04</rscale>
<asrwt>0</asrwt>
<pdfrwt beam="1">  1        2 0.50179197E+00 0.26912100E+04</pdfrwt>
<pdfrwt beam="2">  1       -2 0.85405286E-01 0.26912100E+04</pdfrwt>
<totfact> 0.12359192E+00</totfact>
</mgrwt>
</event>
<event>
 6    1  0.2047711E-005  0.1809908E+04  0.7818608E-02  0.8701048E-01
         -2   -1    0    0    0  501 -0.00000000000E+00  0.00000000000E+00  0.40316825886E+03  0.40316825886E+03  0.00000000000E+00 0.  1.
          2   -1    0    0  501    0  0.00000000000E+00 -0.00000000000E+00 -0.20312655047E+04  0.20312655047E+04  0.00000000000E+00 0. -1.
         23    2    1    2    0    0 -0.65960652967E+02  0.52017898649E+03  0.17155982761E+03  0.55994648226E+03  0.95761698105E+02 0.  0.
         11    1    3    3    0    0  0.18659856787E+02  0.18466310689E+03  0.79308452948E+02  0.20183776657E+03  0.00000000000E+00 0.  1.
        -11    1    3    3    0    0 -0.84620509753E+02  0.33551587959E+03  0.92251374665E+02  0.35810871569E+03  0.00000000000E+00 0. -1.
         22    1    1    2    0    0  0.65960652967E+02 -0.52017898649E+03 -0.17996570735E+04  0.18744872813E+04  0.00000000000E+00 0. -1.
<mgrwt>
<rscale>  0 0.18099080E+04</rscale>
<asrwt>0</asrwt>
<pdfrwt beam="1">  1        2 0.31250239E+00 0.18099080E+04</pdfrwt>
<pdfrwt beam="2">  1       -2 0.62025886E-01 0.18099080E+04</pdfrwt>
<totfact> 0.14613815E+01</totfact>
</mgrwt>
</event>
<event>
 6    1  0.2047711E-005  0.3050044E+04  0.7818608E-02  0.8229583E-01
          2   -1    0    0  501    0  0.00000000000E+00  0.00000000000E+00  0.27258386335E+04  0.27258386335E+04  0.00000000000E+00 0. -1.
         -2   -1    0    0    0  501 -0.00000000000E+00 -0.00000000000E+00 -0.85320247873E+03  0.85320247873E+03  0.00000000000E+00 0.  1.
         23    2    1    2    0    0 -0.66623608250E+03 -0.35612150332E+03 -0.61556994618E+03  0.97868293621E+03  0.90558755632E+02 0.  0.
         13    1    3    3    0    0 -0.33824724894E+03 -0.17595151861E+03 -0.36859983645E+03  0.53031686542E+03  0.00000000000E+00 0. -1.
        -13    1    3    3    0    0 -0.32798883356E+03 -0.18016998470E+03 -0.24697010973E+03  0.44836607078E+03  0.00000000000E+00 0.  1.
         22    1    1    2    0    0  0.66623608250E+03  0.35612150332E+03  0.24882061010E+04  0.26003581760E+04  0.00000000000E+00 0. -1.
<mgrwt>
<rscale>  0 0.30500441E+04</rscale>
<asrwt>0</asrwt>
<pdfrwt beam="1">  1        2 0.41935979E+00 0.30500441E+04</pdfrwt>
<pdfrwt beam="2">  1       -2 0.13126192E+00 0.30500441E+04</pdfrwt>
<totfact> 0.92551821E-01</totfact>
</mgrwt>
</event>
<event>
 6    1  0.2047711E-005  0.1883367E+04  0.7818608E-02  0.8663180E-01
         -2   -1    0    0    0  501 -0.00000000000E+00  0.00000000000E+00  0.59365964675E+03  0.59365964675E+03  0.00000000000E+00 0.  1.
          2   -1    0    0  501    0  0.00000000000E+00 -0.00000000000E+00 -0.14937307177E+04  0.14937307177E+04  0.00000000000E+00 0. -1.
         23    2    1    2    0    0 -0.10862098380E+03 -0.38411538910E+03 -0.13937074200E+04  0.14525518060E+04  0.90239826445E+02 0.  0.
         11    1    3    3    0    0 -0.93547584818E+02 -0.21447172821E+03 -0.91524592686E+03  0.94468215790E+03  0.00000000000E+00 0.  1.
        -11    1    3    3    0    0 -0.15073398979E+02 -0.16964366089E+03 -0.47846149312E+03  0.50786964808E+03  0.00000000000E+00 0. -1.
         22    1    1    2    0    0  0.10862098380E+03  0.38411538910E+03  0.49363634902E+03  0.63483855848E+03  0.00000000000E+00 0.  1.
<mgrwt>
<rscale>  0 0.18833668E+04</rscale>
<asrwt>0</asrwt>
<pdfrwt beam="1">  1        2 0.22980472E+00 0.18833668E+04</pdfrwt>
<pdfrwt beam="2">  1       -2 0.91332254E-01 0.18833668E+04</pdfrwt>
<totfact> 0.12260583E+01</totfact>
</mgrwt>
</event>
<event>
 6    1  0.2047711E-005  0.1971177E+04  0.7818608E-02  0.8620216E-01
         -2   -1    0    0    0  501 -0.00000000000E+00  0.00000000000E+00  0.71712670058E+03  0.71712670058E+03  0.00000000000E+00 0.  1.
          2   -1    0    0  501    0  0.00000000000E+00 -0.00000000000E+00 -0.13545516117E+04  0.13545516117E+04  0.00000000000E+00 0. -1.
         23    2    1    2    0    0 -0.51520821868E+03 -0.18865057896E+03 -0.11773062096E+04  0.13019378585E+04  0.89239714783E+02 0.  0.
         13    1    3    3    0    0 -0.44556831515E+03 -0.18206387508E+03 -0.96454911862E+03  0.10779765212E+04  0.00000000000E+00 0.  1.
        -13    1    3    3    0    0 -0.69639903528E+02 -0.65867038761E+01 -0.21275709103E+03  0.22396133732E+03  0.00000000000E+00 0. -1.
         22    1    1    2    0    0  0.51520821868E+03  0.18865057896E+03  0.53988129856E+03  0.76974045371E+03  0.00000000000E+00 0.  1.
<mgrwt>
<rscale>  0 0.19711774E+04</rscale>
<asrwt>0</asrwt>
<pdfrwt beam="1">  1        2 0.20839256E+00 0.19711774E+04</pdfrwt>
<pdfrwt beam="2">  1       -2 0.11032718E+00 0.19711774E+04</pdfrwt>
<totfact> 0.93371118E+00</totfact>
</mgrwt>
</event>
<event>
 6    1  0.2047711E-005  0.1607326E+04  0.7818608E-02  0.8816060E-01
          1   -1    0    0  501    0  0.00000000000E+00  0.00000000000E+00  0.39773014130E+03  0.39773014130E+03  0.00000000000E+00 0. -1.
         -1   -1    0    0    0  501 -0.00000000000E+00 -0.00000000000E+00 -0.16239002168E+04  0.16239002168E+04  0.00000000000E+00 0.  1.
         23    2    1    2    0    0  0.95520402689E+02  0.77802639513E+03 -0.40626333981E+03  0.88730400556E+03  0.88370120224E+02 0.  0.
         13    1    3    3    0    0  0.10023185514E+02  0.44157080562E+03 -0.22797150089E+03  0.49704752875E+03  0.00000000000E+00 0. -1.
        -13    1    3    3    0    0  0.85497217175E+02  0.33645558951E+03 -0.17829183893E+03  0.39025647680E+03  0.00000000000E+00 0.  1.
         22    1    1    2    0    0 -0.95520402689E+02 -0.77802639513E+03 -0.81990673567E+03  0.11343263525E+04  0.00000000000E+00 0.  1.
<mgrwt>
<rscale>  0 0.16073258E+04</rscale>
<asrwt>0</asrwt>
<pdfrwt beam="1">  1        1 0.61189252E-01 0.16073258E+04</pdfrwt>
<pdfrwt beam="2">  1       -1 0.24983081E+00 0.16073258E+04</pdfrwt>
<totfact> 0.40536398E+00</totfact>
</mgrwt>
</event>
<event>
 6    1  0.2047711E-005  0.3645441E+04  0.7818608E-02  0.8080161E-01
         -2   -1    0    0    0  501 -0.00000000000E+00  0.00000000000E+00  0.17127542384E+04  0.17127542384E+04  0.00000000000E+00 0.  1.
          2   -1    0    0  501    0  0.00000000000E+00 -0.00000000000E+00 -0.19397472597E+04  0.19397472597E+04  0.00000000000E+00 0. -1.
         23    2    1    2    0    0 -0.64405877025E+03  0.26295730670E+03  0.15732072557E+04  0.17225586798E+04  0.90934544286E+02 0.  0.
         13    1    3    3    0    0 -0.58135813607E+03  0.25405594399E+03  0.13713547878E+04  0.15110048508E+04  0.00000000000E+00 0. -1.
        -13    1    3    3    0    0 -0.62700634183E+02  0.89013627121E+01  0.20185246789E+03  0.21155382903E+03  0.00000000000E+00 0.  1.
         22    1    1    2    0    0  0.64405877025E+03 -0.26295730670E+03 -0.18002002770E+04  0.19299428183E+04  0.00000000000E+00 0. -1.
<mgrwt>
<rscale>  0 0.36454412E+04</rscale>
<asrwt>0</asrwt>
<pdfrwt beam="1">  1        2 0.29842265E+00 0.36454412E+04</pdfrwt>
<pdfrwt beam="2">  1       -2 0.26350065E+00 0.36454412E+04</pdfrwt>
<totfact> 0.31125500E-01</totfact>
</mgrwt>
</event>
<event>
 6    1  0.2047711E-005  0.1550360E+04  0.7818608E-02  0.8851638E-01
         -2   -1    0    0    0  501 -0.00000000000E+00  0.00000000000E+00  0.48525358536E+03  0.48525358536E+03  0.00000000000E+00 0. -1.
          2   -1    0    0  501    0  0.00000000000E+00 -0.00000000000E+00 -0.12383293516E+04  0.12383293516E+04  0.00000000000E+00 0.  1.
         23    2    1    2    0    0  0.32973556738E+03 -0.24622392546E+03 -0.11042792708E+04  0.11825693812E+04  0.98416805920E+02 0.  0.
         11    1    3    3    0    0  0.22877362282E+02 -0.58839276845E+02 -0.14630448658E+03  0.15934376988E+03  0.00000000000E+00 0. -1.
        -11    1    3    3    0    0  0.30685820510E+03 -0.18738464862E+03 -0.95797478417E+03  0.10232256113E+04  0.00000000000E+00 0.  1.
         22    1    1    2    0    0 -0.32973556738E+03  0.24622392546E+03  0.35120350454E+03  0.54101355572E+03  0.00000000000E+00 0. -1.
<mgrwt>
<rscale>  0 0.15503596E+04</rscale>
<asrwt>0</asrwt>
<pdfrwt beam="1">  1        2 0.19051221E+00 0.15503596E+04</pdfrwt>
<pdfrwt beam="2">  1       -2 0.74654396E-01 0.15503596E+04</pdfrwt>
<totfact> 0.27908627E+01</totfact>
</mgrwt>
</event>
<event>
 6    1  0.2047711E-005  0.3249887E+04  0.7818608E-02  0.8175765E-01
          2   -1    0    0  501    0  0.00000000000E+00  0.00000000000E+00  0.31077892943E+04  0.31077892943E+04  0.00000000000E+00 0. -1.
         -2   -1    0    0    0  501 -0.00000000000E+00 -0.00000000000E+00 -0.84962020294E+03  0.84962020294E+03  0.00000000000E+00 0.  1.
         23    2    1    2    0    0  0.67932080952E+02  0.40456268629E+03  0.30429770943E+04  0.30718535497E+04  0.91043394080E+02 0.  0.
         13    1    3    3    0    0  0.70251078958E+01  0.56921629207E+02  0.71229202314E+03  0.71459733434E+03  0.00000000000E+00 0. -1.
        -13    1    3    3    0    0  0.60906973057E+02  0.34764105708E+03  0.23306850711E+04  0.23572562153E+04  0.00000000000E+00 0.  1.
         22    1    1    2    0    0 -0.67932080952E+02 -0.40456268629E+03 -0.78480800293E+03  0.88555594754E+03  0.00000000000E+00 0.  1.
<mgrwt>
<rscale>  0 0.32498865E+04</rscale>
<asrwt>0</asrwt>
<pdfrwt beam="1">  1        2 0.47812142E+00 0.32498865E+04</pdfrwt>
<pdfrwt beam="2">  1       -2 0.13071080E+00 0.32498865E+04</pdfrwt>
<totfact> 0.53392559E-01</totfact>
</mgrwt>
</event>
<event>
 6    1  0.2047711E-005  0.1276777E+04  0.7818608E-02  0.9048186E-01
          1   -1    0    0  501    0  0.00000000000E+00  0.00000000000E+00  0.21488742096E+04  0.21488742096E+04  0.00000000000E+00 0. -1.
         -1   -1    0    0    0  501 -0.00000000000E+00 -0.00000000000E+00 -0.18965282012E+03  0.18965282012E+03  0.00000000000E+00 0.  1.
         23    2    1    2    0    0  0.10518150209E+03  0.61116886988E+03  0.73441962959E+03  0.96567238085E+03  0.92522531940E+02 0.  0.
         11    1    3    3    0    0 -0.12075694631E+02  0.29314669019E+02  0.23035997627E+02  0.39189659442E+02  0.00000000000E+00 0.  1.
        -11    1    3    3    0    0  0.11725719672E+03  0.58185420086E+03  0.71138363196E+03  0.92648272140E+03  0.00000000000E+00 0. -1.
         22    1    1    2    0    0 -0.10518150209E+03 -0.61116886988E+03  0.12248017599E+04  0.13728546489E+04  0.00000000000E+00 0.  1.
<mgrwt>
<rscale>  0 0.12767773E+04</rscale>
<asrwt>0</asrwt>
<pdfrwt beam="1">  1        1 0.33059602E+00 0.12767773E+04</pdfrwt>
<pdfrwt beam="2">  1       -1 0.29177358E-01 0.12767773E+04</pdfrwt>
<totfact> 0.24948065E+01</totfact>
</mgrwt>
</event>
<event>
 6    1  0.2047711E-005  0.1869301E+04  0.7818608E-02  0.8670290E-01
         -4   -1    0    0    0  501 -0.00000000000E+00  0.00000000000E+00  0.10820812010E+04  0.10820812010E+04  0.00000000000E+00 0.  1.
          4   -1    0    0  501    0  0.00000000000E+00 -0.00000000000E+00 -0.80730657378E+03  0.80730657378E+03  0.00000000000E+00 0. -1.
         23    2    1    2    0    0 -0.47307046917E+03 -0.76219888849E+03 -0.11932333631E+03  0.90956329088E+03  0.91238736930E+02 0.  0.
         13    1    3    3    0    0 -0.26310073635E+03 -0.40563360216E+03 -0.10908883022E+03  0.49564199736E+03  0.00000000000E+00 0. -1.
        -13    1    3    3    0    0 -0.20996973282E+03 -0.35656528633E+03 -0.10234506095E+02  0.41392129352E+03  0.00000000000E+00 0.  1.
         22    1    1    2    0    0  0.47307046917E+03  0.76219888849E+03  0.39409796355E+03  0.97982448392E+03  0.00000000000E+00 0. -1.
<mgrwt>
<rscale>  0 0.18693007E+04</rscale>
<asrwt>0</asrwt>
<pdfrwt beam="1">  1        4 0.12420101E+00 0.18693007E+04</pdfrwt>
<pdfrwt beam="2">  1       -4 0.16647403E+00 0.18693007E+04</pdfrwt>
<totfact> 0.20455658E-01</totfact>
</mgrwt>
</event>
<event>
 6    1  0.2047711E-005  0.3458107E+04  0.7818608E-02  0.8123790E-01
         -2   -1    0    0    0  501 -0.00000000000E+00  0.00000000000E+00  0.96885545400E+03  0.96885545400E+03  0.00000000000E+00 0.  1.
          2   -1    0    0  501    0  0.00000000000E+00 -0.00000000000E+00 -0.30857297983E+04  0.30857297983E+04  0.00000000000E+00 0. -1.
         23    2    1    2    0    0  0.10504429582E+04 -0.83490157172E+03 -0.23354743890E+04  0.26950717281E+04  0.92086671170E+02 0.  0.
         11    1    3    3    0    0  0.80400081205E+03 -0.67195666520E+03 -0.17638010239E+04  0.20515694279E+04  0.00000000000E+00 0.  1.
        -11    1    3    3    0    0  0.24644214619E+03 -0.16294490653E+03 -0.57167336510E+03  0.64350230019E+03  0.00000000000E+00 0. -1.
         22    1    1    2    0    0 -0.10504429582E+04  0.83490157172E+03  0.21860004466E+03  0.13595135242E+04  0.00000000000E+00 0.  1.
<mgrwt>
<rscale>  0 0.34581071E+04</rscale>
<asrwt>0</asrwt>
<pdfrwt beam="1">  1        2 0.47472766E+00 0.34581071E+04</pdfrwt>
<pdfrwt beam="2">  1       -2 0.14905469E+00 0.34581071E+04</pdfrwt>
<totfact> 0.38573582E-01</totfact>
</mgrwt>
</event>
<event>
 6    1  0.2047711E-005  0.7809780E+03  0.7818608E-02  0.9587966E-01
         -2   -1    0    0    0  501 -0.00000000000E+00  0.00000000000E+00  0.64697027325E+02  0.64697027325E+02  0.00000000000E+00 0.  1.
          2   -1    0    0  501    0  0.00000000000E+00 -0.00000000000E+00 -0.23568570326E+04  0.23568570326E+04  0.00000000000E+00 0. -1.
         23    2    1    2    0    0 -0.67349920827E+02  0.18207482034E+03 -0.21931749590E+04  0.22036428592E+04  0.91313732545E+02 0.  0.
         13    1    3    3    0    0 -0.20639591296E+01  0.95564370187E+02 -0.69346375660E+03  0.70002056433E+03  0.00000000000E+00 0. -1.
        -13    1    3    3    0    0 -0.65285961697E+02  0.86510450153E+02 -0.14997112025E+04  0.15036222948E+04  0.00000000000E+00 0.  1.
         22    1    1    2    0    0  0.67349920827E+02 -0.18207482034E+03 -0.98985046229E+02  0.21791120075E+03  0.00000000000E+00 0.  1.
<mgrwt>
<rscale>  0 0.78097796E+03</rscale>
<asrwt>0</asrwt>
<pdfrwt beam="1">  1        2 0.36259341E+00 0.78097796E+03</pdfrwt>
<pdfrwt beam="2">  1       -2 0.99533883E-02 0.78097796E+03</pdfrwt>
<totfact> 0.29997898E+02</totfact>
</mgrwt>
</event>
<event>
 6    1  0.2047711E-005  0.2069704E+04  0.7818608E-02  0.8574708E-01
         -2   -1    0    0    0  501 -0.00000000000E+00  0.00000000000E+00  0.15998907466E+04  0.15998907466E+04  0.00000000000E+00 0.  1.
          2   -1    0    0  501    0  0.00000000000E+00 -0.00000000000E+00 -0.66936987154E+03  0.66936987154E+03  0.00000000000E+00 0. -1.
         23    2    1    2    0    0  0.37696782113E+03 -0.73417352992E+03  0.11470617576E+04  0.14160282559E+04  0.90938635437E+02 0.  0.
         13    1    3    3    0    0  0.33033779303E+03 -0.60970320553E+03  0.10096607801E+04  0.12248575212E+04  0.00000000000E+00 0. -1.
        -13    1    3    3    0    0  0.46630028100E+02 -0.12447032439E+03  0.13740097752E+03  0.19117073468E+03  0.00000000000E+00 0.  1.
         22    1    1    2    0    0 -0.37696782113E+03  0.73417352992E+03 -0.21654088257E+03  0.85323236227E+03  0.00000000000E+00 0. -1.
<mgrwt>
<rscale>  0 0.20697040E+04</rscale>
<asrwt>0</asrwt>
<pdfrwt beam="1">  1        2 0.10297998E+00 0.20697040E+04</pdfrwt>
<pdfrwt beam="2">  1       -2 0.24613704E+00 0.20697040E+04</pdfrwt>
<totfact> 0.27177373E+00</totfact>
</mgrwt>
</event>
<event>
 6    1  0.2047711E-005  0.2859963E+04  0.7818608E-02  0.8284890E-01
          2   -1    0    0  501    0  0.00000000000E+00  0.00000000000E+00  0.34744347255E+04  0.34744347255E+04  0.00000000000E+00 0.  1.
         -2   -1    0    0    0  501 -0.00000000000E+00 -0.00000000000E+00 -0.58854087855E+03  0.58854087855E+03  0.00000000000E+00 0. -1.
         23    2    1    2    0    0  0.12121658832E+04 -0.75501450469E+03  0.14651633451E+04  0.20485605054E+04  0.10248651561E+03 0.  0.
         13    1    3    3    0    0  0.60979803330E+03 -0.33386175478E+03  0.75974468546E+03  0.10298200327E+04  0.00000000000E+00 0.  1.
        -13    1    3    3    0    0  0.60236784988E+03 -0.42115274991E+03  0.70541865967E+03  0.10187404727E+04  0.00000000000E+00 0. -1.
         22    1    1    2    0    0 -0.12121658832E+04  0.75501450469E+03  0.14207305018E+04  0.20144150986E+04  0.00000000000E+00 0.  1.
<mgrwt>
<rscale>  0 0.28599628E+04</rscale>
<asrwt>0</asrwt>
<pdfrwt beam="1">  1        2 0.53452841E+00 0.28599628E+04</pdfrwt>
<pdfrwt beam="2">  1       -2 0.90544752E-01 0.28599628E+04</pdfrwt>
<totfact> 0.76413432E-01</totfact>
</mgrwt>
</event>
<event>
 6    1  0.2544711E-005  0.4097942E+04  0.7818608E-02  0.7985075E-01
          2   -1    0    0  501    0  0.00000000000E+00  0.00000000000E+00  0.28694689105E+04  0.28694689105E+04  0.00000000000E+00 0. -1.
         -2   -1    0    0    0  501 -0.00000000000E+00 -0.00000000000E+00 -0.14630864888E+04  0.14630864888E+04  0.00000000000E+00 0.  1.
         23    2    1    2    0    0 -0.25939330033E+03  0.49272398364E+03 -0.13810459397E+04  0.14900532131E+04  0.53934051354E+02 0.  0.
         11    1    3    3    0    0 -0.10301463098E+03  0.14564211332E+03 -0.41599876535E+03  0.45263518659E+03  0.00000000000E+00 0. -1.
        -11    1    3    3    0    0 -0.15637866935E+03  0.34708187032E+03 -0.96504717437E+03  0.10374180265E+04  0.00000000000E+00 0.  1.
         22    1    1    2    0    0  0.25939330033E+03 -0.49272398364E+03  0.27874283615E+04  0.28425021862E+04  0.00000000000E+00 0. -1.
<mgrwt>
<rscale>  0 0.40979415E+04</rscale>
<asrwt>0</asrwt>
<pdfrwt beam="1">  1        2 0.44145675E+00 0.40979415E+04</pdfrwt>
<pdfrwt beam="2">  1       -2 0.22509023E+00 0.40979415E+04</pdfrwt>
<totfact> 0.15064076E-01</totfact>
</mgrwt>
</event>
<event>
 6    1  0.2047711E-005  0.3221936E+04  0.7818608E-02  0.8183048E-01
         -2   -1    0    0    0  501 -0.00000000000E+00  0.00000000000E+00  0.10449188337E+04  0.10449188337E+04  0.00000000000E+00 0.  1.
          2   -1    0    0  501    0  0.00000000000E+00 -0.00000000000E+00 -0.24836547919E+04  0.24836547919E+04  0.00000000000E+00 0. -1.
         23    2    1    2    0    0 -0.55205014227E+02  0.10986131433E+04  0.56710354843E+03  0.12409131266E+04  0.90887407408E+02 0.  0.
         11    1    3    3    0    0 -0.45032094486E+02  0.73925914083E+03  0.42826625668E+03  0.85553723090E+03  0.00000000000E+00 0. -1.
        -11    1    3    3    0    0 -0.10172919741E+02  0.35935400251E+03  0.13883729176E+03  0.38537589571E+03  0.00000000000E+00 0.  1.
         22    1    1    2    0    0  0.55205014227E+02 -0.10986131433E+04 -0.20058395066E+04  0.22876604990E+04  0.00000000000E+00 0. -1.
<mgrwt>
<rscale>  0 0.32219359E+04</rscale>
<asrwt>0</asrwt>
<pdfrwt beam="1">  1        2 0.38210073E+00 0.32219359E+04</pdfrwt>
<pdfrwt beam="2">  1       -2 0.16075675E+00 0.32219359E+04</pdfrwt>
<totfact> 0.74352959E-01</totfact>
</mgrwt>
</event>
<event>
 6    1  0.2047711E-005  0.3108298E+04  0.7818608E-02  0.8213464E-01
         -2   -1    0    0    0  501 -0.00000000000E+00  0.00000000000E+00  0.16249542903E+04  0.16249542903E+04  0.00000000000E+00 0.  1.
          2   -1    0    0  501    0  0.00000000000E+00 -0.00000000000E+00 -0.14864286461E+04  0.14864286461E+04  0.00000000000E+00 0. -1.
         23    2    1    2    0    0  0.90963745920E+03  0.99222938676E+03  0.84429637991E+03  0.15914909025E+04  0.89707595035E+02 0.  0.
         13    1    3    3    0    0  0.67970890769E+03  0.79617017564E+03  0.66135063748E+03  0.12382551488E+04  0.00000000000E+00 0.  1.
        -13    1    3    3    0    0  0.22992855151E+03  0.19605921112E+03  0.18294574244E+03  0.35323575377E+03  0.00000000000E+00 0. -1.
         22    1    1    2    0    0 -0.90963745920E+03 -0.99222938676E+03 -0.70577073576E+03  0.15198920339E+04  0.00000000000E+00 0. -1.
<mgrwt>
<rscale>  0 0.31082977E+04</rscale>
<asrwt>0</asrwt>
<pdfrwt beam="1">  1        2 0.22868133E+00 0.31082977E+04</pdfrwt>
<pdfrwt beam="2">  1       -2 0.24999297E+00 0.31082977E+04</pdfrwt>
<totfact> 0.70452398E-01</totfact>
</mgrwt>
</event>
<event>
 6    1  0.2047711E-005  0.2449607E+04  0.7818608E-02  0.8421162E-01
         -2   -1    0    0    0  501 -0.00000000000E+00  0.00000000000E+00  0.19487247035E+04  0.19487247035E+04  0.00000000000E+00 0.  1.
          2   -1    0    0  501    0  0.00000000000E+00 -0.00000000000E+00 -0.76980771109E+03  0.76980771109E+03  0.00000000000E+00 0. -1.
         23    2    1    2    0    0  0.12159594496E+04  0.11806803590E+03  0.52511026151E+03  0.13329059550E+04  0.91651808800E+02 0.  0.
         13    1    3    3    0    0  0.31588272768E+03  0.64663916995E+02  0.11458645856E+03  0.34218909435E+03  0.00000000000E+00 0.  1.
        -13    1    3    3    0    0  0.90007672191E+03  0.53404118905E+02  0.41052380294E+03  0.99071686067E+03  0.00000000000E+00 0. -1.
         22    1    1    2    0    0 -0.12159594496E+04 -0.11806803590E+03  0.65380673094E+03  0.13856264596E+04  0.00000000000E+00 0. -1.
<mgrwt>
<rscale>  0 0.24496067E+04</rscale>
<asrwt>0</asrwt>
<pdfrwt beam="1">  1        2 0.11843196E+00 0.24496067E+04</pdfrwt>
<pdfrwt beam="2">  1       -2 0.29980380E+00 0.24496067E+04</pdfrwt>
<totfact> 0.10347899E+00</totfact>
</mgrwt>
</event>
<event>
 6    1  0.2047711E-005  0.3033193E+04  0.7818608E-02  0.8234315E-01
         -1   -1    0    0    0  501 -0.00000000000E+00  0.00000000000E+00  0.15674903809E+04  0.15674903809E+04  0.00000000000E+00 0.  1.
          1   -1    0    0  501    0  0.00000000000E+00 -0.00000000000E+00 -0.14673551672E+04  0.14673551672E+04  0.00000000000E+00 0. -1.
         23    2    1    2    0    0 -0.87449472594E+03  0.98911281052E+03 -0.69292925207E+03  0.14947038584E+04  0.10441981786E+03 0.  0.
         13    1    3    3    0    0 -0.58670046753E+03  0.64289767805E+03 -0.40236918032E+03  0.95887216057E+03  0.00000000000E+00 0.  1.
        -13    1    3    3    0    0 -0.28779425841E+03  0.34621513247E+03 -0.29056007174E+03  0.53583169785E+03  0.00000000000E+00 0. -1.
         22    1    1    2    0    0  0.87449472594E+03 -0.98911281052E+03  0.79306446571E+03  0.15401416897E+04  0.00000000000E+00 0. -1.
<mgrwt>
<rscale>  0 0.30331931E+04</rscale>
<asrwt>0</asrwt>
<pdfrwt beam="1">  1        1 0.22574695E+00 0.30331931E+04</pdfrwt>
<pdfrwt beam="2">  1       -1 0.24115237E+00 0.30331931E+04</pdfrwt>
<totfact> 0.46604269E-01</totfact>
</mgrwt>
</event>
<event>
 6    1  0.2047711E-005  0.9991609E+03  0.7818608E-02  0.9309466E-01
         -2   -1    0    0    0  501 -0.00000000000E+00  0.00000000000E+00  0.86440916555E+02  0.86440916555E+02  0.00000000000E+00 0.  1.
          2   -1    0    0  501    0  0.00000000000E+00 -0.00000000000E+00 -0.28872971927E+04  0.28872971927E+04  0.00000000000E+00 0. -1.
         23    2    1    2    0    0  0.39796901887E+03 -0.20682975350E+03 -0.78539011520E+03  0.90897135903E+03  0.90738148422E+02 0.  0.
         11    1    3    3    0    0  0.27092943073E+03 -0.93116273093E+02 -0.51478580526E+03  0.58913311063E+03  0.00000000000E+00 0.  1.
        -11    1    3    3    0    0  0.12703958814E+03 -0.11371348041E+03 -0.27060430994E+03  0.31983824840E+03  0.00000000000E+00 0. -1.
         22    1    1    2    0    0 -0.39796901887E+03  0.20682975350E+03 -0.20154661610E+04  0.20647667503E+04  0.00000000000E+00 0. -1.
<mgrwt>
<rscale>  0 0.99916088E+03</rscale>
<asrwt>0</asrwt>
<pdfrwt beam="1">  1        2 0.44419957E+00 0.99916088E+03</pdfrwt>
<pdfrwt beam="2">  1       -2 0.13298603E-01 0.99916088E+03</pdfrwt>
<totfact> 0.89728685E+01</totfact>
</mgrwt>
</event>
<event>
 6    1  0.2047711E-005  0.3166211E+04  0.7818608E-02  0.8197798E-01
         -1   -1    0    0    0  501 -0.00000000000E+00  0.00000000000E+00  0.13427222519E+04  0.13427222519E+04  0.00000000000E+00 0.  1.
          1   -1    0    0  501    0  0.00000000000E+00 -0.00000000000E+00 -0.18665234060E+04  0.18665234060E+04  0.00000000000E+00 0. -1.
         23    2    1    2    0    0 -0.12795200306E+04 -0.17480486777E+02  0.68036348731E+03  0.14521202896E+04  0.91004310502E+02 0.  0.
         13    1    3    3    0    0 -0.30147598557E+03  0.15888685571E+02  0.12363769402E+03  0.32623074592E+03  0.00000000000E+00 0. -1.
        -13    1    3    3    0    0 -0.97804404502E+03 -0.33369172348E+02  0.55672579328E+03  0.11258895437E+04  0.00000000000E+00 0.  1.
         22    1    1    2    0    0  0.12795200306E+04  0.17480486777E+02 -0.12041646414E+04  0.17571253683E+04  0.00000000000E+00 0.  1.
<mgrwt>
<rscale>  0 0.31662107E+04</rscale>
<asrwt>0</asrwt>
<pdfrwt beam="1">  1        1 0.28715745E+00 0.31662107E+04</pdfrwt>
<pdfrwt beam="2">  1       -1 0.20657266E+00 0.31662107E+04</pdfrwt>
<totfact> 0.41790372E-01</totfact>
</mgrwt>
</event>
<event>
 6    1  0.2047711E-005  0.4894009E+03  0.7818608E-02  0.1016583E+00
          2   -1    0    0  501    0  0.00000000000E+00  0.00000000000E+00  0.82160054813E+03  0.82160054813E+03  0.00000000000E+00 0. -1.
         -2   -1    0    0    0  501 -0.00000000000E+00 -0.00000000000E+00 -0.72880082075E+02  0.72880082075E+02  0.00000000000E+00 0.  1.
         23    2    1    2    0    0 -0.58029033785E+02 -0.92368572344E+02  0.77046356628E+03  0.78325075865E+03  0.89265458325E+02 0.  0.
         11    1    3    3    0    0 -0.12419384349E+02 -0.47701156748E+02  0.58567744695E+03  0.58774800155E+03  0.00000000000E+00 0. -1.
        -11    1    3    3    0    0 -0.45609649436E+02 -0.44667415595E+02  0.18478611932E+03  0.19550275710E+03  0.00000000000E+00 0.  1.
         22    1    1    2    0    0  0.58029033785E+02  0.92368572344E+02 -0.21743100221E+02  0.11122987155E+03  0.00000000000E+00 0. -1.
<mgrwt>
<rscale>  0 0.48940092E+03</rscale>
<asrwt>0</asrwt>
<pdfrwt beam="1">  1        2 0.12640008E+00 0.48940092E+03</pdfrwt>
<pdfrwt beam="2">  1       -2 0.11212321E-01 0.48940092E+03</pdfrwt>
<totfact> 0.18961553E+03</totfact>
</mgrwt>
</event>
<event>
 6    1  0.2047711E-005  0.4398383E+04  0.7818608E-02  0.7928673E-01
         -1   -1    0    0    0  501 -0.00000000000E+00  0.00000000000E+00  0.18183245162E+04  0.18183245162E+04  0.00000000000E+00 0.  1.
          1   -1    0    0  501    0  0.00000000000E+00 -0.00000000000E+00 -0.26598344701E+04  0.26598344701E+04  0.00000000000E+00 0. -1.
         23    2    1    2    0    0 -0.12394195102E+04  0.51593180808E+03  0.13513019045E+04  0.19070171779E+04  0.91385593797E+02 0.  0.
         11    1    3    3    0    0 -0.97697037764E+03  0.44577570932E+03  0.10694655795E+04  0.15155671307E+04  0.00000000000E+00 0.  1.
        -11    1    3    3    0    0 -0.26244913257E+03  0.70156098760E+02  0.28183632494E+03  0.39145004718E+03  0.00000000000E+00 0. -1.
         22    1    1    2    0    0  0.12394195102E+04 -0.51593180808E+03 -0.21928118584E+04  0.25711418085E+04  0.00000000000E+00 0. -1.
<mgrwt>
<rscale>  0 0.43983825E+04</rscale>
<asrwt>0</asrwt>
<pdfrwt beam="1">  1        1 0.40920530E+00 0.43983825E+04</pdfrwt>
<pdfrwt beam="2">  1       -1 0.27974223E+00 0.43983825E+04</pdfrwt>
<totfact> 0.35459650E-02</totfact>
</mgrwt>
</event>
<event>
 6    1  0.2047711E-005  0.1266095E+04  0.7818608E-02  0.9056892E-01
          2   -1    0    0  501    0  0.00000000000E+00  0.00000000000E+00  0.60374046591E+03  0.60374046591E+03  0.00000000000E+00 0. -1.
         -2   -1    0    0    0  501 -0.00000000000E+00 -0.00000000000E+00 -0.66377767070E+03  0.66377767070E+03  0.00000000000E+00 0.  1.
         23    2    1    2    0    0 -0.84851140529E+02  0.37280056839E+03  0.47054564901E+03  0.61353178768E+03  0.93957792916E+02 0.  0.
         11    1    3    3    0    0 -0.69400383070E+02  0.11628257151E+03  0.13909090818E+03  0.19412452278E+03  0.00000000000E+00 0. -1.
        -11    1    3    3    0    0 -0.15450757458E+02  0.25651799688E+03  0.33145474083E+03  0.41940726489E+03  0.00000000000E+00 0.  1.
         22    1    1    2    0    0  0.84851140529E+02 -0.37280056839E+03 -0.53058285380E+03  0.65398634893E+03  0.00000000000E+00 0.  1.
<mgrwt>
<rscale>  0 0.12660955E+04</rscale>
<asrwt>0</asrwt>
<pdfrwt beam="1">  1        2 0.92883148E-01 0.12660955E+04</pdfrwt>
<pdfrwt beam="2">  1       -2 0.10211964E+00 0.12660955E+04</pdfrwt>
<totfact> 0.38005461E+01</totfact>
</mgrwt>
</event>
<event>
 6    1  0.2047711E-005  0.1382056E+04  0.7818608E-02  0.8966911E-01
          2   -1    0    0  501    0  0.00000000000E+00  0.00000000000E+00  0.73673157405E+03  0.73673157405E+03  0.00000000000E+00 0. -1.
         -2   -1    0    0    0  501 -0.00000000000E+00 -0.00000000000E+00 -0.64815937705E+03  0.64815937705E+03  0.00000000000E+00 0.  1.
         23    2    1    2    0    0  0.45361521541E+03  0.17307569264E+03  0.53328679886E+03  0.72648907068E+03  0.87576257878E+02 0.  0.
         11    1    3    3    0    0  0.15410707920E+03  0.95538024005E+02  0.16151295215E+03  0.24282285642E+03  0.00000000000E+00 0.  1.
        -11    1    3    3    0    0  0.29950813622E+03  0.77537668636E+02  0.37177384671E+03  0.48366621426E+03  0.00000000000E+00 0. -1.
         22    1    1    2    0    0 -0.45361521541E+03 -0.17307569264E+03 -0.44471460186E+03  0.65840188042E+03  0.00000000000E+00 0.  1.
<mgrwt>
<rscale>  0 0.13820557E+04</rscale>
<asrwt>0</asrwt>
<pdfrwt beam="1">  1        2 0.11334332E+00 0.13820557E+04</pdfrwt>
<pdfrwt beam="2">  1       -2 0.99716828E-01 0.13820557E+04</pdfrwt>
<totfact> 0.31109161E+01</totfact>
</mgrwt>
</event>
<event>
 6    1  0.2047711E-005  0.2167146E+04  0.7818608E-02  0.8532229E-01
          2   -1    0    0  501    0  0.00000000000E+00  0.00000000000E+00  0.80546492091E+03  0.80546492091E+03  0.00000000000E+00 0. -1.
         -2   -1    0    0    0  501 -0.00000000000E+00 -0.00000000000E+00 -0.14577047357E+04  0.14577047357E+04  0.00000000000E+00 0.  1.
         23    2    1    2    0    0  0.77394237064E+03 -0.60130959054E+03 -0.80328302772E+03  0.12715174651E+04  0.10456110490E+03 0.  0.
         13    1    3    3    0    0  0.46989234800E+03 -0.39554748218E+03 -0.44445114500E+03  0.75815133691E+03  0.00000000000E+00 0.  1.
        -13    1    3    3    0    0  0.30405002264E+03 -0.20576210836E+03 -0.35883188272E+03  0.51336612818E+03  0.00000000000E+00 0. -1.
         22    1    1    2    0    0 -0.77394237064E+03  0.60130959054E+03  0.15104321294E+03  0.99165219151E+03  0.00000000000E+00 0. -1.
<mgrwt>
<rscale>  0 0.21671456E+04</rscale>
<asrwt>0</asrwt>
<pdfrwt beam="1">  1        2 0.12391768E+00 0.21671456E+04</pdfrwt>
<pdfrwt beam="2">  1       -2 0.22426227E+00 0.21671456E+04</pdfrwt>
<totfact> 0.29049758E+00</totfact>
</mgrwt>
</event>
<event>
 6    1  0.2047711E-005  0.1968297E+04  0.7818608E-02  0.8621588E-01
         -2   -1    0    0    0  501 -0.00000000000E+00  0.00000000000E+00  0.11513735182E+04  0.11513735182E+04  0.00000000000E+00 0.  1.
          2   -1    0    0  501    0  0.00000000000E+00 -0.00000000000E+00 -0.84121114485E+03  0.84121114485E+03  0.00000000000E+00 0. -1.
         23    2    1    2    0    0  0.30031992394E+03  0.88685210634E+03  0.45541543101E+03  0.10450630717E+04  0.89749060160E+02 0.  0.
         13    1    3    3    0    0  0.18042605354E+03  0.39467994174E+03  0.20320020632E+03  0.47918278460E+03  0.00000000000E+00 0. -1.
        -13    1    3    3    0    0  0.11989387040E+03  0.49217216460E+03  0.25221522470E+03  0.56588028710E+03  0.00000000000E+00 0.  1.
         22    1    1    2    0    0 -0.30031992394E+03 -0.88685210634E+03 -0.14525305769E+03  0.94752159131E+03  0.00000000000E+00 0. -1.
<mgrwt>
<rscale>  0 0.19682970E+04</rscale>
<asrwt>0</asrwt>
<pdfrwt beam="1">  1        2 0.12941710E+00 0.19682970E+04</pdfrwt>
<pdfrwt beam="2">  1       -2 0.17713439E+00 0.19682970E+04</pdfrwt>
<totfact> 0.56896169E+00</totfact>
</mgrwt>
</event>
<event>
 6    1  0.2047711E-005  0.7775417E+03  0.7818608E-02  0.9593106E-01
          2   -1    0    0  501    0  0.00000000000E+00  0.00000000000E+00  0.13420614821E+04  0.13420614821E+04  0.00000000000E+00 0. -1.
         -2   -1    0    0    0  501 -0.00000000000E+00 -0.00000000000E+00 -0.11261985599E+03  0.11261985599E+03  0.00000000000E+00 0.  1.
         23    2    1    2    0    0  0.19797194769E+03  0.60940428818E+02  0.12267718358E+04  0.12475249824E+04  0.91884801095E+02 0.  0.
         13    1    3    3    0    0  0.52693283029E+01  0.11163305319E+02  0.26946902710E+03  0.26975162979E+03  0.00000000000E+00 0.  1.
        -13    1    3    3    0    0  0.19270261939E+03  0.49777123499E+02  0.95730280870E+03  0.97777335261E+03  0.00000000000E+00 0. -1.
         22    1    1    2    0    0 -0.19797194769E+03 -0.60940428818E+02  0.26697903473E+01  0.20715635573E+03  0.00000000000E+00 0.  1.
<mgrwt>
<rscale>  0 0.77754169E+03</rscale>
<asrwt>0</asrwt>
<pdfrwt beam="1">  1        2 0.20647099E+00 0.77754169E+03</pdfrwt>
<pdfrwt beam="2">  1       -2 0.17326133E-01 0.77754169E+03</pdfrwt>
<totfact> 0.43164392E+02</totfact>
</mgrwt>
</event>
<event>
 6    1  0.2047711E-005  0.1195063E+04  0.7818608E-02  0.9117189E-01
         -2   -1    0    0    0  501 -0.00000000000E+00  0.00000000000E+00  0.38353642350E+03  0.38353642350E+03  0.00000000000E+00 0.  1.
          2   -1    0    0  501    0  0.00000000000E+00 -0.00000000000E+00 -0.93092533425E+03  0.93092533425E+03  0.00000000000E+00 0. -1.
         23    2    1    2    0    0 -0.55777002134E+03 -0.14005797538E+03 -0.43928043390E+03  0.72930274010E+03  0.90507203798E+02 0.  0.
         13    1    3    3    0    0 -0.13901107916E+03  0.38510358903E+01 -0.95068522463E+02  0.16845454749E+03  0.00000000000E+00 0. -1.
        -13    1    3    3    0    0 -0.41875894217E+03 -0.14390901128E+03 -0.34421191144E+03  0.56084819261E+03  0.00000000000E+00 0.  1.
         22    1    1    2    0    0  0.55777002134E+03  0.14005797538E+03 -0.10810847684E+03  0.58515901765E+03  0.00000000000E+00 0.  1.
<mgrwt>
<rscale>  0 0.11950628E+04</rscale>
<asrwt>0</asrwt>
<pdfrwt beam="1">  1        2 0.14321928E+00 0.11950628E+04</pdfrwt>
<pdfrwt beam="2">  1       -2 0.59005604E-01 0.11950628E+04</pdfrwt>
<totfact> 0.74037786E+01</totfact>
</mgrwt>
</event>
<event>
 6    1  0.2047711E-005  0.1299202E+04  0.7818608E-02  0.9030198E-01
         -2   -1    0    0    0  501 -0.00000000000E+00  0.00000000000E+00  0.29452328512E+03  0.29452328512E+03  0.00000000000E+00 0.  1.
          2   -1    0    0  501    0  0.00000000000E+00 -0.00000000000E+00 -0.14327605612E+04  0.14327605612E+04  0.00000000000E+00 0. -1.
         23    2    1    2    0    0  0.29151834906E+03  0.54073363648E+03 -0.83923637997E+03  0.10440727886E+04  0.91621356749E+02 0.  0.
         11    1    3    3    0    0  0.22191290196E+03  0.46845895191E+03 -0.73485097368E+03  0.89928031180E+03  0.00000000000E+00 0.  1.
        -11    1    3    3    0    0  0.69605447105E+02  0.72274684570E+02 -0.10438540629E+03  0.14479247681E+03  0.00000000000E+00 0. -1.
         22    1    1    2    0    0 -0.29151834906E+03 -0.54073363648E+03 -0.29900089608E+03  0.68321105766E+03  0.00000000000E+00 0.  1.
<mgrwt>
<rscale>  0 0.12992018E+04</rscale>
<asrwt>0</asrwt>
<pdfrwt beam="1">  1        2 0.22042470E+00 0.12992018E+04</pdfrwt>
<pdfrwt beam="2">  1       -2 0.45311274E-01 0.12992018E+04</pdfrwt>
<totfact> 0.62728931E+01</totfact>
</mgrwt>
</event>
<event>
 6    1  0.2047711E-005  0.2365683E+04  0.7818608E-02  0.8452464E-01
          2   -1    0    0  501    0  0.00000000000E+00  0.00000000000E+00  0.19538447400E+04  0.19538447400E+04  0.00000000000E+00 0. -1.
         -2   -1    0    0    0  501 -0.00000000000E+00 -0.00000000000E+00 -0.71608245132E+03  0.71608245132E+03  0.00000000000E+00 0.  1.
         23    2    1    2    0    0  0.10697442345E+04 -0.28077255596E+03  0.10868543795E+04  0.15537017874E+04  0.97728431472E+02 0.  0.
         11    1    3    3    0    0  0.84167544325E+03 -0.20444754512E+03  0.79675699999E+03  0.11768764028E+04  0.00000000000E+00 0. -1.
        -11    1    3    3    0    0  0.22806879126E+03 -0.76325010835E+02  0.29009737952E+03  0.37682538454E+03  0.00000000000E+00 0.  1.
         22    1    1    2    0    0 -0.10697442345E+04  0.28077255596E+03  0.15090790921E+03  0.11162254040E+04  0.00000000000E+00 0.  1.
<mgrwt>
<rscale>  0 0.23656829E+04</rscale>
<asrwt>0</asrwt>
<pdfrwt beam="1">  1        2 0.30059150E+00 0.23656829E+04</pdfrwt>
<pdfrwt beam="2">  1       -2 0.11016653E+00 0.23656829E+04</pdfrwt>
<totfact> 0.41840489E+00</totfact>
</mgrwt>
</event>
<event>
 6    1  0.2047711E-005  0.7197939E+04  0.7818608E-02  0.7557359E-01
          2   -1    0    0  501    0  0.00000000000E+00  0.00000000000E+00  0.47974967389E+04  0.47974967389E+04  0.00000000000E+00 0. -1.
         -2   -1    0    0    0  501 -0.00000000000E+00 -0.00000000000E+00 -0.26998621678E+04  0.26998621678E+04  0.00000000000E+00 0.  1.
         23    2    1    2    0    0  0.20764714691E+04 -0.25321299995E+04  0.26026842887E+04  0.41839782594E+04  0.91063013193E+02 0.  0.
         13    1    3    3    0    0  0.36739719526E+03 -0.50083022908E+03  0.50934550732E+03  0.80327110198E+03  0.00000000000E+00 0. -1.
        -13    1    3    3    0    0  0.17090742738E+04 -0.20312997704E+04  0.20933387814E+04  0.33807071574E+04  0.00000000000E+00 0.  1.
         22    1    1    2    0    0 -0.20764714691E+04  0.25321299995E+04 -0.50504971768E+03  0.33133806473E+04  0.00000000000E+00 0.  1.
<mgrwt>
<rscale>  0 0.71979386E+04</rscale>
<asrwt>0</asrwt>
<pdfrwt beam="1">  1        2 0.73807642E+00 0.71979386E+04</pdfrwt>
<pdfrwt beam="2">  1       -2 0.41536341E+00 0.71979386E+04</pdfrwt>
<totfact> 0.21294350E-04</totfact>
</mgrwt>
</event>
<event>
 6    1  0.2047711E-005  0.3789674E+04  0.7818608E-02  0.8048374E-01
          2   -1    0    0  501    0  0.00000000000E+00  0.00000000000E+00  0.24224405669E+04  0.24224405669E+04  0.00000000000E+00 0. -1.
         -2   -1    0    0    0  501 -0.00000000000E+00 -0.00000000000E+00 -0.14821448995E+04  0.14821448995E+04  0.00000000000E+00 0.  1.
         23    2    1    2    0    0  0.11775071924E+04  0.68314495499E+03 -0.88608045213E+03  0.16266785439E+04  0.87944868082E+02 0.  0.
         11    1    3    3    0    0  0.84912046229E+03  0.44851827138E+03 -0.60897525620E+03  0.11371125986E+04  0.00000000000E+00 0. -1.
        -11    1    3    3    0    0  0.32838673016E+03  0.23462668361E+03 -0.27710519593E+03  0.48956594532E+03  0.00000000000E+00 0.  1.
         22    1    1    2    0    0 -0.11775071924E+04 -0.68314495499E+03  0.18263761195E+04  0.22779069225E+04  0.00000000000E+00 0. -1.
<mgrwt>
<rscale>  0 0.37896744E+04</rscale>
<asrwt>0</asrwt>
<pdfrwt beam="1">  1        2 0.37268316E+00 0.37896744E+04</pdfrwt>
<pdfrwt beam="2">  1       -2 0.22802229E+00 0.37896744E+04</pdfrwt>
<totfact> 0.27246140E-01</totfact>
</mgrwt>
</event>
<event>
 6    1  0.2047711E-005  0.2284916E+04  0.7818608E-02  0.8483892E-01
          2   -1    0    0  501    0  0.00000000000E+00  0.00000000000E+00  0.11493741064E+04  0.11493741064E+04  0.00000000000E+00 0. -1.
         -2   -1    0    0    0  501 -0.00000000000E+00 -0.00000000000E+00 -0.11355837498E+04  0.11355837498E+04  0.00000000000E+00 0.  1.
         23    2    1    2    0    0  0.51286185408E+03 -0.88040819613E+03  0.51959774565E+03  0.11474223675E+04  0.91926051297E+02 0.  0.
         11    1    3    3    0    0  0.19798518754E+03 -0.35335288785E+03  0.25684362991E+03  0.47960926603E+03  0.00000000000E+00 0. -1.
        -11    1    3    3    0    0  0.31487666653E+03 -0.52705530828E+03  0.26275411573E+03  0.66781310144E+03  0.00000000000E+00 0.  1.
         22    1    1    2    0    0 -0.51286185408E+03  0.88040819613E+03 -0.50580738904E+03  0.11375354887E+04  0.00000000000E+00 0.  1.
<mgrwt>
<rscale>  0 0.22849162E+04</rscale>
<asrwt>0</asrwt>
<pdfrwt beam="1">  1        2 0.17682678E+00 0.22849162E+04</pdfrwt>
<pdfrwt beam="2">  1       -2 0.17470519E+00 0.22849162E+04</pdfrwt>
<totfact> 0.36413275E+00</totfact>
</mgrwt>
</event>
<event>
 6    1  0.2047711E-005  0.1757740E+04  0.7818608E-02  0.8729101E-01
          2   -1    0    0  501    0  0.00000000000E+00  0.00000000000E+00  0.24814634869E+04  0.24814634869E+04  0.00000000000E+00 0. -1.
         -2   -1    0    0    0  501 -0.00000000000E+00 -0.00000000000E+00 -0.31127287534E+03  0.31127287534E+03  0.00000000000E+00 0.  1.
         23    2    1    2    0    0  0.48193846982E+03  0.33241853227E+03  0.21245556695E+04  0.22054976397E+04  0.87842340665E+02 0.  0.
         13    1    3    3    0    0  0.44318843021E+03  0.28939928346E+03  0.19861298295E+04  0.20554511985E+04  0.00000000000E+00 0.  1.
        -13    1    3    3    0    0  0.38750039608E+02  0.43019248818E+02  0.13842583999E+03  0.15004644119E+03  0.00000000000E+00 0. -1.
         22    1    1    2    0    0 -0.48193846982E+03 -0.33241853227E+03  0.45634942087E+02  0.58723872253E+03  0.00000000000E+00 0.  1.
<mgrwt>
<rscale>  0 0.17577398E+04</rscale>
<asrwt>0</asrwt>
<pdfrwt beam="1">  1        2 0.38176360E+00 0.17577398E+04</pdfrwt>
<pdfrwt beam="2">  1       -2 0.47888136E-01 0.17577398E+04</pdfrwt>
<totfact> 0.13982857E+01</totfact>
</mgrwt>
</event>
<event>
 6    1  0.2047711E-005  0.1002379E+04  0.7818608E-02  0.9305939E-01
          2   -1    0    0  501    0  0.00000000000E+00  0.00000000000E+00  0.18105885396E+04  0.18105885396E+04  0.00000000000E+00 0. -1.
         -2   -1    0    0    0  501 -0.00000000000E+00 -0.00000000000E+00 -0.13873444658E+03  0.13873444658E+03  0.00000000000E+00 0.  1.
         23    2    1    2    0    0 -0.21311151629E+03  0.34185151783E+03  0.27678632806E+03  0.49725788865E+03  0.91519166357E+02 0.  0.
         11    1    3    3    0    0 -0.11775675180E+03  0.23518593020E+03  0.13424730666E+03  0.29529885490E+03  0.00000000000E+00 0. -1.
        -11    1    3    3    0    0 -0.95354764486E+02  0.10666558763E+03  0.14253902139E+03  0.20195903376E+03  0.00000000000E+00 0.  1.
         22    1    1    2    0    0  0.21311151629E+03 -0.34185151783E+03  0.13950677650E+04  0.14520650975E+04  0.00000000000E+00 0. -1.
<mgrwt>
<rscale>  0 0.10023792E+04</rscale>
<asrwt>0</asrwt>
<pdfrwt beam="1">  1        2 0.27855207E+00 0.10023792E+04</pdfrwt>
<pdfrwt beam="2">  1       -2 0.21343762E-01 0.10023792E+04</pdfrwt>
<totfact> 0.16215960E+02</totfact>
</mgrwt>
</event>
<event>
 6    1  0.2047711E-005  0.2002454E+04  0.7818608E-02  0.8605474E-01
         -2   -1    0    0    0  501 -0.00000000000E+00  0.00000000000E+00  0.52001114486E+03  0.52001114486E+03  0.00000000000E+00 0.  1.
          2   -1    0    0  501    0  0.00000000000E+00 -0.00000000000E+00 -0.19277583868E+04  0.19277583868E+04  0.00000000000E+00 0. -1.
         23    2    1    2    0    0  0.39988735829E+03  0.50225253001E+03 -0.16411614539E+04  0.17646519009E+04  0.91749169291E+02 0.  0.
         11    1    3    3    0    0  0.14622853274E+03  0.25696141927E+03 -0.75306723427E+03  0.80902547185E+03  0.00000000000E+00 0. -1.
        -11    1    3    3    0    0  0.25365882555E+03  0.24529111074E+03 -0.88809421967E+03  0.95562642900E+03  0.00000000000E+00 0.  1.
         22    1    1    2    0    0 -0.39988735829E+03 -0.50225253001E+03  0.23341421196E+03  0.68311763084E+03  0.00000000000E+00 0.  1.
<mgrwt>
<rscale>  0 0.20024543E+04</rscale>
<asrwt>0</asrwt>
<pdfrwt beam="1">  1        2 0.29657822E+00 0.20024543E+04</pdfrwt>
<pdfrwt beam="2">  1       -2 0.80001714E-01 0.20024543E+04</pdfrwt>
<totfact> 0.94085810E+00</totfact>
</mgrwt>
</event>
<event>
 6    1  0.2047711E-005  0.8102367E+03  0.7818608E-02  0.9545317E-01
          2   -1    0    0  501    0  0.00000000000E+00  0.00000000000E+00  0.45676708924E+03  0.45676708924E+03  0.00000000000E+00 0. -1.
         -2   -1    0    0    0  501 -0.00000000000E+00 -0.00000000000E+00 -0.35930973708E+03  0.35930973708E+03  0.00000000000E+00 0.  1.
         23    2    1    2    0    0  0.10659488034E+03  0.13817362923E+03 -0.31310513811E+03  0.36996475660E+03  0.91567861619E+02 0.  0.
         11    1    3    3    0    0  0.16023483109E+02  0.86990662308E+02 -0.10490184431E+03  0.13721706993E+03  0.00000000000E+00 0.  1.
        -11    1    3    3    0    0  0.90571397234E+02  0.51182966924E+02 -0.20820329381E+03  0.23274768667E+03  0.00000000000E+00 0. -1.
         22    1    1    2    0    0 -0.10659488034E+03 -0.13817362923E+03  0.41056249027E+03  0.44611206972E+03  0.00000000000E+00 0. -1.
<mgrwt>
<rscale>  0 0.81023666E+03</rscale>
<asrwt>0</asrwt>
<pdfrwt beam="1">  1        2 0.70271860E-01 0.81023666E+03</pdfrwt>
<pdfrwt beam="2">  1       -2 0.55278421E-01 0.81023666E+03</pdfrwt>
<totfact> 0.21182728E+02</totfact>
</mgrwt>
</event>
<event>
 6    1  0.2047711E-005  0.2733606E+04  0.7818608E-02  0.8324183E-01
         -2   -1    0    0    0  501 -0.00000000000E+00  0.00000000000E+00  0.11556733349E+04  0.11556733349E+04  0.00000000000E+00 0.  1.
          2   -1    0    0  501    0  0.00000000000E+00 -0.00000000000E+00 -0.16165036784E+04  0.16165036784E+04  0.00000000000E+00 0. -1.
         23    2    1    2    0    0  0.10602763390E+04 -0.74894131322E+02 -0.10995421367E+04  0.15321174177E+04  0.92713673362E+02 0.  0.
         13    1    3    3    0    0  0.99578567407E+03 -0.70576627021E+02 -0.99681646271E+03  0.14107491731E+04  0.00000000000E+00 0. -1.
        -13    1    3    3    0    0  0.64490664963E+02 -0.43175043008E+01 -0.10272567398E+03  0.12136824463E+03  0.00000000000E+00 0.  1.
         22    1    1    2    0    0 -0.10602763390E+04  0.74894131322E+02  0.63871179310E+03  0.12400595956E+04  0.00000000000E+00 0.  1.
<mgrwt>
<rscale>  0 0.27336058E+04</rscale>
<asrwt>0</asrwt>
<pdfrwt beam="1">  1        2 0.24869288E+00 0.27336058E+04</pdfrwt>
<pdfrwt beam="2">  1       -2 0.17779590E+00 0.27336058E+04</pdfrwt>
<totfact> 0.17942987E+00</totfact>
</mgrwt>
</event>
<event>
 6    1  0.2047711E-005  0.1967198E+04  0.7818608E-02  0.8622112E-01
          2   -1    0    0  501    0  0.00000000000E+00  0.00000000000E+00  0.23297139749E+04  0.23297139749E+04  0.00000000000E+00 0. -1.
         -2   -1    0    0    0  501 -0.00000000000E+00 -0.00000000000E+00 -0.41527284891E+03  0.41527284891E+03  0.00000000000E+00 0.  1.
         23    2    1    2    0    0 -0.81212106740E+03  0.33038934136E+03  0.34363017899E+03  0.94605803805E+03  0.90809506359E+02 0.  0.
         13    1    3    3    0    0 -0.30610317187E+03  0.17220105932E+03  0.14239469938E+03  0.37898365013E+03  0.00000000000E+00 0.  1.
        -13    1    3    3    0    0 -0.50601789554E+03  0.15818828204E+03  0.20123547961E+03  0.56707438792E+03  0.00000000000E+00 0. -1.
         22    1    1    2    0    0  0.81212106740E+03 -0.33038934136E+03  0.15708109470E+04  0.17989287858E+04  0.00000000000E+00 0. -1.
<mgrwt>
<rscale>  0 0.19671980E+04</rscale>
<asrwt>0</asrwt>
<pdfrwt beam="1">  1        2 0.35841753E+00 0.19671980E+04</pdfrwt>
<pdfrwt beam="2">  1       -2 0.63888132E-01 0.19671980E+04</pdfrwt>
<totfact> 0.92053020E+00</totfact>
</mgrwt>
</event>
<event>
 6    1  0.2047711E-005  0.7511264E+03  0.7818608E-02  0.9633585E-01
         -2   -1    0    0    0  501 -0.00000000000E+00  0.00000000000E+00  0.15255213029E+03  0.15255213029E+03  0.00000000000E+00 0.  1.
          2   -1    0    0  501    0  0.00000000000E+00 -0.00000000000E+00 -0.92458701330E+03  0.92458701330E+03  0.00000000000E+00 0. -1.
         23    2    1    2    0    0  0.28143925486E+03 -0.42103397757E+02 -0.52751155110E+02  0.30360838693E+03  0.91731226794E+02 0.  0.
         11    1    3    3    0    0  0.12553714997E+03 -0.21674404838E+02 -0.70119764420E+02  0.14541711457E+03  0.00000000000E+00 0.  1.
        -11    1    3    3    0    0  0.15590210489E+03 -0.20428992919E+02  0.17368609310E+02  0.15819127236E+03  0.00000000000E+00 0. -1.
         22    1    1    2    0    0 -0.28143925486E+03  0.42103397757E+02 -0.71928372790E+03  0.77353075666E+03  0.00000000000E+00 0. -1.
<mgrwt>
<rscale>  0 0.75112640E+03</rscale>
<asrwt>0</asrwt>
<pdfrwt beam="1">  1        2 0.14224415E+00 0.75112640E+03</pdfrwt>
<pdfrwt beam="2">  1       -2 0.23469559E-01 0.75112640E+03</pdfrwt>
<totfact> 0.45594270E+02</totfact>
</mgrwt>
</event>
<event>
 6    1  0.2047711E-005  0.1836995E+04  0.7818608E-02  0.8686870E-01
          2   -1    0    0  501    0  0.00000000000E+00  0.00000000000E+00  0.33813080997E+03  0.33813080997E+03  0.00000000000E+00 0. -1.
         -2   -1    0    0    0  501 -0.00000000000E+00 -0.00000000000E+00 -0.24950024578E+04  0.24950024578E+04  0.00000000000E+00 0.  1.
         23    2    1    2    0    0 -0.57655811959E+03  0.34494475801E+03 -0.20419358047E+04  0.21515055106E+04  0.89821935693E+02 0.  0.
         11    1    3    3    0    0 -0.21833425858E+03  0.14594808490E+03 -0.93382710083E+03  0.97005347595E+03  0.00000000000E+00 0.  1.
        -11    1    3    3    0    0 -0.35822386102E+03  0.19899667311E+03 -0.11081087039E+04  0.11814520346E+04  0.00000000000E+00 0. -1.
         22    1    1    2    0    0  0.57655811959E+03 -0.34494475801E+03 -0.11493584312E+03  0.68162775720E+03  0.00000000000E+00 0. -1.
<mgrwt>
<rscale>  0 0.18369945E+04</rscale>
<asrwt>0</asrwt>
<pdfrwt beam="1">  1        2 0.52020127E-01 0.18369945E+04</pdfrwt>
<pdfrwt beam="2">  1       -2 0.38384652E+00 0.18369945E+04</pdfrwt>
<totfact> 0.85845519E-01</totfact>
</mgrwt>
</event>
<event>
 6    1  0.2047711E-005  0.2486395E+04  0.7818608E-02  0.8407848E-01
          2   -1    0    0  501    0  0.00000000000E+00  0.00000000000E+00  0.28496352170E+04  0.28496352170E+04  0.00000000000E+00 0. -1.
         -2   -1    0    0    0  501 -0.00000000000E+00 -0.00000000000E+00 -0.54236414875E+03  0.54236414875E+03  0.00000000000E+00 0.  1.
         23    2    1    2    0    0  0.52795190614E+03 -0.52055521594E+03 -0.20310813394E+03  0.77442134652E+03  0.93619227942E+02 0.  0.
         11    1    3    3    0    0  0.22201084323E+03 -0.15603342953E+03 -0.69080633816E+02  0.28001317757E+03  0.00000000000E+00 0.  1.
        -11    1    3    3    0    0  0.30594106290E+03 -0.36452178640E+03 -0.13402750012E+03  0.49440816895E+03  0.00000000000E+00 0. -1.
         22    1    1    2    0    0 -0.52795190614E+03  0.52055521594E+03  0.25103792022E+04  0.26175780192E+04  0.00000000000E+00 0. -1.
<mgrwt>
<rscale>  0 0.24863950E+04</rscale>
<asrwt>0</asrwt>
<pdfrwt beam="1">  1        2 0.43840541E+00 0.24863950E+04</pdfrwt>
<pdfrwt beam="2">  1       -2 0.83440640E-01 0.24863950E+04</pdfrwt>
<totfact> 0.24206395E+00</totfact>
</mgrwt>
</event>
<event>
 6    1  0.2047711E-005  0.2631510E+04  0.7818608E-02  0.8357576E-01
          2   -1    0    0  501    0  0.00000000000E+00  0.00000000000E+00  0.10038670823E+04  0.10038670823E+04  0.00000000000E+00 0. -1.
         -2   -1    0    0    0  501 -0.00000000000E+00 -0.00000000000E+00 -0.17245422519E+04  0.17245422519E+04  0.00000000000E+00 0.  1.
         23    2    1    2    0    0  0.13079341290E+04  0.76157093084E+02 -0.25408184138E+03  0.13376538120E+04  0.90931568162E+02 0.  0.
         13    1    3    3    0    0  0.73044676658E+02 -0.16667516244E+02 -0.13574300944E+02  0.76141923616E+02  0.00000000000E+00 0.  1.
        -13    1    3    3    0    0  0.12348894523E+04  0.92824609328E+02 -0.24050754043E+03  0.12615118884E+04  0.00000000000E+00 0. -1.
         22    1    1    2    0    0 -0.13079341290E+04 -0.76157093084E+02 -0.46659332818E+03  0.13907555222E+04  0.00000000000E+00 0.  1.
<mgrwt>
<rscale>  0 0.26315100E+04</rscale>
<asrwt>0</asrwt>
<pdfrwt beam="1">  1        2 0.15444109E+00 0.26315100E+04</pdfrwt>
<pdfrwt beam="2">  1       -2 0.26531419E+00 0.26315100E+04</pdfrwt>
<totfact> 0.11438641E+00</totfact>
</mgrwt>
</event>
<event>
 6    1  0.2060964E-005  0.3716858E+04  0.7818608E-02  0.8064236E-01
         -2   -1    0    0    0  501 -0.00000000000E+00  0.00000000000E+00  0.18179917912E+04  0.18179917912E+04  0.00000000000E+00 0.  1.
          2   -1    0    0  501    0  0.00000000000E+00 -0.00000000000E+00 -0.18997654138E+04  0.18997654138E+04  0.00000000000E+00 0. -1.
         23    2    1    2    0    0 -0.95048019513E+03  0.38093305517E+03 -0.15908273857E+04  0.18940889639E+04  0.91206569656E+02 0.  0.
         11    1    3    3    0    0 -0.34390023038E+03  0.11029636440E+03 -0.62655100884E+03  0.72318657560E+03  0.00000000000E+00 0.  1.
        -11    1    3    3    0    0 -0.60657996475E+03  0.27063669077E+03 -0.96427637687E+03  0.11709023883E+04  0.00000000000E+00 0. -1.
         22    1    1    2    0    0  0.95048019513E+03 -0.38093305517E+03  0.15090537631E+04  0.18236682411E+04  0.00000000000E+00 0.  1.
<mgrwt>
<rscale>  0 0.37168578E+04</rscale>
<asrwt>0</asrwt>
<pdfrwt beam="1">  1        2 0.29227160E+00 0.37168578E+04</pdfrwt>
<pdfrwt beam="2">  1       -2 0.27969104E+00 0.37168578E+04</pdfrwt>
<totfact> 0.25936219E-01</totfact>
</mgrwt>
</event>
<event>
 6    1  0.2047711E-005  0.4449389E+03  0.7818608E-02  0.1029242E+00
          2   -1    0    0  501    0  0.00000000000E+00  0.00000000000E+00  0.22218110482E+04  0.22218110482E+04  0.00000000000E+00 0. -1.
         -2   -1    0    0    0  501 -0.00000000000E+00 -0.00000000000E+00 -0.22275816274E+02  0.22275816274E+02  0.00000000000E+00 0.  1.
         23    2    1    2    0    0  0.81282790169E+02 -0.11503056560E+02  0.21380034606E+04  0.21414936329E+04  0.90537117796E+02 0.  0.
         11    1    3    3    0    0  0.67201011196E+02  0.33381672176E+02  0.13628211881E+04  0.13648853076E+04  0.00000000000E+00 0. -1.
        -11    1    3    3    0    0  0.14081778973E+02 -0.44884728736E+02  0.77518227249E+03  0.77660832532E+03  0.00000000000E+00 0.  1.
         22    1    1    2    0    0 -0.81282790169E+02  0.11503056560E+02  0.61531771262E+02  0.10259323156E+03  0.00000000000E+00 0.  1.
<mgrwt>
<rscale>  0 0.44493889E+03</rscale>
<asrwt>0</asrwt>
<pdfrwt beam="1">  1        2 0.34181691E+00 0.44493889E+03</pdfrwt>
<pdfrwt beam="2">  1       -2 0.34270504E-02 0.44493889E+03</pdfrwt>
<totfact> 0.19422410E+03</totfact>
</mgrwt>
</event>
<event>
 6    1  0.2047711E-005  0.1191908E+04  0.7818608E-02  0.9119969E-01
          2   -1    0    0  501    0  0.00000000000E+00  0.00000000000E+00  0.18313811983E+04  0.18313811983E+04  0.00000000000E+00 0. -1.
         -2   -1    0    0    0  501 -0.00000000000E+00 -0.00000000000E+00 -0.19393090626E+03  0.19393090626E+03  0.00000000000E+00 0.  1.
         23    2    1    2    0    0 -0.55967721529E+03  0.14192297663E+03  0.60148430420E+03  0.83930778560E+03  0.96298879365E+02 0.  0.
         11    1    3    3    0    0 -0.34885477374E+03  0.12475611365E+03  0.33876666077E+03  0.50202250099E+03  0.00000000000E+00 0. -1.
        -11    1    3    3    0    0 -0.21082244155E+03  0.17166862976E+02  0.26271764343E+03  0.33728528461E+03  0.00000000000E+00 0.  1.
         22    1    1    2    0    0  0.55967721529E+03 -0.14192297663E+03  0.10359659879E+04  0.11860043190E+04  0.00000000000E+00 0. -1.
<mgrwt>
<rscale>  0 0.11919084E+04</rscale>
<asrwt>0</asrwt>
<pdfrwt beam="1">  1        2 0.28175094E+00 0.11919084E+04</pdfrwt>
<pdfrwt beam="2">  1       -2 0.29835525E-01 0.11919084E+04</pdfrwt>
<totfact> 0.84821280E+01</totfact>
</mgrwt>
</event>
<event>
 6    1  0.2047711E-005  0.1927401E+04  0.7818608E-02  0.8641336E-01
          2   -1    0    0  501    0  0.00000000000E+00  0.00000000000E+00  0.12487377069E+04  0.12487377069E+04  0.00000000000E+00 0.  1.
         -2   -1    0    0    0  501 -0.00000000000E+00 -0.00000000000E+00 -0.74372593547E+03  0.74372593547E+03  0.00000000000E+00 0. -1.
         23    2    1    2    0    0 -0.53036310637E+02  0.94618796199E+03  0.84773185786E+02  0.95579350270E+03  0.90940734036E+02 0.  0.
         11    1    3    3    0    0  0.20078692799E+02  0.45337670425E+03  0.40304294502E+02  0.45560731558E+03  0.00000000000E+00 0.  1.
        -11    1    3    3    0    0 -0.73115003436E+02  0.49281125775E+03  0.44468891283E+02  0.50018618711E+03  0.00000000000E+00 0. -1.
         22    1    1    2    0    0  0.53036310637E+02 -0.94618796199E+03  0.42023858568E+03  0.10366701397E+04  0.00000000000E+00 0. -1.
<mgrwt>
<rscale>  0 0.19274010E+04</rscale>
<asrwt>0</asrwt>
<pdfrwt beam="1">  1        2 0.19211349E+00 0.19274010E+04</pdfrwt>
<pdfrwt beam="2">  1       -2 0.11441937E+00 0.19274010E+04</pdfrwt>
<totfact> 0.98864547E+00</totfact>
</mgrwt>
</event>
<event>
 6    1  0.2047711E-005  0.3793055E+04  0.7818608E-02  0.8047647E-01
          1   -1    0    0  501    0  0.00000000000E+00  0.00000000000E+00  0.92912396969E+03  0.92912396969E+03  0.00000000000E+00 0. -1.
         -1   -1    0    0    0  501 -0.00000000000E+00 -0.00000000000E+00 -0.38711910731E+04  0.38711910731E+04  0.00000000000E+00 0.  1.
         23    2    1    2    0    0  0.68413988713E+03 -0.17594417778E+04 -0.12564605715E+04  0.22695143523E+04  0.91211145355E+02 0.  0.
         13    1    3    3    0    0  0.94617647727E+02 -0.30347254726E+03 -0.18050646369E+03  0.36555528944E+03  0.00000000000E+00 0. -1.
        -13    1    3    3    0    0  0.58952223940E+03 -0.14559692305E+04 -0.10759541078E+04  0.19039590629E+04  0.00000000000E+00 0.  1.
         22    1    1    2    0    0 -0.68413988713E+03  0.17594417778E+04 -0.16856065319E+04  0.25308006905E+04  0.00000000000E+00 0.  1.
<mgrwt>
<rscale>  0 0.37930549E+04</rscale>
<asrwt>0</asrwt>
<pdfrwt beam="1">  1        1 0.14294215E+00 0.37930549E+04</pdfrwt>
<pdfrwt beam="2">  1       -1 0.59556785E+00 0.37930549E+04</pdfrwt>
<totfact> 0.62869110E-03</totfact>
</mgrwt>
</event>
<event>
 6    1  0.2047711E-005  0.9780509E+03  0.7818608E-02  0.9332951E-01
         -2   -1    0    0    0  501 -0.00000000000E+00  0.00000000000E+00  0.25855947195E+03  0.25855947195E+03  0.00000000000E+00 0.  1.
          2   -1    0    0  501    0  0.00000000000E+00 -0.00000000000E+00 -0.92491634866E+03  0.92491634866E+03  0.00000000000E+00 0. -1.
         23    2    1    2    0    0 -0.21721036322E+03 -0.35546176098E+03 -0.63591271412E+03  0.76579142726E+03  0.92293687082E+02 0.  0.
         13    1    3    3    0    0 -0.11663275310E+03 -0.11296811227E+03 -0.20969520338E+03  0.26521137194E+03  0.00000000000E+00 0.  1.
        -13    1    3    3    0    0 -0.10057761012E+03 -0.24249364871E+03 -0.42621751074E+03  0.50058005531E+03  0.00000000000E+00 0. -1.
         22    1    1    2    0    0  0.21721036322E+03  0.35546176098E+03 -0.30444162589E+02  0.41768439335E+03  0.00000000000E+00 0. -1.
<mgrwt>
<rscale>  0 0.97805088E+03</rscale>
<asrwt>0</asrwt>
<pdfrwt beam="1">  1        2 0.14229482E+00 0.97805088E+03</pdfrwt>
<pdfrwt beam="2">  1       -2 0.39778380E-01 0.97805088E+03</pdfrwt>
<totfact> 0.16844092E+02</totfact>
</mgrwt>
</event>
<event>
 6    1  0.2047711E-005  0.4604406E+04  0.7818608E-02  0.7892609E-01
          2   -1    0    0  501    0  0.00000000000E+00  0.00000000000E+00  0.16549561112E+04  0.16549561112E+04  0.00000000000E+00 0. -1.
         -2   -1    0    0    0  501 -0.00000000000E+00 -0.00000000000E+00 -0.32025858096E+04  0.32025858096E+04  0.00000000000E+00 0.  1.
         23    2    1    2    0    0  0.10028431322E+04 -0.68757279843E+03 -0.28353441629E+04  0.30864803061E+04  0.93452965639E+02 0.  0.
         13    1    3    3    0    0  0.18934231271E+03 -0.16980436253E+03 -0.54541668027E+03  0.60180012299E+03  0.00000000000E+00 0. -1.
        -13    1    3    3    0    0  0.81350081949E+03 -0.51776843590E+03 -0.22899274826E+04  0.24846801831E+04  0.00000000000E+00 0.  1.
         22    1    1    2    0    0 -0.10028431322E+04  0.68757279843E+03  0.12877144645E+04  0.17710616147E+04  0.00000000000E+00 0. -1.
<mgrwt>
<rscale>  0 0.46044061E+04</rscale>
<asrwt>0</asrwt>
<pdfrwt beam="1">  1        2 0.25460863E+00 0.46044061E+04</pdfrwt>
<pdfrwt beam="2">  1       -2 0.49270551E+00 0.46044061E+04</pdfrwt>
<totfact> 0.14362816E-02</totfact>
</mgrwt>
</event>
<event>
 6    1  0.2047711E-005  0.1664053E+04  0.7818608E-02  0.8782136E-01
          2   -1    0    0  501    0  0.00000000000E+00  0.00000000000E+00  0.58470320770E+03  0.58470320770E+03  0.00000000000E+00 0. -1.
         -2   -1    0    0    0  501 -0.00000000000E+00 -0.00000000000E+00 -0.11839653983E+04  0.11839653983E+04  0.00000000000E+00 0.  1.
         23    2    1    2    0    0  0.31741783422E+03 -0.70891599007E+03  0.85380147113E+01  0.78239427699E+03  0.93551827973E+02 0.  0.
         11    1    3    3    0    0  0.13982563415E+03 -0.23443398889E+03  0.34293078295E+02  0.27511182877E+03  0.00000000000E+00 0. -1.
        -11    1    3    3    0    0  0.17759220007E+03 -0.47448200119E+03 -0.25755063584E+02  0.50728244822E+03  0.00000000000E+00 0.  1.
         22    1    1    2    0    0 -0.31741783422E+03  0.70891599007E+03 -0.60780020526E+03  0.98627432897E+03  0.00000000000E+00 0. -1.
<mgrwt>
<rscale>  0 0.16640533E+04</rscale>
<asrwt>0</asrwt>
<pdfrwt beam="1">  1        2 0.89954340E-01 0.16640533E+04</pdfrwt>
<pdfrwt beam="2">  1       -2 0.18214852E+00 0.16640533E+04</pdfrwt>
<totfact> 0.85485530E+00</totfact>
</mgrwt>
</event>
<event>
 6    1  0.3153172E-005  0.4356951E+04  0.7818608E-02  0.7936170E-01
         -2   -1    0    0    0  501 -0.00000000000E+00  0.00000000000E+00  0.28569496137E+04  0.28569496137E+04  0.00000000000E+00 0.  1.
          2   -1    0    0  501    0  0.00000000000E+00 -0.00000000000E+00 -0.16611268301E+04  0.16611268301E+04  0.00000000000E+00 0. -1.
         23    2    1    2    0    0 -0.17826627402E+03  0.55383181018E+03  0.27741279865E+04  0.28359480741E+04  0.91141951317E+02 0.  0.
         13    1    3    3    0    0 -0.86949322371E+02  0.38459695370E+03  0.19787691963E+04  0.20176725536E+04  0.00000000000E+00 0. -1.
        -13    1    3    3    0    0 -0.91316951645E+02  0.16923485647E+03  0.79535879019E+03  0.81827552049E+03  0.00000000000E+00 0.  1.
         22    1    1    2    0    0  0.17826627402E+03 -0.55383181018E+03 -0.15783052029E+04  0.16821283696E+04  0.00000000000E+00 0. -1.
<mgrwt>
<rscale>  0 0.43569511E+04</rscale>
<asrwt>0</asrwt>
<pdfrwt beam="1">  1        2 0.25555798E+00 0.43569511E+04</pdfrwt>
<pdfrwt beam="2">  1       -2 0.43953071E+00 0.43569511E+04</pdfrwt>
<totfact> 0.32188704E-02</totfact>
</mgrwt>
</event>
<event>
 6    1  0.2047711E-005  0.1228339E+04  0.7818608E-02  0.9088407E-01
          1   -1    0    0  501    0  0.00000000000E+00  0.00000000000E+00  0.31802035922E+04  0.31802035922E+04  0.00000000000E+00 0. -1.
         -1   -1    0    0    0  501 -0.00000000000E+00 -0.00000000000E+00 -0.11861006690E+03  0.11861006690E+03  0.00000000000E+00 0.  1.
         23    2    1    2    0    0 -0.95636674911E+02 -0.28128822848E+02  0.31575665061E+04  0.31604358527E+04  0.90503781608E+02 0.  0.
         11    1    3    3    0    0 -0.72784778316E+02 -0.57330429244E+02  0.18214901551E+04  0.18238450557E+04  0.00000000000E+00 0.  1.
        -11    1    3    3    0    0 -0.22851896595E+02  0.29201606397E+02  0.13360763510E+04  0.13365907970E+04  0.00000000000E+00 0. -1.
         22    1    1    2    0    0  0.95636674911E+02  0.28128822848E+02 -0.95972980776E+02  0.13837780639E+03  0.00000000000E+00 0.  1.
<mgrwt>
<rscale>  0 0.12283390E+04</rscale>
<asrwt>0</asrwt>
<pdfrwt beam="1">  1        1 0.48926203E+00 0.12283390E+04</pdfrwt>
<pdfrwt beam="2">  1       -1 0.18247705E-01 0.12283390E+04</pdfrwt>
<totfact> 0.10512846E+01</totfact>
</mgrwt>
</event>
<event>
 6    1  0.2047711E-005  0.1823169E+04  0.7818608E-02  0.8694075E-01
         -4   -1    0    0    0  501 -0.00000000000E+00  0.00000000000E+00  0.40215921447E+03  0.40215921447E+03  0.00000000000E+00 0.  1.
          4   -1    0    0  501    0  0.00000000000E+00 -0.00000000000E+00 -0.20663118690E+04  0.20663118690E+04  0.00000000000E+00 0. -1.
         23    2    1    2    0    0 -0.86862309703E+03 -0.24369648824E+03 -0.68030362537E+03  0.11336104259E+04  0.91463172216E+02 0.  0.
         11    1    3    3    0    0 -0.20783421540E+03 -0.98775679362E+02 -0.16293499287E+03  0.28195657081E+03  0.00000000000E+00 0.  1.
        -11    1    3    3    0    0 -0.66078888163E+03 -0.14492080887E+03 -0.51736863251E+03  0.85165385506E+03  0.00000000000E+00 0. -1.
         22    1    1    2    0    0  0.86862309703E+03  0.24369648824E+03 -0.98384902920E+03  0.13348606577E+04  0.00000000000E+00 0. -1.
<mgrwt>
<rscale>  0 0.18231691E+04</rscale>
<asrwt>0</asrwt>
<pdfrwt beam="1">  1        4 0.31789413E+00 0.18231691E+04</pdfrwt>
<pdfrwt beam="2">  1       -4 0.61870650E-01 0.18231691E+04</pdfrwt>
<totfact> 0.11070711E-01</totfact>
</mgrwt>
</event>
<event>
 6    1  0.2047711E-005  0.2463954E+04  0.7818608E-02  0.8415941E-01
         -1   -1    0    0    0  501 -0.00000000000E+00  0.00000000000E+00  0.61964321409E+03  0.61964321409E+03  0.00000000000E+00 0.  1.
          1   -1    0    0  501    0  0.00000000000E+00 -0.00000000000E+00 -0.24494209353E+04  0.24494209353E+04  0.00000000000E+00 0. -1.
         23    2    1    2    0    0  0.54408748491E+03 -0.74606582642E+03 -0.19287963012E+04  0.21403822405E+04  0.91299263404E+02 0.  0.
         11    1    3    3    0    0  0.11449328412E+03 -0.12848629076E+03 -0.29123699161E+03  0.33828453157E+03  0.00000000000E+00 0.  1.
        -11    1    3    3    0    0  0.42959420079E+03 -0.61757953566E+03 -0.16375593096E+04  0.18020977089E+04  0.00000000000E+00 0. -1.
         22    1    1    2    0    0 -0.54408748491E+03  0.74606582642E+03  0.99018580022E+02  0.92868190882E+03  0.00000000000E+00 0.  1.
<mgrwt>
<rscale>  0 0.24639538E+04</rscale>
<asrwt>0</asrwt>
<pdfrwt beam="1">  1        1 0.37683399E+00 0.24639538E+04</pdfrwt>
<pdfrwt beam="2">  1       -1 0.95329726E-01 0.24639538E+04</pdfrwt>
<totfact> 0.13901250E+00</totfact>
</mgrwt>
</event>
<event>
 6    1  0.2047711E-005  0.1354106E+04  0.7818608E-02  0.8987726E-01
          2   -1    0    0  501    0  0.00000000000E+00  0.00000000000E+00  0.41054526555E+03  0.41054526555E+03  0.00000000000E+00 0. -1.
         -2   -1    0    0    0  501 -0.00000000000E+00 -0.00000000000E+00 -0.11165656004E+04  0.11165656004E+04  0.00000000000E+00 0.  1.
         23    2    1    2    0    0  0.57000358849E+02  0.39735031439E+03  0.25605740696E+03  0.48464748791E+03  0.90451526371E+02 0.  0.
         13    1    3    3    0    0  0.53181753357E+02  0.38251350475E+03  0.21766016137E+03  0.44330669525E+03  0.00000000000E+00 0.  1.
        -13    1    3    3    0    0  0.38186054911E+01  0.14836809633E+02  0.38397245598E+02  0.41340792656E+02  0.00000000000E+00 0. -1.
         22    1    1    2    0    0 -0.57000358849E+02 -0.39735031439E+03 -0.96207774187E+03  0.10424633781E+04  0.00000000000E+00 0.  1.
<mgrwt>
<rscale>  0 0.13541059E+04</rscale>
<asrwt>0</asrwt>
<pdfrwt beam="1">  1        2 0.63160810E-01 0.13541059E+04</pdfrwt>
<pdfrwt beam="2">  1       -2 0.17177932E+00 0.13541059E+04</pdfrwt>
<totfact> 0.15590394E+01</totfact>
</mgrwt>
</event>
<event>
 6    1  0.2047711E-005  0.4690024E+04  0.7818608E-02  0.7878188E-01
          2   -1    0    0  501    0  0.00000000000E+00  0.00000000000E+00  0.45745988505E+04  0.45745988505E+04  0.00000000000E+00 0. -1.
         -2   -1    0    0    0  501 -0.00000000000E+00 -0.00000000000E+00 -0.12020903075E+04  0.12020903075E+04  0.00000000000E+00 0.  1.
         23    2    1    2    0    0  0.13165999935E+04  0.15557760430E+04  0.31132935382E+04  0.37221655982E+04  0.89696413030E+02 0.  0.
         13    1    3    3    0    0  0.59034942788E+03  0.65941150676E+03  0.14193278904E+04  0.16726708112E+04  0.00000000000E+00 0.  1.
        -13    1    3    3    0    0  0.72625056559E+03  0.89636453627E+03  0.16939656478E+04  0.20494947870E+04  0.00000000000E+00 0. -1.
         22    1    1    2    0    0 -0.13165999935E+04 -0.15557760430E+04  0.25921500471E+03  0.20545235597E+04  0.00000000000E+00 0.  1.
<mgrwt>
<rscale>  0 0.46900239E+04</rscale>
<asrwt>0</asrwt>
<pdfrwt beam="1">  1        2 0.70378443E+00 0.46900239E+04</pdfrwt>
<pdfrwt beam="2">  1       -2 0.18493697E+00 0.46900239E+04</pdfrwt>
<totfact> 0.12851388E-02</totfact>
</mgrwt>
</event>
<event>
 6    1  0.2047711E-005  0.2248435E+04  0.7818608E-02  0.8498534E-01
         -2   -1    0    0    0  501 -0.00000000000E+00  0.00000000000E+00  0.52015292113E+03  0.52015292113E+03  0.00000000000E+00 0.  1.
          2   -1    0    0  501    0  0.00000000000E+00 -0.00000000000E+00 -0.24297960124E+04  0.24297960124E+04  0.00000000000E+00 0. -1.
         23    2    1    2    0    0 -0.10510100792E+04 -0.13398657582E+03 -0.47082087018E+03  0.11631126307E+04  0.92650477207E+02 0.  0.
         11    1    3    3    0    0 -0.36408425322E+03 -0.11255769969E+02 -0.19098140352E+03  0.41128813780E+03  0.00000000000E+00 0. -1.
        -11    1    3    3    0    0 -0.68692582597E+03 -0.12273080585E+03 -0.27983946666E+03  0.75182449295E+03  0.00000000000E+00 0.  1.
         22    1    1    2    0    0  0.10510100792E+04  0.13398657582E+03 -0.14388222211E+04  0.17868363028E+04  0.00000000000E+00 0. -1.
<mgrwt>
<rscale>  0 0.22484355E+04</rscale>
<asrwt>0</asrwt>
<pdfrwt beam="1">  1        2 0.37381477E+00 0.22484355E+04</pdfrwt>
<pdfrwt beam="2">  1       -2 0.80023526E-01 0.22484355E+04</pdfrwt>
<totfact> 0.48064163E+00</totfact>
</mgrwt>
</event>
<event>
 6    1  0.2047711E-005  0.2305032E+04  0.7818608E-02  0.8475940E-01
          2   -1    0    0  501    0  0.00000000000E+00  0.00000000000E+00  0.11642902664E+04  0.11642902664E+04  0.00000000000E+00 0. -1.
         -2   -1    0    0    0  501 -0.00000000000E+00 -0.00000000000E+00 -0.11408603544E+04  0.11408603544E+04  0.00000000000E+00 0.  1.
         23    2    1    2    0    0  0.14965687283E+03  0.40131813072E+03  0.10798947789E+04  0.11651631487E+04  0.89325293981E+02 0.  0.
         11    1    3    3    0    0  0.12026633766E+03  0.25096653763E+03  0.59977648674E+03  0.66119590821E+03  0.00000000000E+00 0.  1.
        -11    1    3    3    0    0  0.29390535168E+02  0.15035159309E+03  0.48011829211E+03  0.50396724053E+03  0.00000000000E+00 0. -1.
         22    1    1    2    0    0 -0.14965687283E+03 -0.40131813072E+03 -0.10564648668E+04  0.11399874721E+04  0.00000000000E+00 0.  1.
<mgrwt>
<rscale>  0 0.23050315E+04</rscale>
<asrwt>0</asrwt>
<pdfrwt beam="1">  1        2 0.17912158E+00 0.23050315E+04</pdfrwt>
<pdfrwt beam="2">  1       -2 0.17551698E+00 0.23050315E+04</pdfrwt>
<totfact> 0.35140423E+00</totfact>
</mgrwt>
</event>
<event>
 6    1  0.2047711E-005  0.1147326E+04  0.7818608E-02  0.9160254E-01
         -2   -1    0    0    0  501 -0.00000000000E+00  0.00000000000E+00  0.96568080990E+03  0.96568080990E+03  0.00000000000E+00 0.  1.
          2   -1    0    0  501    0  0.00000000000E+00 -0.00000000000E+00 -0.34078471248E+03  0.34078471248E+03  0.00000000000E+00 0. -1.
         23    2    1    2    0    0  0.18044324925E+02  0.56918366297E+03  0.32993172372E+03  0.66513906759E+03  0.96225760957E+02 0.  0.
         13    1    3    3    0    0  0.12101382703E+02  0.39629086416E+03  0.27899847970E+03  0.48480206699E+03  0.00000000000E+00 0.  1.
        -13    1    3    3    0    0  0.59429422219E+01  0.17289279880E+03  0.50933244020E+02  0.18033700060E+03  0.00000000000E+00 0. -1.
         22    1    1    2    0    0 -0.18044324925E+02 -0.56918366297E+03  0.29496437371E+03  0.64132645479E+03  0.00000000000E+00 0.  1.
<mgrwt>
<rscale>  0 0.11473260E+04</rscale>
<asrwt>0</asrwt>
<pdfrwt beam="1">  1        2 0.52428418E-01 0.11473260E+04</pdfrwt>
<pdfrwt beam="2">  1       -2 0.14856628E+00 0.11473260E+04</pdfrwt>
<totfact> 0.28940631E+01</totfact>
</mgrwt>
</event>
<event>
 6    1  0.2047711E-005  0.2242241E+04  0.7818608E-02  0.8501049E-01
         -2   -1    0    0    0  501 -0.00000000000E+00  0.00000000000E+00  0.35469901802E+03  0.35469901802E+03  0.00000000000E+00 0.  1.
          2   -1    0    0  501    0  0.00000000000E+00 -0.00000000000E+00 -0.35435993630E+04  0.35435993630E+04  0.00000000000E+00 0. -1.
         23    2    1    2    0    0 -0.49818874776E+03  0.61827742817E+03 -0.29685484662E+04  0.30742753491E+04  0.91814591677E+02 0.  0.
         11    1    3    3    0    0 -0.22130596788E+03  0.22091553502E+03 -0.10528732439E+04  0.10983269426E+04  0.00000000000E+00 0. -1.
        -11    1    3    3    0    0 -0.27688277988E+03  0.39736189315E+03 -0.19156752223E+04  0.19759484066E+04  0.00000000000E+00 0.  1.
         22    1    1    2    0    0  0.49818874776E+03 -0.61827742817E+03 -0.22035187869E+03  0.82402303185E+03  0.00000000000E+00 0.  1.
<mgrwt>
<rscale>  0 0.22422410E+04</rscale>
<asrwt>0</asrwt>
<pdfrwt beam="1">  1        2 0.54516917E+00 0.22422410E+04</pdfrwt>
<pdfrwt beam="2">  1       -2 0.54569076E-01 0.22422410E+04</pdfrwt>
<totfact> 0.21878499E+00</totfact>
</mgrwt>
</event>
<event>
 6    1  0.2047711E-005  0.2963284E+04  0.7818608E-02  0.8254294E-01
         -2   -1    0    0    0  501 -0.00000000000E+00  0.00000000000E+00  0.18035311789E+04  0.18035311789E+04  0.00000000000E+00 0.  1.
          2   -1    0    0  501    0  0.00000000000E+00 -0.00000000000E+00 -0.12172027767E+04  0.12172027767E+04  0.00000000000E+00 0. -1.
         23    2    1    2    0    0  0.14450853326E+04 -0.32036834320E+03  0.27490404843E+03  0.15081558181E+04  0.89745428782E+02 0.  0.
         11    1    3    3    0    0  0.78763300360E+03 -0.14230326836E+03  0.18074351602E+03  0.82053896137E+03  0.00000000000E+00 0. -1.
        -11    1    3    3    0    0  0.65745232903E+03 -0.17806507483E+03  0.94160532412E+02  0.68761685675E+03  0.00000000000E+00 0.  1.
         22    1    1    2    0    0 -0.14450853326E+04  0.32036834320E+03  0.31142435367E+03  0.15125781375E+04  0.00000000000E+00 0. -1.
<mgrwt>
<rscale>  0 0.29632841E+04</rscale>
<asrwt>0</asrwt>
<pdfrwt beam="1">  1        2 0.18726197E+00 0.29632841E+04</pdfrwt>
<pdfrwt beam="2">  1       -2 0.27746633E+00 0.29632841E+04</pdfrwt>
<totfact> 0.69306025E-01</totfact>
</mgrwt>
</event>
<event>
 6    1  0.2047711E-005  0.4273798E+04  0.7818608E-02  0.7951481E-01
          2   -1    0    0  501    0  0.00000000000E+00  0.00000000000E+00  0.29480509241E+04  0.29480509241E+04  0.00000000000E+00 0. -1.
         -2   -1    0    0    0  501 -0.00000000000E+00 -0.00000000000E+00 -0.15489341129E+04  0.15489341129E+04  0.00000000000E+00 0.  1.
         23    2    1    2    0    0  0.19954833121E+04  0.75817819330E+03  0.77675102657E+03  0.22734457431E+04  0.91790892668E+02 0.  0.
         11    1    3    3    0    0  0.25124363772E+03  0.64722557187E+02  0.85373411089E+02  0.27313182573E+03  0.00000000000E+00 0.  1.
        -11    1    3    3    0    0  0.17442396744E+04  0.69345563611E+03  0.69137761548E+03  0.20003139174E+04  0.00000000000E+00 0. -1.
         22    1    1    2    0    0 -0.19954833121E+04 -0.75817819330E+03  0.62236578468E+03  0.22235392939E+04  0.00000000000E+00 0.  1.
<mgrwt>
<rscale>  0 0.42737977E+04</rscale>
<asrwt>0</asrwt>
<pdfrwt beam="1">  1        2 0.45354630E+00 0.42737977E+04</pdfrwt>
<pdfrwt beam="2">  1       -2 0.23829756E+00 0.42737977E+04</pdfrwt>
<totfact> 0.10983066E-01</totfact>
</mgrwt>
</event>
<event>
 6    1  0.2047711E-005  0.4812786E+04  0.7818608E-02  0.7858054E-01
          2   -1    0    0  501    0  0.00000000000E+00  0.00000000000E+00  0.30138334394E+04  0.30138334394E+04  0.00000000000E+00 0. -1.
         -2   -1    0    0    0  501 -0.00000000000E+00 -0.00000000000E+00 -0.19213824762E+04  0.19213824762E+04  0.00000000000E+00 0.  1.
         23    2    1    2    0    0 -0.95663934763E+03 -0.84875191528E+03 -0.15428066938E+04  0.20060314601E+04  0.91493547746E+02 0.  0.
         11    1    3    3    0    0 -0.59811721221E+03 -0.47487096093E+03 -0.89328893972E+03  0.11752496581E+04  0.00000000000E+00 0. -1.
        -11    1    3    3    0    0 -0.35852213542E+03 -0.37388095435E+03 -0.64951775411E+03  0.83078180199E+03  0.00000000000E+00 0.  1.
         22    1    1    2    0    0  0.95663934763E+03  0.84875191528E+03  0.26352576571E+04  0.29291844555E+04  0.00000000000E+00 0. -1.
<mgrwt>
<rscale>  0 0.48127858E+04</rscale>
<asrwt>0</asrwt>
<pdfrwt beam="1">  1        2 0.46366668E+00 0.48127858E+04</pdfrwt>
<pdfrwt beam="2">  1       -2 0.29559730E+00 0.48127858E+04</pdfrwt>
<totfact> 0.42623918E-02</totfact>
</mgrwt>
</event>
<event>
 6    1  0.2047711E-005  0.1026236E+04  0.7818608E-02  0.9280229E-01
          2   -1    0    0  501    0  0.00000000000E+00  0.00000000000E+00  0.12954648320E+04  0.12954648320E+04  0.00000000000E+00 0. -1.
         -2   -1    0    0    0  501 -0.00000000000E+00 -0.00000000000E+00 -0.20323977010E+03  0.20323977010E+03  0.00000000000E+00 0.  1.
         23    2    1    2    0    0 -0.37352958829E+03  0.20149977813E+03  0.96101491115E+03  0.10544719856E+04  0.90746873433E+02 0.  0.
         11    1    3    3    0    0 -0.95726209322E+02  0.42894840742E+02  0.34142671016E+03  0.35717736900E+03  0.00000000000E+00 0.  1.
        -11    1    3    3    0    0 -0.27780337897E+03  0.15860493739E+03  0.61958820099E+03  0.69729461659E+03  0.00000000000E+00 0. -1.
         22    1    1    2    0    0  0.37352958829E+03 -0.20149977813E+03  0.13121015076E+03  0.44423261652E+03  0.00000000000E+00 0.  1.
<mgrwt>
<rscale>  0 0.10262358E+04</rscale>
<asrwt>0</asrwt>
<pdfrwt beam="1">  1        2 0.19930228E+00 0.10262358E+04</pdfrwt>
<pdfrwt beam="2">  1       -2 0.31267658E-01 0.10262358E+04</pdfrwt>
<totfact> 0.15715303E+02</totfact>
</mgrwt>
</event>
<event>
 6    1  0.2047711E-005  0.1849726E+04  0.7818608E-02  0.8680294E-01
          1   -1    0    0  501    0  0.00000000000E+00  0.00000000000E+00  0.29391113913E+03  0.29391113913E+03  0.00000000000E+00 0.  1.
         -1   -1    0    0    0  501 -0.00000000000E+00 -0.00000000000E+00 -0.29103067981E+04  0.29103067981E+04  0.00000000000E+00 0. -1.
         23    2    1    2    0    0  0.74824284758E+03  0.40008789726E+03 -0.19383015505E+04  0.21180552863E+04  0.95956294088E+02 0.  0.
         13    1    3    3    0    0  0.51837552826E+03  0.30978412687E+03 -0.12916347914E+04  0.14258330295E+04  0.00000000000E+00 0. -1.
        -13    1    3    3    0    0  0.22986731932E+03  0.90303770393E+02 -0.64666675912E+03  0.69222225678E+03  0.00000000000E+00 0.  1.
         22    1    1    2    0    0 -0.74824284758E+03 -0.40008789726E+03 -0.67809410845E+03  0.10861626510E+04  0.00000000000E+00 0.  1.
<mgrwt>
<rscale>  0 0.18497260E+04</rscale>
<asrwt>0</asrwt>
<pdfrwt beam="1">  1        1 0.45217096E-01 0.18497260E+04</pdfrwt>
<pdfrwt beam="2">  1       -1 0.44773953E+00 0.18497260E+04</pdfrwt>
<totfact> 0.28430343E-01</totfact>
</mgrwt>
</event>
<event>
 6    1  0.2047711E-005  0.2116300E+04  0.7818608E-02  0.8554097E-01
          2   -1    0    0  501    0  0.00000000000E+00  0.00000000000E+00  0.31578946918E+04  0.31578946918E+04  0.00000000000E+00 0. -1.
         -2   -1    0    0    0  501 -0.00000000000E+00 -0.00000000000E+00 -0.35456564630E+03  0.35456564630E+03  0.00000000000E+00 0.  1.
         23    2    1    2    0    0 -0.39551580109E+03 -0.29898775412E+03 -0.14349808806E+03  0.52421393242E+03  0.91553916545E+02 0.  0.
         13    1    3    3    0    0 -0.15759802865E+03 -0.66535468266E+02 -0.37736413113E+02  0.17518031866E+03  0.00000000000E+00 0. -1.
        -13    1    3    3    0    0 -0.23791777244E+03 -0.23245228585E+03 -0.10576167495E+03  0.34903361375E+03  0.00000000000E+00 0.  1.
         22    1    1    2    0    0  0.39551580109E+03  0.29898775412E+03  0.29468271336E+04  0.29882464057E+04  0.00000000000E+00 0. -1.
<mgrwt>
<rscale>  0 0.21162996E+04</rscale>
<asrwt>0</asrwt>
<pdfrwt beam="1">  1        2 0.48582993E+00 0.21162996E+04</pdfrwt>
<pdfrwt beam="2">  1       -2 0.54548563E-01 0.21162996E+04</pdfrwt>
<totfact> 0.40297787E+00</totfact>
</mgrwt>
</event>
<event>
 6    1  0.2047711E-005  0.4024026E+04  0.7818608E-02  0.7999717E-01
         -2   -1    0    0    0  501 -0.00000000000E+00  0.00000000000E+00  0.19370161556E+04  0.19370161556E+04  0.00000000000E+00 0.  1.
          2   -1    0    0  501    0  0.00000000000E+00 -0.00000000000E+00 -0.20899140245E+04  0.20899140245E+04  0.00000000000E+00 0. -1.
         23    2    1    2    0    0 -0.74149093837E+03  0.18636732367E+04  0.68025781027E+02  0.20090367231E+04  0.92272981023E+02 0.  0.
         11    1    3    3    0    0 -0.60155181948E+03  0.15800823142E+04  0.79558470332E+02  0.16925880365E+04  0.00000000000E+00 0.  1.
        -11    1    3    3    0    0 -0.13993911889E+03  0.28359092251E+03 -0.11532689305E+02  0.31644868660E+03  0.00000000000E+00 0. -1.
         22    1    1    2    0    0  0.74149093837E+03 -0.18636732367E+04 -0.22092364990E+03  0.20178934570E+04  0.00000000000E+00 0.  1.
<mgrwt>
<rscale>  0 0.40240265E+04</rscale>
<asrwt>0</asrwt>
<pdfrwt beam="1">  1        2 0.32152524E+00 0.40240265E+04</pdfrwt>
<pdfrwt beam="2">  1       -2 0.29800248E+00 0.40240265E+04</pdfrwt>
<totfact> 0.15322393E-01</totfact>
</mgrwt>
</event>
<event>
 6    1  0.2047711E-005  0.3145547E+04  0.7818608E-02  0.8203348E-01
          2   -1    0    0  501    0  0.00000000000E+00  0.00000000000E+00  0.43888185070E+04  0.43888185070E+04  0.00000000000E+00 0. -1.
         -2   -1    0    0    0  501 -0.00000000000E+00 -0.00000000000E+00 -0.56361777957E+03  0.56361777957E+03  0.00000000000E+00 0.  1.
         23    2    1    2    0    0 -0.12799533474E+04  0.52996513477E+03  0.30821590847E+04  0.33804138636E+04  0.91376421338E+02 0.  0.
         13    1    3    3    0    0 -0.55578075563E+03  0.19748259720E+03  0.13934568705E+04  0.15131469441E+04  0.00000000000E+00 0. -1.
        -13    1    3    3    0    0 -0.72417259176E+03  0.33248253757E+03  0.16887022142E+04  0.18672669195E+04  0.00000000000E+00 0.  1.
         22    1    1    2    0    0  0.12799533474E+04 -0.52996513477E+03  0.74304164282E+03  0.15720224230E+04  0.00000000000E+00 0.  1.
<mgrwt>
<rscale>  0 0.31455468E+04</rscale>
<asrwt>0</asrwt>
<pdfrwt beam="1">  1        2 0.67520282E+00 0.31455468E+04</pdfrwt>
<pdfrwt beam="2">  1       -2 0.86710431E-01 0.31455468E+04</pdfrwt>
<totfact> 0.15279972E-01</totfact>
</mgrwt>
</event>
<event>
 6    1  0.2047711E-005  0.1452794E+04  0.7818608E-02  0.8916466E-01
         -2   -1    0    0    0  501 -0.00000000000E+00  0.00000000000E+00  0.10385520259E+04  0.10385520259E+04  0.00000000000E+00 0.  1.
          2   -1    0    0  501    0  0.00000000000E+00 -0.00000000000E+00 -0.50806529472E+03  0.50806529472E+03  0.00000000000E+00 0. -1.
         23    2    1    2    0    0  0.37705077745E+03  0.12912683954E+03 -0.37679987818E+03  0.55565313308E+03  0.89057434523E+02 0.  0.
         13    1    3    3    0    0  0.11232161439E+03  0.52223528014E+02 -0.66520553059E+02  0.14060023441E+03  0.00000000000E+00 0. -1.
        -13    1    3    3    0    0  0.26472916306E+03  0.76903311522E+02 -0.31027932512E+03  0.41505289867E+03  0.00000000000E+00 0.  1.
         22    1    1    2    0    0 -0.37705077745E+03 -0.12912683954E+03  0.90728660938E+03  0.99096418756E+03  0.00000000000E+00 0.  1.
<mgrwt>
<rscale>  0 0.14527935E+04</rscale>
<asrwt>0</asrwt>
<pdfrwt beam="1">  1        2 0.78163891E-01 0.14527935E+04</pdfrwt>
<pdfrwt beam="2">  1       -2 0.15977723E+00 0.14527935E+04</pdfrwt>
<totfact> 0.14802882E+01</totfact>
</mgrwt>
</event>
<event>
 6    1  0.2047711E-005  0.5228217E+03  0.7818608E-02  0.1007988E+00
         -2   -1    0    0    0  501 -0.00000000000E+00  0.00000000000E+00  0.67025696333E+02  0.67025696333E+02  0.00000000000E+00 0.  1.
          2   -1    0    0  501    0  0.00000000000E+00 -0.00000000000E+00 -0.10195436912E+04  0.10195436912E+04  0.00000000000E+00 0. -1.
         23    2    1    2    0    0  0.11479628891E+03 -0.10872008932E+03 -0.90217870974E+03  0.92064082042E+03  0.93031447094E+02 0.  0.
         13    1    3    3    0    0  0.69676021372E+00 -0.49421820618E+02 -0.16188986829E+03  0.16926704133E+03  0.00000000000E+00 0.  1.
        -13    1    3    3    0    0  0.11409952869E+03 -0.59298268699E+02 -0.74028884145E+03  0.75137377909E+03  0.00000000000E+00 0. -1.
         22    1    1    2    0    0 -0.11479628891E+03  0.10872008932E+03 -0.50339285175E+02  0.16592856716E+03  0.00000000000E+00 0.  1.
<mgrwt>
<rscale>  0 0.52282167E+03</rscale>
<asrwt>0</asrwt>
<pdfrwt beam="1">  1        2 0.15685286E+00 0.52282167E+03</pdfrwt>
<pdfrwt beam="2">  1       -2 0.10311647E-01 0.52282167E+03</pdfrwt>
<totfact> 0.16097323E+03</totfact>
</mgrwt>
</event>
<event>
 6    1  0.2047711E-005  0.3769807E+04  0.7818608E-02  0.8052665E-01
          1   -1    0    0  501    0  0.00000000000E+00  0.00000000000E+00  0.24014722367E+04  0.24014722367E+04  0.00000000000E+00 0. -1.
         -1   -1    0    0    0  501 -0.00000000000E+00 -0.00000000000E+00 -0.14794515941E+04  0.14794515941E+04  0.00000000000E+00 0.  1.
         23    2    1    2    0    0 -0.42486310193E+03  0.11368205912E+04  0.19445485606E+04  0.22939666621E+04  0.90245389837E+02 0.  0.
         13    1    3    3    0    0 -0.31930621002E+03  0.94783848073E+03  0.16186234777E+04  0.19027075981E+04  0.00000000000E+00 0. -1.
        -13    1    3    3    0    0 -0.10555689191E+03  0.18898211045E+03  0.32592508299E+03  0.39125906408E+03  0.00000000000E+00 0.  1.
         22    1    1    2    0    0  0.42486310193E+03 -0.11368205912E+04 -0.10225279181E+04  0.15869571687E+04  0.00000000000E+00 0.  1.
<mgrwt>
<rscale>  0 0.37698074E+04</rscale>
<asrwt>0</asrwt>
<pdfrwt beam="1">  1        1 0.36945727E+00 0.37698074E+04</pdfrwt>
<pdfrwt beam="2">  1       -1 0.22760794E+00 0.37698074E+04</pdfrwt>
<totfact> 0.12378862E-01</totfact>
</mgrwt>
</event>
<event>
 6    1  0.2047711E-005  0.1833397E+04  0.7818608E-02  0.8688738E-01
          2   -1    0    0  501    0  0.00000000000E+00  0.00000000000E+00  0.11537323199E+04  0.11537323199E+04  0.00000000000E+00 0. -1.
         -2   -1    0    0    0  501 -0.00000000000E+00 -0.00000000000E+00 -0.72836326305E+03  0.72836326305E+03  0.00000000000E+00 0.  1.
         23    2    1    2    0    0  0.42773262377E+03 -0.32377239364E+03  0.97343869715E+03  0.11151770143E+04  0.90846660933E+02 0.  0.
         13    1    3    3    0    0  0.18600950695E+03 -0.89972270739E+02  0.33542604193E+03  0.39396088103E+03  0.00000000000E+00 0. -1.
        -13    1    3    3    0    0  0.24172311682E+03 -0.23380012290E+03  0.63801265521E+03  0.72121613327E+03  0.00000000000E+00 0.  1.
         22    1    1    2    0    0 -0.42773262377E+03  0.32377239364E+03 -0.54806964030E+03  0.76691856865E+03  0.00000000000E+00 0.  1.
<mgrwt>
<rscale>  0 0.18333971E+04</rscale>
<asrwt>0</asrwt>
<pdfrwt beam="1">  1        2 0.17749728E+00 0.18333971E+04</pdfrwt>
<pdfrwt beam="2">  1       -2 0.11205589E+00 0.18333971E+04</pdfrwt>
<totfact> 0.11946770E+01</totfact>
</mgrwt>
</event>
<event>
 6    1  0.2047711E-005  0.1280736E+04  0.7818608E-02  0.9044983E-01
         -2   -1    0    0    0  501 -0.00000000000E+00  0.00000000000E+00  0.37197800346E+03  0.37197800346E+03  0.00000000000E+00 0.  1.
          2   -1    0    0  501    0  0.00000000000E+00 -0.00000000000E+00 -0.11024073478E+04  0.11024073478E+04  0.00000000000E+00 0. -1.
         23    2    1    2    0    0 -0.26658559873E+03  0.56939646338E+03 -0.48676520807E+03  0.80010616189E+03  0.89158782782E+02 0.  0.
         11    1    3    3    0    0 -0.12342743191E+03  0.17948301784E+03 -0.13917424444E+03  0.25849169223E+03  0.00000000000E+00 0.  1.
        -11    1    3    3    0    0 -0.14315816683E+03  0.38991344554E+03 -0.34759096363E+03  0.54161446965E+03  0.00000000000E+00 0. -1.
         22    1    1    2    0    0  0.26658559873E+03 -0.56939646338E+03 -0.24366413631E+03  0.67427918942E+03  0.00000000000E+00 0.  1.
<mgrwt>
<rscale>  0 0.12807362E+04</rscale>
<asrwt>0</asrwt>
<pdfrwt beam="1">  1        2 0.16960113E+00 0.12807362E+04</pdfrwt>
<pdfrwt beam="2">  1       -2 0.57227385E-01 0.12807362E+04</pdfrwt>
<totfact> 0.60974395E+01</totfact>
</mgrwt>
</event>
<event>
 6    1  0.2047711E-005  0.2147101E+04  0.7818608E-02  0.8540774E-01
          2   -1    0    0  501    0  0.00000000000E+00  0.00000000000E+00  0.32784479115E+04  0.32784479115E+04  0.00000000000E+00 0. -1.
         -2   -1    0    0    0  501 -0.00000000000E+00 -0.00000000000E+00 -0.35154139361E+03  0.35154139361E+03  0.00000000000E+00 0.  1.
         23    2    1    2    0    0 -0.10653810007E+04 -0.10435395926E+02  0.16612953528E+04  0.19756262267E+04  0.89728279637E+02 0.  0.
         11    1    3    3    0    0 -0.23460114070E+03  0.21018080681E+02  0.42237319323E+03  0.48360993506E+03  0.00000000000E+00 0. -1.
        -11    1    3    3    0    0 -0.83077985999E+03 -0.31453476607E+02  0.12389221596E+04  0.14920162916E+04  0.00000000000E+00 0.  1.
         22    1    1    2    0    0  0.10653810007E+04  0.10435395926E+02  0.12656111651E+04  0.16543630784E+04  0.00000000000E+00 0. -1.
<mgrwt>
<rscale>  0 0.21471005E+04</rscale>
<asrwt>0</asrwt>
<pdfrwt beam="1">  1        2 0.50437658E+00 0.21471005E+04</pdfrwt>
<pdfrwt beam="2">  1       -2 0.54083294E-01 0.21471005E+04</pdfrwt>
<totfact> 0.34120870E+00</totfact>
</mgrwt>
</event>
<event>
 6    1  0.2047711E-005  0.1503293E+04  0.7818608E-02  0.8882266E-01
          1   -1    0    0  501    0  0.00000000000E+00  0.00000000000E+00  0.18073753666E+04  0.18073753666E+04  0.00000000000E+00 0. -1.
         -1   -1    0    0    0  501 -0.00000000000E+00 -0.00000000000E+00 -0.31259284717E+03  0.31259284717E+03  0.00000000000E+00 0.  1.
         23    2    1    2    0    0 -0.59093783081E+03 -0.35997465095E+03  0.34266386300E+03  0.77603121088E+03  0.77567055160E+02 0.  0.
         11    1    3    3    0    0 -0.38753834145E+03 -0.24009484204E+03  0.18424427763E+03  0.49170870758E+03  0.00000000000E+00 0.  1.
        -11    1    3    3    0    0 -0.20339948936E+03 -0.11987980891E+03  0.15841958536E+03  0.28432250330E+03  0.00000000000E+00 0. -1.
         22    1    1    2    0    0  0.59093783081E+03  0.35997465095E+03  0.11521186564E+04  0.13439370029E+04  0.00000000000E+00 0. -1.
<mgrwt>
<rscale>  0 0.15032932E+04</rscale>
<asrwt>0</asrwt>
<pdfrwt beam="1">  1        1 0.27805774E+00 0.15032932E+04</pdfrwt>
<pdfrwt beam="2">  1       -1 0.48091208E-01 0.15032932E+04</pdfrwt>
<totfact> 0.16836376E+01</totfact>
</mgrwt>
</event>
<event>
 6    1  0.2047711E-005  0.3666122E+04  0.7818608E-02  0.8075511E-01
          2   -1    0    0  501    0  0.00000000000E+00  0.00000000000E+00  0.20899625693E+04  0.20899625693E+04  0.00000000000E+00 0.  1.
         -2   -1    0    0    0  501 -0.00000000000E+00 -0.00000000000E+00 -0.16077384933E+04  0.16077384933E+04  0.00000000000E+00 0. -1.
         23    2    1    2    0    0  0.95019453542E+03  0.79111513894E+03  0.16046680919E+04  0.20277868771E+04  0.90703446762E+02 0.  0.
         13    1    3    3    0    0  0.48069943573E+03  0.38052725615E+03  0.72555329958E+03  0.94989501037E+03  0.00000000000E+00 0. -1.
        -13    1    3    3    0    0  0.46949509969E+03  0.41058788279E+03  0.87911479236E+03  0.10778918667E+04  0.00000000000E+00 0.  1.
         22    1    1    2    0    0 -0.95019453542E+03 -0.79111513894E+03 -0.11224440159E+04  0.16699141855E+04  0.00000000000E+00 0. -1.
<mgrwt>
<rscale>  0 0.36661224E+04</rscale>
<asrwt>0</asrwt>
<pdfrwt beam="1">  1        2 0.32153270E+00 0.36661224E+04</pdfrwt>
<pdfrwt beam="2">  1       -2 0.24734438E+00 0.36661224E+04</pdfrwt>
<totfact> 0.32200007E-01</totfact>
</mgrwt>
</event>
<event>
 6    1  0.2047711E-005  0.5713923E+04  0.7818608E-02  0.7726920E-01
         -2   -1    0    0    0  501 -0.00000000000E+00  0.00000000000E+00  0.41374875078E+04  0.41374875078E+04  0.00000000000E+00 0.  1.
          2   -1    0    0  501    0  0.00000000000E+00 -0.00000000000E+00 -0.19727500024E+04  0.19727500024E+04  0.00000000000E+00 0. -1.
         23    2    1    2    0    0  0.19722615326E+04  0.21896534691E+02 -0.11265033892E+04  0.22732384697E+04  0.91149563378E+02 0.  0.
         11    1    3    3    0    0  0.15022563992E+03 -0.12451069373E+02 -0.10940916603E+03  0.18626093962E+03  0.00000000000E+00 0. -1.
        -11    1    3    3    0    0  0.18220358926E+04  0.34347604064E+02 -0.10170942232E+04  0.20869775300E+04  0.00000000000E+00 0.  1.
         22    1    1    2    0    0 -0.19722615326E+04 -0.21896534691E+02  0.32912408947E+04  0.38369990406E+04  0.00000000000E+00 0.  1.
<mgrwt>
<rscale>  0 0.57139228E+04</rscale>
<asrwt>0</asrwt>
<pdfrwt beam="1">  1        2 0.30350000E+00 0.57139228E+04</pdfrwt>
<pdfrwt beam="2">  1       -2 0.63653654E+00 0.57139228E+04</pdfrwt>
<totfact> 0.18096703E-03</totfact>
</mgrwt>
</event>
<event>
 6    1  0.2047711E-005  0.2981557E+04  0.7818608E-02  0.8249017E-01
          2   -1    0    0  501    0  0.00000000000E+00  0.00000000000E+00  0.11042403620E+04  0.11042403620E+04  0.00000000000E+00 0. -1.
         -2   -1    0    0    0  501 -0.00000000000E+00 -0.00000000000E+00 -0.20126237554E+04  0.20126237554E+04  0.00000000000E+00 0.  1.
         23    2    1    2    0    0 -0.86723627854E+03 -0.12107810370E+04 -0.48423816123E+03  0.15683200721E+04  0.83974815319E+02 0.  0.
         13    1    3    3    0    0 -0.65378991464E+03 -0.96768011086E+03 -0.39302610378E+03  0.12321994837E+04  0.00000000000E+00 0. -1.
        -13    1    3    3    0    0 -0.21344636390E+03 -0.24310092611E+03 -0.91212057454E+02  0.33612058843E+03  0.00000000000E+00 0.  1.
         22    1    1    2    0    0  0.86723627854E+03  0.12107810370E+04 -0.42414523215E+03  0.15485440453E+04  0.00000000000E+00 0. -1.
<mgrwt>
<rscale>  0 0.29815569E+04</rscale>
<asrwt>0</asrwt>
<pdfrwt beam="1">  1        2 0.16988313E+00 0.29815569E+04</pdfrwt>
<pdfrwt beam="2">  1       -2 0.30963442E+00 0.29815569E+04</pdfrwt>
<totfact> 0.51492609E-01</totfact>
</mgrwt>
</event>
<event>
 6    1  0.2047711E-005  0.9844689E+03  0.7818608E-02  0.9325745E-01
         -1   -1    0    0    0  501 -0.00000000000E+00  0.00000000000E+00  0.23661695860E+03  0.23661695860E+03  0.00000000000E+00 0.  1.
          1   -1    0    0  501    0  0.00000000000E+00 -0.00000000000E+00 -0.10239957627E+04  0.10239957627E+04  0.00000000000E+00 0. -1.
         23    2    1    2    0    0  0.93212656631E+02 -0.15737303728E+03 -0.97645181409E+03  0.99754718710E+03  0.90484103737E+02 0.  0.
         11    1    3    3    0    0  0.80845217261E+02 -0.11775723105E+03 -0.89293333870E+03  0.90428571922E+03  0.00000000000E+00 0. -1.
        -11    1    3    3    0    0  0.12367439370E+02 -0.39615806231E+02 -0.83518475393E+02  0.93261467883E+02  0.00000000000E+00 0.  1.
         22    1    1    2    0    0 -0.93212656631E+02  0.15737303728E+03  0.18907300995E+03  0.26306553425E+03  0.00000000000E+00 0.  1.
<mgrwt>
<rscale>  0 0.98446892E+03</rscale>
<asrwt>0</asrwt>
<pdfrwt beam="1">  1        1 0.15753781E+00 0.98446892E+03</pdfrwt>
<pdfrwt beam="2">  1       -1 0.36402609E-01 0.98446892E+03</pdfrwt>
<totfact> 0.10503106E+02</totfact>
</mgrwt>
</event>
<event>
 6    1  0.2047711E-005  0.1647237E+04  0.7818608E-02  0.8792042E-01
         -1   -1    0    0    0  501 -0.00000000000E+00  0.00000000000E+00  0.90341939920E+03  0.90341939920E+03  0.00000000000E+00 0.  1.
          1   -1    0    0  501    0  0.00000000000E+00 -0.00000000000E+00 -0.75086702386E+03  0.75086702386E+03  0.00000000000E+00 0. -1.
         23    2    1    2    0    0  0.42696363041E+03 -0.69394223202E+03 -0.26612728928E+02  0.82004790940E+03  0.88975127399E+02 0.  0.
         11    1    3    3    0    0  0.21298956745E+03 -0.41868948918E+03 -0.37449225463E+02  0.47124079692E+03  0.00000000000E+00 0.  1.
        -11    1    3    3    0    0  0.21397406296E+03 -0.27525274284E+03  0.10836496535E+02  0.34880711248E+03  0.00000000000E+00 0. -1.
         22    1    1    2    0    0 -0.42696363041E+03  0.69394223202E+03  0.17916510427E+03  0.83423851366E+03  0.00000000000E+00 0.  1.
<mgrwt>
<rscale>  0 0.16472375E+04</rscale>
<asrwt>0</asrwt>
<pdfrwt beam="1">  1        1 0.11551800E+00 0.16472375E+04</pdfrwt>
<pdfrwt beam="2">  1       -1 0.13898760E+00 0.16472375E+04</pdfrwt>
<totfact> 0.99840522E+00</totfact>
</mgrwt>
</event>
<event>
 6    1  0.2047711E-005  0.1991976E+04  0.7818608E-02  0.8610382E-01
         -2   -1    0    0    0  501 -0.00000000000E+00  0.00000000000E+00  0.73412748020E+03  0.73412748020E+03  0.00000000000E+00 0.  1.
          2   -1    0    0  501    0  0.00000000000E+00 -0.00000000000E+00 -0.13512526074E+04  0.13512526074E+04  0.00000000000E+00 0. -1.
         23    2    1    2    0    0 -0.11237261383E+03 -0.65321493518E+03  0.46629226104E+03  0.81529717968E+03  0.89239355692E+02 0.  0.
         11    1    3    3    0    0 -0.55485488498E+02 -0.31845997853E+03  0.17314428679E+03  0.36670743298E+03  0.00000000000E+00 0. -1.
        -11    1    3    3    0    0 -0.56887125330E+02 -0.33475495665E+03  0.29314797425E+03  0.44858974670E+03  0.00000000000E+00 0.  1.
         22    1    1    2    0    0  0.11237261383E+03  0.65321493518E+03 -0.10834173883E+04  0.12700829080E+04  0.00000000000E+00 0. -1.
<mgrwt>
<rscale>  0 0.19919756E+04</rscale>
<asrwt>0</asrwt>
<pdfrwt beam="1">  1        2 0.20788502E+00 0.19919756E+04</pdfrwt>
<pdfrwt beam="2">  1       -2 0.11294269E+00 0.19919756E+04</pdfrwt>
<totfact> 0.88442512E+00</totfact>
</mgrwt>
</event>
<event>
 6    1  0.2047711E-005  0.2719291E+04  0.7818608E-02  0.8328773E-01
          2   -1    0    0  501    0  0.00000000000E+00  0.00000000000E+00  0.40454434654E+04  0.40454434654E+04  0.00000000000E+00 0. -1.
         -2   -1    0    0    0  501 -0.00000000000E+00 -0.00000000000E+00 -0.45696729735E+03  0.45696729735E+03  0.00000000000E+00 0.  1.
         23    2    1    2    0    0  0.11446779095E+04  0.65877121065E+03  0.23199211987E+04  0.26711547089E+04  0.93627380325E+02 0.  0.
         11    1    3    3    0    0  0.59255831002E+03  0.32760481812E+03  0.12804906041E+04  0.14484841921E+04  0.00000000000E+00 0.  1.
        -11    1    3    3    0    0  0.55211959947E+03  0.33116639253E+03  0.10394305946E+04  0.12226705168E+04  0.00000000000E+00 0. -1.
         22    1    1    2    0    0 -0.11446779095E+04 -0.65877121065E+03  0.12685549694E+04  0.18312560539E+04  0.00000000000E+00 0. -1.
<mgrwt>
<rscale>  0 0.27192906E+04</rscale>
<asrwt>0</asrwt>
<pdfrwt beam="1">  1        2 0.62237589E+00 0.27192906E+04</pdfrwt>
<pdfrwt beam="2">  1       -2 0.70302664E-01 0.27192906E+04</pdfrwt>
<totfact> 0.50737049E-01</totfact>
</mgrwt>
</event>
<event>
 6    1  0.2047711E-005  0.3121717E+04  0.7818608E-02  0.8209803E-01
         -1   -1    0    0    0  501 -0.00000000000E+00  0.00000000000E+00  0.14293019904E+04  0.14293019904E+04  0.00000000000E+00 0.  1.
          1   -1    0    0  501    0  0.00000000000E+00 -0.00000000000E+00 -0.17045234295E+04  0.17045234295E+04  0.00000000000E+00 0. -1.
         23    2    1    2    0    0 -0.13031521018E+04 -0.47502716067E+03  0.57699395891E+03  0.15059042645E+04  0.10473500621E+03 0.  0.
         11    1    3    3    0    0 -0.10004508881E+04 -0.33562694919E+03  0.39959840877E+03  0.11283733056E+04  0.00000000000E+00 0. -1.
        -11    1    3    3    0    0 -0.30270121368E+03 -0.13940021148E+03  0.17739555014E+03  0.37753095891E+03  0.00000000000E+00 0.  1.
         22    1    1    2    0    0  0.13031521018E+04  0.47502716067E+03 -0.85221539792E+03  0.16279211554E+04  0.00000000000E+00 0.  1.
<mgrwt>
<rscale>  0 0.31217167E+04</rscale>
<asrwt>0</asrwt>
<pdfrwt beam="1">  1        1 0.26223437E+00 0.31217167E+04</pdfrwt>
<pdfrwt beam="2">  1       -1 0.21989262E+00 0.31217167E+04</pdfrwt>
<totfact> 0.43938862E-01</totfact>
</mgrwt>
</event>
<event>
 6    1  0.2047711E-005  0.2231621E+04  0.7818608E-02  0.8505381E-01
          2   -1    0    0  501    0  0.00000000000E+00  0.00000000000E+00  0.14687343112E+04  0.14687343112E+04  0.00000000000E+00 0. -1.
         -2   -1    0    0    0  501 -0.00000000000E+00 -0.00000000000E+00 -0.84769133454E+03  0.84769133454E+03  0.00000000000E+00 0.  1.
         23    2    1    2    0    0  0.42901844727E+03 -0.25484415550E+03  0.13447379035E+04  0.14373711999E+04  0.93346479952E+02 0.  0.
         11    1    3    3    0    0  0.23060668532E+03 -0.14641444194E+03  0.86322183089E+03  0.90541071424E+03  0.00000000000E+00 0.  1.
        -11    1    3    3    0    0  0.19841176195E+03 -0.10842971355E+03  0.48151607262E+03  0.53196048561E+03  0.00000000000E+00 0. -1.
         22    1    1    2    0    0 -0.42901844727E+03  0.25484415550E+03 -0.72369492685E+03  0.87905444589E+03  0.00000000000E+00 0.  1.
<mgrwt>
<rscale>  0 0.22316212E+04</rscale>
<asrwt>0</asrwt>
<pdfrwt beam="1">  1        2 0.22595912E+00 0.22316212E+04</pdfrwt>
<pdfrwt beam="2">  1       -2 0.13041405E+00 0.22316212E+04</pdfrwt>
<totfact> 0.51940701E+00</totfact>
</mgrwt>
</event>
<event>
 6    1  0.2047711E-005  0.2086212E+04  0.7818608E-02  0.8567342E-01
         -2   -1    0    0    0  501 -0.00000000000E+00  0.00000000000E+00  0.53856752946E+03  0.53856752946E+03  0.00000000000E+00 0.  1.
          2   -1    0    0  501    0  0.00000000000E+00 -0.00000000000E+00 -0.20203034636E+04  0.20203034636E+04  0.00000000000E+00 0. -1.
         23    2    1    2    0    0  0.31718039261E+03  0.89912649627E+03 -0.22928386336E+03  0.98480998809E+03  0.90817205937E+02 0.  0.
         11    1    3    3    0    0  0.17765801612E+03  0.38418350209E+03 -0.79506703315E+02  0.43067464500E+03  0.00000000000E+00 0.  1.
        -11    1    3    3    0    0  0.13952237649E+03  0.51494299418E+03 -0.14977716004E+03  0.55413534310E+03  0.00000000000E+00 0. -1.
         22    1    1    2    0    0 -0.31718039261E+03 -0.89912649627E+03 -0.12524520708E+04  0.15740610050E+04  0.00000000000E+00 0. -1.
<mgrwt>
<rscale>  0 0.20862117E+04</rscale>
<asrwt>0</asrwt>
<pdfrwt beam="1">  1        2 0.31081592E+00 0.20862117E+04</pdfrwt>
<pdfrwt beam="2">  1       -2 0.82856544E-01 0.20862117E+04</pdfrwt>
<totfact> 0.76680496E+00</totfact>
</mgrwt>
</event>
<event>
 6    1  0.2047711E-005  0.2294631E+04  0.7818608E-02  0.8480041E-01
         -2   -1    0    0    0  501 -0.00000000000E+00  0.00000000000E+00  0.88762140645E+03  0.88762140645E+03  0.00000000000E+00 0.  1.
          2   -1    0    0  501    0  0.00000000000E+00 -0.00000000000E+00 -0.14829890822E+04  0.14829890822E+04  0.00000000000E+00 0. -1.
         23    2    1    2    0    0  0.10300271957E+04 -0.33423956194E+03  0.87073435949E+02  0.10906112779E+04  0.95807450586E+02 0.  0.
         11    1    3    3    0    0  0.14781577605E+03 -0.36767948928E+02 -0.19310984284E+02  0.15353924525E+03  0.00000000000E+00 0.  1.
        -11    1    3    3    0    0  0.88221141965E+03 -0.29747161301E+03  0.10638442023E+03  0.93707203265E+03  0.00000000000E+00 0. -1.
         22    1    1    2    0    0 -0.10300271957E+04  0.33423956194E+03 -0.68244111174E+03  0.12799992108E+04  0.00000000000E+00 0. -1.
<mgrwt>
<rscale>  0 0.22946310E+04</rscale>
<asrwt>0</asrwt>
<pdfrwt beam="1">  1        2 0.22815216E+00 0.22946310E+04</pdfrwt>
<pdfrwt beam="2">  1       -2 0.13655714E+00 0.22946310E+04</pdfrwt>
<totfact> 0.45103605E+00</totfact>
</mgrwt>
</event>
<event>
 6    1  0.2047711E-005  0.2747781E+04  0.7818608E-02  0.8319666E-01
         -2   -1    0    0    0  501 -0.00000000000E+00  0.00000000000E+00  0.10448606598E+04  0.10448606598E+04  0.00000000000E+00 0. -1.
          2   -1    0    0  501    0  0.00000000000E+00 -0.00000000000E+00 -0.18065330020E+04  0.18065330020E+04  0.00000000000E+00 0.  1.
         23    2    1    2    0    0  0.11322230850E+04 -0.68509143230E+03 -0.76092070068E+03  0.15280343192E+04  0.67890966315E+02 0.  0.
         13    1    3    3    0    0  0.10006394129E+04 -0.62918395126E+03 -0.68513055189E+03  0.13662194378E+04  0.00000000000E+00 0. -1.
        -13    1    3    3    0    0  0.13158367211E+03 -0.55907481039E+02 -0.75790148790E+02  0.16181488144E+03  0.00000000000E+00 0.  1.
         22    1    1    2    0    0 -0.11322230850E+04  0.68509143230E+03 -0.75164155254E+00  0.13233593426E+04  0.00000000000E+00 0. -1.
<mgrwt>
<rscale>  0 0.27477811E+04</rscale>
<asrwt>0</asrwt>
<pdfrwt beam="1">  1        2 0.27792815E+00 0.27477811E+04</pdfrwt>
<pdfrwt beam="2">  1       -2 0.16074780E+00 0.27477811E+04</pdfrwt>
<totfact> 0.18600580E+00</totfact>
</mgrwt>
</event>
<event>
 6    1  0.2047711E-005  0.3936420E+04  0.7818608E-02  0.8017497E-01
          2   -1    0    0  501    0  0.00000000000E+00  0.00000000000E+00  0.24106408937E+04  0.24106408937E+04  0.00000000000E+00 0. -1.
         -2   -1    0    0    0  501 -0.00000000000E+00 -0.00000000000E+00 -0.16069795717E+04  0.16069795717E+04  0.00000000000E+00 0.  1.
         23    2    1    2    0    0  0.15817181783E+04  0.11290544976E+04  0.90677300544E+02  0.19476101589E+04  0.91468595814E+02 0.  0.
         13    1    3    3    0    0  0.29469020334E+03  0.23513038672E+03 -0.12436370855E+02  0.37720455726E+03  0.00000000000E+00 0.  1.
        -13    1    3    3    0    0  0.12870279750E+04  0.89392411087E+03  0.10311367140E+03  0.15704056016E+04  0.00000000000E+00 0. -1.
         22    1    1    2    0    0 -0.15817181783E+04 -0.11290544976E+04  0.71298402144E+03  0.20700103065E+04  0.00000000000E+00 0. -1.
<mgrwt>
<rscale>  0 0.39364200E+04</rscale>
<asrwt>0</asrwt>
<pdfrwt beam="1">  1        2 0.37086783E+00 0.39364200E+04</pdfrwt>
<pdfrwt beam="2">  1       -2 0.24722762E+00 0.39364200E+04</pdfrwt>
<totfact> 0.20776596E-01</totfact>
</mgrwt>
</event>
<event>
 6    1  0.2047711E-005  0.3369848E+04  0.7818608E-02  0.8145346E-01
          2   -1    0    0  501    0  0.00000000000E+00  0.00000000000E+00  0.20583260474E+04  0.20583260474E+04  0.00000000000E+00 0. -1.
         -2   -1    0    0    0  501 -0.00000000000E+00 -0.00000000000E+00 -0.13792613711E+04  0.13792613711E+04  0.00000000000E+00 0.  1.
         23    2    1    2    0    0 -0.12726129424E+04  0.78230703041E+03  0.11324236010E+04  0.18764716939E+04  0.84940066729E+02 0.  0.
         13    1    3    3    0    0 -0.19449888897E+02  0.45907906901E+01  0.67246955888E+01  0.21085423117E+02  0.00000000000E+00 0.  1.
        -13    1    3    3    0    0 -0.12531630535E+04  0.77771623972E+03  0.11256989054E+04  0.18553862708E+04  0.00000000000E+00 0. -1.
         22    1    1    2    0    0  0.12726129424E+04 -0.78230703041E+03 -0.45335892465E+03  0.15611157246E+04  0.00000000000E+00 0.  1.
<mgrwt>
<rscale>  0 0.33698484E+04</rscale>
<asrwt>0</asrwt>
<pdfrwt beam="1">  1        2 0.31666555E+00 0.33698484E+04</pdfrwt>
<pdfrwt beam="2">  1       -2 0.21219406E+00 0.33698484E+04</pdfrwt>
<totfact> 0.57072354E-01</totfact>
</mgrwt>
</event>
<event>
 6    1  0.2047711E-005  0.9192604E+03  0.7818608E-02  0.9401820E-01
          2   -1    0    0  501    0  0.00000000000E+00  0.00000000000E+00  0.40271943848E+03  0.40271943848E+03  0.00000000000E+00 0. -1.
         -2   -1    0    0    0  501 -0.00000000000E+00 -0.00000000000E+00 -0.52458334824E+03  0.52458334824E+03  0.00000000000E+00 0.  1.
         23    2    1    2    0    0 -0.37058159778E+03 -0.16222678576E+03 -0.27178999757E+03  0.49587946511E+03  0.91533548504E+02 0.  0.
         11    1    3    3    0    0 -0.21231694143E+03 -0.45970313820E+02 -0.16113032449E+03  0.27047131981E+03  0.00000000000E+00 0.  1.
        -11    1    3    3    0    0 -0.15826465635E+03 -0.11625647194E+03 -0.11065967308E+03  0.22540814529E+03  0.00000000000E+00 0. -1.
         22    1    1    2    0    0  0.37058159778E+03  0.16222678576E+03  0.14992608781E+03  0.43142332162E+03  0.00000000000E+00 0. -1.
<mgrwt>
<rscale>  0 0.91926038E+03</rscale>
<asrwt>0</asrwt>
<pdfrwt beam="1">  1        2 0.61956837E-01 0.91926038E+03</pdfrwt>
<pdfrwt beam="2">  1       -2 0.80705130E-01 0.91926038E+03</pdfrwt>
<totfact> 0.10727336E+02</totfact>
</mgrwt>
</event>
<event>
 6    1  0.2047711E-005  0.1216566E+04  0.7818608E-02  0.9098478E-01
         -2   -1    0    0    0  501 -0.00000000000E+00  0.00000000000E+00  0.14290165636E+03  0.14290165636E+03  0.00000000000E+00 0.  1.
          2   -1    0    0  501    0  0.00000000000E+00 -0.00000000000E+00 -0.25892522749E+04  0.25892522749E+04  0.00000000000E+00 0. -1.
         23    2    1    2    0    0  0.50701410246E+03 -0.17680438690E+02 -0.19692017469E+04  0.20357008146E+04  0.94585350357E+02 0.  0.
         11    1    3    3    0    0  0.25756997787E+03  0.35508020839E+02 -0.93049794001E+03  0.96614156799E+03  0.00000000000E+00 0. -1.
        -11    1    3    3    0    0  0.24944412460E+03 -0.53188459529E+02 -0.10387038069E+04  0.10695592466E+04  0.00000000000E+00 0.  1.
         22    1    1    2    0    0 -0.50701410246E+03  0.17680438690E+02 -0.47714887159E+03  0.69645311664E+03  0.00000000000E+00 0.  1.
<mgrwt>
<rscale>  0 0.12165664E+04</rscale>
<asrwt>0</asrwt>
<pdfrwt beam="1">  1        2 0.39834647E+00 0.12165664E+04</pdfrwt>
<pdfrwt beam="2">  1       -2 0.21984872E-01 0.12165664E+04</pdfrwt>
<totfact> 0.55422366E+01</totfact>
</mgrwt>
</event>
<event>
 6    1  0.2047711E-005  0.1932114E+04  0.7818608E-02  0.8639034E-01
         -2   -1    0    0    0  501 -0.00000000000E+00  0.00000000000E+00  0.40373704043E+03  0.40373704043E+03  0.00000000000E+00 0.  1.
          2   -1    0    0  501    0  0.00000000000E+00 -0.00000000000E+00 -0.23115685594E+04  0.23115685594E+04  0.00000000000E+00 0. -1.
         23    2    1    2    0    0 -0.51449442270E+03  0.64986934624E+03 -0.26491994723E+03  0.87514443550E+03  0.93061949120E+02 0.  0.
         13    1    3    3    0    0 -0.40191133294E+03  0.53573132754E+03 -0.24699436337E+03  0.71382560223E+03  0.00000000000E+00 0.  1.
        -13    1    3    3    0    0 -0.11258308976E+03  0.11413801870E+03 -0.17925583858E+02  0.16131883327E+03  0.00000000000E+00 0. -1.
         22    1    1    2    0    0  0.51449442270E+03 -0.64986934624E+03 -0.16429115718E+04  0.18401611644E+04  0.00000000000E+00 0. -1.
<mgrwt>
<rscale>  0 0.19321137E+04</rscale>
<asrwt>0</asrwt>
<pdfrwt beam="1">  1        2 0.35562594E+00 0.19321137E+04</pdfrwt>
<pdfrwt beam="2">  1       -2 0.62113390E-01 0.19321137E+04</pdfrwt>
<totfact> 0.10040637E+01</totfact>
</mgrwt>
</event>
<event>
 6    1  0.2047711E-005  0.4224128E+04  0.7818608E-02  0.7960798E-01
         -2   -1    0    0    0  501 -0.00000000000E+00  0.00000000000E+00  0.29221303826E+04  0.29221303826E+04  0.00000000000E+00 0.  1.
          2   -1    0    0  501    0  0.00000000000E+00 -0.00000000000E+00 -0.15265625263E+04  0.15265625263E+04  0.00000000000E+00 0. -1.
         23    2    1    2    0    0  0.10223410568E+04  0.15435202683E+04  0.17665435349E+04  0.25605035621E+04  0.88692591604E+02 0.  0.
         11    1    3    3    0    0  0.22204999459E+03  0.27541581379E+03  0.35260051936E+03  0.49948693360E+03  0.00000000000E+00 0.  1.
        -11    1    3    3    0    0  0.80029106222E+03  0.12681044545E+04  0.14139430155E+04  0.20610166285E+04  0.00000000000E+00 0. -1.
         22    1    1    2    0    0 -0.10223410568E+04 -0.15435202683E+04 -0.37097567860E+03  0.18881893468E+04  0.00000000000E+00 0. -1.
<mgrwt>
<rscale>  0 0.42241282E+04</rscale>
<asrwt>0</asrwt>
<pdfrwt beam="1">  1        2 0.23485577E+00 0.42241282E+04</pdfrwt>
<pdfrwt beam="2">  1       -2 0.44955852E+00 0.42241282E+04</pdfrwt>
<totfact> 0.33217277E-02</totfact>
</mgrwt>
</event>
<event>
 6    1  0.2047711E-005  0.2563229E+04  0.7818608E-02  0.8380800E-01
          2   -1    0    0  501    0  0.00000000000E+00  0.00000000000E+00  0.28730203361E+04  0.28730203361E+04  0.00000000000E+00 0. -1.
         -2   -1    0    0    0  501 -0.00000000000E+00 -0.00000000000E+00 -0.57171050405E+03  0.57171050405E+03  0.00000000000E+00 0.  1.
         23    2    1    2    0    0 -0.66573620245E+03  0.82424246675E+03  0.18702240661E+03  0.10798224587E+04  0.91971878956E+02 0.  0.
         13    1    3    3    0    0 -0.31953105930E+03  0.40786347131E+03  0.13748364375E+03  0.53605453210E+03  0.00000000000E+00 0.  1.
        -13    1    3    3    0    0 -0.34620514315E+03  0.41637899543E+03  0.49538762864E+02  0.54376792661E+03  0.00000000000E+00 0. -1.
         22    1    1    2    0    0  0.66573620245E+03 -0.82424246675E+03  0.21142874254E+04  0.23649083814E+04  0.00000000000E+00 0.  1.
<mgrwt>
<rscale>  0 0.25632291E+04</rscale>
<asrwt>0</asrwt>
<pdfrwt beam="1">  1        2 0.44200312E+00 0.25632291E+04</pdfrwt>
<pdfrwt beam="2">  1       -2 0.87955464E-01 0.25632291E+04</pdfrwt>
<totfact> 0.20632800E+00</totfact>
</mgrwt>
</event>
<event>
 6    1  0.2047711E-005  0.7512068E+03  0.7818608E-02  0.9633459E-01
         -2   -1    0    0    0  501 -0.00000000000E+00  0.00000000000E+00  0.12651893573E+03  0.12651893573E+03  0.00000000000E+00 0.  1.
          2   -1    0    0  501    0  0.00000000000E+00 -0.00000000000E+00 -0.11150736270E+04  0.11150736270E+04  0.00000000000E+00 0. -1.
         23    2    1    2    0    0  0.33316842236E+03 -0.10866672776E+03 -0.69891321790E+03  0.78694782398E+03  0.89428944593E+02 0.  0.
         11    1    3    3    0    0  0.14633014606E+03 -0.72390654747E+02 -0.40640168718E+03  0.43796717900E+03  0.00000000000E+00 0.  1.
        -11    1    3    3    0    0  0.18683827630E+03 -0.36276073015E+02 -0.29251153072E+03  0.34898064498E+03  0.00000000000E+00 0. -1.
         22    1    1    2    0    0 -0.33316842236E+03  0.10866672776E+03 -0.28964147340E+03  0.45464473877E+03  0.00000000000E+00 0.  1.
<mgrwt>
<rscale>  0 0.75120684E+03</rscale>
<asrwt>0</asrwt>
<pdfrwt beam="1">  1        2 0.17154979E+00 0.75120684E+03</pdfrwt>
<pdfrwt beam="2">  1       -2 0.19464451E-01 0.75120684E+03</pdfrwt>
<totfact> 0.48052230E+02</totfact>
</mgrwt>
</event>
<event>
 6    1  0.2047711E-005  0.1331541E+04  0.7818608E-02  0.9004920E-01
         -2   -1    0    0    0  501 -0.00000000000E+00  0.00000000000E+00  0.18014788042E+03  0.18014788042E+03  0.00000000000E+00 0.  1.
          2   -1    0    0  501    0  0.00000000000E+00 -0.00000000000E+00 -0.24604811034E+04  0.24604811034E+04  0.00000000000E+00 0. -1.
         23    2    1    2    0    0 -0.47305283689E+03  0.25117555525E+03 -0.37238594982E+03  0.65892997963E+03  0.93001485921E+02 0.  0.
         11    1    3    3    0    0 -0.15290292099E+03  0.80477865634E+02 -0.69263672993E+02  0.18615436203E+03  0.00000000000E+00 0.  1.
        -11    1    3    3    0    0 -0.32014991590E+03  0.17069768962E+03 -0.30312227683E+03  0.47277561761E+03  0.00000000000E+00 0. -1.
         22    1    1    2    0    0  0.47305283689E+03 -0.25117555525E+03 -0.19079472732E+04  0.19816990042E+04  0.00000000000E+00 0. -1.
<mgrwt>
<rscale>  0 0.13315411E+04</rscale>
<asrwt>0</asrwt>
<pdfrwt beam="1">  1        2 0.37853555E+00 0.13315411E+04</pdfrwt>
<pdfrwt beam="2">  1       -2 0.27715059E-01 0.13315411E+04</pdfrwt>
<totfact> 0.42803951E+01</totfact>
</mgrwt>
</event>
<event>
 6    1  0.2047711E-005  0.1951388E+04  0.7818608E-02  0.8629692E-01
         -2   -1    0    0    0  501 -0.00000000000E+00  0.00000000000E+00  0.40563322998E+03  0.40563322998E+03  0.00000000000E+00 0.  1.
          2   -1    0    0  501    0  0.00000000000E+00 -0.00000000000E+00 -0.23468951447E+04  0.23468951447E+04  0.00000000000E+00 0. -1.
         23    2    1    2    0    0 -0.48564774204E+03  0.43359240582E+03  0.48434707245E+02  0.65902682197E+03  0.90079561918E+02 0.  0.
         13    1    3    3    0    0 -0.22439665719E+03  0.16990754315E+03  0.59445569993E+02  0.28767378881E+03  0.00000000000E+00 0.  1.
        -13    1    3    3    0    0 -0.26125108485E+03  0.26368486267E+03 -0.11010862748E+02  0.37135303316E+03  0.00000000000E+00 0. -1.
         22    1    1    2    0    0  0.48564774204E+03 -0.43359240582E+03 -0.19896966220E+04  0.20935015528E+04  0.00000000000E+00 0. -1.
<mgrwt>
<rscale>  0 0.19513879E+04</rscale>
<asrwt>0</asrwt>
<pdfrwt beam="1">  1        2 0.36106080E+00 0.19513879E+04</pdfrwt>
<pdfrwt beam="2">  1       -2 0.62405111E-01 0.19513879E+04</pdfrwt>
<totfact> 0.94765600E+00</totfact>
</mgrwt>
</event>
<event>
 6    1  0.2047711E-005  0.3865133E+04  0.7818608E-02  0.8032320E-01
          2   -1    0    0  501    0  0.00000000000E+00  0.00000000000E+00  0.30593574868E+04  0.30593574868E+04  0.00000000000E+00 0.  1.
         -2   -1    0    0    0  501 -0.00000000000E+00 -0.00000000000E+00 -0.12207836364E+04  0.12207836364E+04  0.00000000000E+00 0. -1.
         23    2    1    2    0    0 -0.10208125240E+04  0.49353354037E+03  0.26513501597E+04  0.28850644609E+04  0.91135664287E+02 0.  0.
         11    1    3    3    0    0 -0.56998791830E+03  0.23601880590E+03  0.15108523345E+04  0.16319515558E+04  0.00000000000E+00 0.  1.
        -11    1    3    3    0    0 -0.45082460572E+03  0.25751473447E+03  0.11404978252E+04  0.12531129051E+04  0.00000000000E+00 0. -1.
         22    1    1    2    0    0  0.10208125240E+04 -0.49353354037E+03 -0.81277630936E+03  0.13950766623E+04  0.00000000000E+00 0. -1.
<mgrwt>
<rscale>  0 0.38651331E+04</rscale>
<asrwt>0</asrwt>
<pdfrwt beam="1">  1        2 0.47067038E+00 0.38651331E+04</pdfrwt>
<pdfrwt beam="2">  1       -2 0.18781287E+00 0.38651331E+04</pdfrwt>
<totfact> 0.20412213E-01</totfact>
</mgrwt>
</event>
<event>
 6    1  0.2047711E-005  0.1293893E+04  0.7818608E-02  0.9034422E-01
          2   -1    0    0  501    0  0.00000000000E+00  0.00000000000E+00  0.13488319265E+04  0.13488319265E+04  0.00000000000E+00 0.  1.
         -2   -1    0    0    0  501 -0.00000000000E+00 -0.00000000000E+00 -0.31029798017E+03  0.31029798017E+03  0.00000000000E+00 0. -1.
         23    2    1    2    0    0  0.32738240058E+03 -0.26940653550E+02  0.12316646050E+04  0.12780728423E+04  0.92560553043E+02 0.  0.
         11    1    3    3    0    0  0.13590195620E+03 -0.56541004346E+02  0.50400963706E+03  0.52506374957E+03  0.00000000000E+00 0. -1.
        -11    1    3    3    0    0  0.19148044438E+03  0.29600350796E+02  0.72765496794E+03  0.75300909272E+03  0.00000000000E+00 0.  1.
         22    1    1    2    0    0 -0.32738240058E+03  0.26940653550E+02 -0.19313065864E+03  0.38105706440E+03  0.00000000000E+00 0. -1.
<mgrwt>
<rscale>  0 0.12938931E+04</rscale>
<asrwt>0</asrwt>
<pdfrwt beam="1">  1        2 0.20751260E+00 0.12938931E+04</pdfrwt>
<pdfrwt beam="2">  1       -2 0.47738151E-01 0.12938931E+04</pdfrwt>
<totfact> 0.63118179E+01</totfact>
</mgrwt>
</event>
<event>
 6    1  0.2047711E-005  0.1267540E+04  0.7818608E-02  0.9055710E-01
          2   -1    0    0  501    0  0.00000000000E+00  0.00000000000E+00  0.46242984181E+03  0.46242984181E+03  0.00000000000E+00 0. -1.
         -2   -1    0    0    0  501 -0.00000000000E+00 -0.00000000000E+00 -0.86859476719E+03  0.86859476719E+03  0.00000000000E+00 0.  1.
         23    2    1    2    0    0 -0.57451150644E+03 -0.71138860081E+02 -0.46657031088E+03  0.74898249794E+03  0.90347765825E+02 0.  0.
         11    1    3    3    0    0 -0.66802694036E+02 -0.36838264068E+02 -0.74081325550E+02  0.10633767171E+03  0.00000000000E+00 0. -1.
        -11    1    3    3    0    0 -0.50770881240E+03 -0.34300596013E+02 -0.39248898533E+03  0.64264482623E+03  0.00000000000E+00 0.  1.
         22    1    1    2    0    0  0.57451150644E+03  0.71138860081E+02  0.60405385493E+02  0.58204211105E+03  0.00000000000E+00 0. -1.
<mgrwt>
<rscale>  0 0.12675396E+04</rscale>
<asrwt>0</asrwt>
<pdfrwt beam="1">  1        2 0.71143053E-01 0.12675396E+04</pdfrwt>
<pdfrwt beam="2">  1       -2 0.13362996E+00 0.12675396E+04</pdfrwt>
<totfact> 0.26795075E+01</totfact>
</mgrwt>
</event>
<event>
 6    1  0.2047711E-005  0.3852298E+04  0.7818608E-02  0.8035024E-01
         -2   -1    0    0    0  501 -0.00000000000E+00  0.00000000000E+00  0.79776436534E+03  0.79776436534E+03  0.00000000000E+00 0.  1.
          2   -1    0    0  501    0  0.00000000000E+00 -0.00000000000E+00 -0.46505592363E+04  0.46505592363E+04  0.00000000000E+00 0. -1.
         23    2    1    2    0    0 -0.87920342438E+03  0.41261719548E+02 -0.43489861250E+04  0.44379241996E+04  0.82399605710E+02 0.  0.
         11    1    3    3    0    0 -0.34957372529E+03  0.17864458069E+02 -0.19357319631E+04  0.19671245922E+04  0.00000000000E+00 0. -1.
        -11    1    3    3    0    0 -0.52962969909E+03  0.23397261479E+02 -0.24132541620E+04  0.24707996075E+04  0.00000000000E+00 0.  1.
         22    1    1    2    0    0  0.87920342438E+03 -0.41261719548E+02  0.49619125407E+03  0.10103994020E+04  0.00000000000E+00 0.  1.
<mgrwt>
<rscale>  0 0.38522982E+04</rscale>
<asrwt>0</asrwt>
<pdfrwt beam="1">  1        2 0.71547065E+00 0.38522982E+04</pdfrwt>
<pdfrwt beam="2">  1       -2 0.12273298E+00 0.38522982E+04</pdfrwt>
<totfact> 0.34442795E-02</totfact>
</mgrwt>
</event>
<event>
 6    1  0.2047711E-005  0.1683182E+04  0.7818608E-02  0.8771015E-01
          2   -1    0    0  501    0  0.00000000000E+00  0.00000000000E+00  0.88391092576E+03  0.88391092576E+03  0.00000000000E+00 0. -1.
         -2   -1    0    0    0  501 -0.00000000000E+00 -0.00000000000E+00 -0.80129740646E+03  0.80129740646E+03  0.00000000000E+00 0.  1.
         23    2    1    2    0    0  0.71634636105E+03  0.21885622242E+01  0.47880213661E+03  0.86659834004E+03  0.92651487569E+02 0.  0.
         13    1    3    3    0    0  0.30814906454E+03 -0.19196082531E+02  0.25593137848E+03  0.40103018098E+03  0.00000000000E+00 0. -1.
        -13    1    3    3    0    0  0.40819729651E+03  0.21384644755E+02  0.22287075813E+03  0.46556815907E+03  0.00000000000E+00 0.  1.
         22    1    1    2    0    0 -0.71634636105E+03 -0.21885622242E+01 -0.39618861732E+03  0.81860999217E+03  0.00000000000E+00 0.  1.
<mgrwt>
<rscale>  0 0.16831821E+04</rscale>
<asrwt>0</asrwt>
<pdfrwt beam="1">  1        2 0.13598630E+00 0.16831821E+04</pdfrwt>
<pdfrwt beam="2">  1       -2 0.12327652E+00 0.16831821E+04</pdfrwt>
<totfact> 0.14224000E+01</totfact>
</mgrwt>
</event>
<event>
 6    1  0.2047711E-005  0.1451807E+04  0.7818608E-02  0.8917149E-01
          2   -1    0    0  501    0  0.00000000000E+00  0.00000000000E+00  0.68744136518E+03  0.68744136518E+03  0.00000000000E+00 0. -1.
         -2   -1    0    0    0  501 -0.00000000000E+00 -0.00000000000E+00 -0.76651723783E+03  0.76651723783E+03  0.00000000000E+00 0.  1.
         23    2    1    2    0    0 -0.37041917292E+03 -0.34555293798E+03 -0.55617054805E+03  0.75808754750E+03  0.93562035793E+02 0.  0.
         13    1    3    3    0    0 -0.20758404575E+03 -0.19111806521E+03 -0.24038332497E+03  0.37067693996E+03  0.00000000000E+00 0.  1.
        -13    1    3    3    0    0 -0.16283512717E+03 -0.15443487277E+03 -0.31578722308E+03  0.38741060753E+03  0.00000000000E+00 0. -1.
         22    1    1    2    0    0  0.37041917292E+03  0.34555293798E+03  0.47709467539E+03  0.69587105551E+03  0.00000000000E+00 0. -1.
<mgrwt>
<rscale>  0 0.14518067E+04</rscale>
<asrwt>0</asrwt>
<pdfrwt beam="1">  1        2 0.10576021E+00 0.14518067E+04</pdfrwt>
<pdfrwt beam="2">  1       -2 0.11792573E+00 0.14518067E+04</pdfrwt>
<totfact> 0.22535868E+01</totfact>
</mgrwt>
</event>
<event>
 6    1  0.2047711E-005  0.2770718E+04  0.7818608E-02  0.8312417E-01
          2   -1    0    0  501    0  0.00000000000E+00  0.00000000000E+00  0.10311615897E+04  0.10311615897E+04  0.00000000000E+00 0. -1.
         -2   -1    0    0    0  501 -0.00000000000E+00 -0.00000000000E+00 -0.18612215867E+04  0.18612215867E+04  0.00000000000E+00 0.  1.
         23    2    1    2    0    0 -0.63434379068E+02  0.58161586967E+03  0.89376462570E+03  0.10719787515E+04  0.89567277738E+02 0.  0.
         13    1    3    3    0    0 -0.58991608343E+02  0.28030698682E+03  0.49861361445E+03  0.57503700162E+03  0.00000000000E+00 0.  1.
        -13    1    3    3    0    0 -0.44427707245E+01  0.30130888285E+03  0.39515101125E+03  0.49694174989E+03  0.00000000000E+00 0. -1.
         22    1    1    2    0    0  0.63434379068E+02 -0.58161586967E+03 -0.17238246227E+04  0.18204044249E+04  0.00000000000E+00 0.  1.
<mgrwt>
<rscale>  0 0.27707185E+04</rscale>
<asrwt>0</asrwt>
<pdfrwt beam="1">  1        2 0.15864025E+00 0.27707185E+04</pdfrwt>
<pdfrwt beam="2">  1       -2 0.28634178E+00 0.27707185E+04</pdfrwt>
<totfact> 0.80838795E-01</totfact>
</mgrwt>
</event>
<event>
 6    1  0.2047711E-005  0.3550035E+04  0.7818608E-02  0.8102034E-01
          2   -1    0    0  501    0  0.00000000000E+00  0.00000000000E+00  0.21212777276E+04  0.21212777276E+04  0.00000000000E+00 0. -1.
         -2   -1    0    0    0  501 -0.00000000000E+00 -0.00000000000E+00 -0.14852775984E+04  0.14852775984E+04  0.00000000000E+00 0.  1.
         23    2    1    2    0    0  0.51614597404E+03 -0.22517542476E+03  0.20270506095E+04  0.21058448019E+04  0.92398687877E+02 0.  0.
         11    1    3    3    0    0  0.43035622738E+03 -0.17563017930E+03  0.15312541483E+04  0.16002473900E+04  0.00000000000E+00 0. -1.
        -11    1    3    3    0    0  0.85789746658E+02 -0.49545245454E+02  0.49579646117E+03  0.50559741187E+03  0.00000000000E+00 0.  1.
         22    1    1    2    0    0 -0.51614597404E+03  0.22517542476E+03 -0.13910504803E+04  0.15007105241E+04  0.00000000000E+00 0.  1.
<mgrwt>
<rscale>  0 0.35500345E+04</rscale>
<asrwt>0</asrwt>
<pdfrwt beam="1">  1        2 0.32635042E+00 0.35500345E+04</pdfrwt>
<pdfrwt beam="2">  1       -2 0.22850425E+00 0.35500345E+04</pdfrwt>
<totfact> 0.40876479E-01</totfact>
</mgrwt>
</event>
<event>
 6    1  0.2079958E-005  0.3286173E+04  0.7818608E-02  0.8166423E-01
         -2   -1    0    0    0  501 -0.00000000000E+00  0.00000000000E+00  0.20143777839E+04  0.20143777839E+04  0.00000000000E+00 0.  1.
          2   -1    0    0  501    0  0.00000000000E+00 -0.00000000000E+00 -0.13402318244E+04  0.13402318244E+04  0.00000000000E+00 0. -1.
         23    2    1    2    0    0 -0.79279060947E+03  0.37696264779E+03  0.17536388041E+04  0.19632352554E+04  0.91792291114E+02 0.  0.
         13    1    3    3    0    0 -0.43286145755E+03  0.23168998524E+03  0.89150159584E+03  0.10177545805E+04  0.00000000000E+00 0.  1.
        -13    1    3    3    0    0 -0.35992915192E+03  0.14527266254E+03  0.86213720825E+03  0.94548067497E+03  0.00000000000E+00 0. -1.
         22    1    1    2    0    0  0.79279060947E+03 -0.37696264779E+03 -0.10794928446E+04  0.13913743528E+04  0.00000000000E+00 0. -1.
<mgrwt>
<rscale>  0 0.32861730E+04</rscale>
<asrwt>0</asrwt>
<pdfrwt beam="1">  1        2 0.20618951E+00 0.32861730E+04</pdfrwt>
<pdfrwt beam="2">  1       -2 0.30990427E+00 0.32861730E+04</pdfrwt>
<totfact> 0.36186875E-01</totfact>
</mgrwt>
</event>
<event>
 6    1  0.2047711E-005  0.8949202E+03  0.7818608E-02  0.9431954E-01
          2   -1    0    0  501    0  0.00000000000E+00  0.00000000000E+00  0.53702515013E+03  0.53702515013E+03  0.00000000000E+00 0. -1.
         -2   -1    0    0    0  501 -0.00000000000E+00 -0.00000000000E+00 -0.37283271446E+03  0.37283271446E+03  0.00000000000E+00 0.  1.
         23    2    1    2    0    0 -0.27331332835E+03  0.72068200053E+02 -0.26221857281E+03  0.39827175350E+03  0.99838914252E+02 0.  0.
         13    1    3    3    0    0 -0.43980167840E+02  0.66421851527E+01 -0.10113376792E+03  0.11048263574E+03  0.00000000000E+00 0. -1.
        -13    1    3    3    0    0 -0.22933316051E+03  0.65426014900E+02 -0.16108480489E+03  0.28778911776E+03  0.00000000000E+00 0.  1.
         22    1    1    2    0    0  0.27331332835E+03 -0.72068200053E+02  0.42641100848E+03  0.51158611110E+03  0.00000000000E+00 0. -1.
<mgrwt>
<rscale>  0 0.89492021E+03</rscale>
<asrwt>0</asrwt>
<pdfrwt beam="1">  1        2 0.82619254E-01 0.89492021E+03</pdfrwt>
<pdfrwt beam="2">  1       -2 0.57358879E-01 0.89492021E+03</pdfrwt>
<totfact> 0.16190984E+02</totfact>
</mgrwt>
</event>
<event>
 6    1  0.2047711E-005  0.1711833E+04  0.7818608E-02  0.8754644E-01
         -2   -1    0    0    0  501 -0.00000000000E+00  0.00000000000E+00  0.29969627639E+03  0.29969627639E+03  0.00000000000E+00 0.  1.
          2   -1    0    0  501    0  0.00000000000E+00 -0.00000000000E+00 -0.24444512633E+04  0.24444512633E+04  0.00000000000E+00 0. -1.
         23    2    1    2    0    0 -0.24094519781E+03  0.67064642321E+03 -0.18284751926E+04  0.19644975403E+04  0.90043558982E+02 0.  0.
         11    1    3    3    0    0 -0.13368645614E+03  0.31045957029E+03 -0.97537710291E+03  0.10322876083E+04  0.00000000000E+00 0.  1.
        -11    1    3    3    0    0 -0.10725874167E+03  0.36018685292E+03 -0.85309808967E+03  0.93220993198E+03  0.00000000000E+00 0. -1.
         22    1    1    2    0    0  0.24094519781E+03 -0.67064642321E+03 -0.31627979433E+03  0.77964999944E+03  0.00000000000E+00 0.  1.
<mgrwt>
<rscale>  0 0.17118329E+04</rscale>
<asrwt>0</asrwt>
<pdfrwt beam="1">  1        2 0.37606943E+00 0.17118329E+04</pdfrwt>
<pdfrwt beam="2">  1       -2 0.46107118E-01 0.17118329E+04</pdfrwt>
<totfact> 0.15914589E+01</totfact>
</mgrwt>
</event>
<event>
 6    1  0.2047711E-005  0.3575370E+04  0.7818608E-02  0.8096157E-01
         -2   -1    0    0    0  501 -0.00000000000E+00  0.00000000000E+00  0.59413955619E+03  0.59413955619E+03  0.00000000000E+00 0.  1.
          2   -1    0    0  501    0  0.00000000000E+00 -0.00000000000E+00 -0.53789001953E+04  0.53789001953E+04  0.00000000000E+00 0. -1.
         23    2    1    2    0    0  0.13700849364E+03 -0.17537644127E+04 -0.18736382018E+04  0.25717025457E+04  0.93128564345E+02 0.  0.
         13    1    3    3    0    0  0.42946722879E+01 -0.40973225477E+03 -0.39592523218E+03  0.56978570909E+03  0.00000000000E+00 0. -1.
        -13    1    3    3    0    0  0.13271382135E+03 -0.13440321580E+04 -0.14777129696E+04  0.20019168366E+04  0.00000000000E+00 0.  1.
         22    1    1    2    0    0 -0.13700849364E+03  0.17537644127E+04 -0.29111224373E+04  0.34013372058E+04  0.00000000000E+00 0. -1.
<mgrwt>
<rscale>  0 0.35753698E+04</rscale>
<asrwt>0</asrwt>
<pdfrwt beam="1">  1        2 0.82752316E+00 0.35753698E+04</pdfrwt>
<pdfrwt beam="2">  1       -2 0.91406079E-01 0.35753698E+04</pdfrwt>
<totfact> 0.80242297E-03</totfact>
</mgrwt>
</event>
<event>
 6    1  0.2047711E-005  0.5145245E+04  0.7818608E-02  0.7806484E-01
          2   -1    0    0  501    0  0.00000000000E+00  0.00000000000E+00  0.23513702138E+04  0.23513702138E+04  0.00000000000E+00 0. -1.
         -2   -1    0    0    0  501 -0.00000000000E+00 -0.00000000000E+00 -0.28146940749E+04  0.28146940749E+04  0.00000000000E+00 0.  1.
         23    2    1    2    0    0  0.22542478772E+04  0.51062871402E+03 -0.13644221902E+04  0.26852673655E+04  0.81472300207E+02 0.  0.
         13    1    3    3    0    0  0.11559036056E+04  0.22305416936E+03 -0.67700902702E+03  0.13580160274E+04  0.00000000000E+00 0. -1.
        -13    1    3    3    0    0  0.10983442716E+04  0.28757454466E+03 -0.68741316314E+03  0.13272513381E+04  0.00000000000E+00 0.  1.
         22    1    1    2    0    0 -0.22542478772E+04 -0.51062871402E+03  0.90109832905E+03  0.24807969232E+04  0.00000000000E+00 0. -1.
<mgrwt>
<rscale>  0 0.51452455E+04</rscale>
<asrwt>0</asrwt>
<pdfrwt beam="1">  1        2 0.36174927E+00 0.51452455E+04</pdfrwt>
<pdfrwt beam="2">  1       -2 0.43302986E+00 0.51452455E+04</pdfrwt>
<totfact> 0.13743231E-02</totfact>
</mgrwt>
</event>
<event>
 6    1  0.2047711E-005  0.3345057E+04  0.7818608E-02  0.8151524E-01
          2   -1    0    0  501    0  0.00000000000E+00  0.00000000000E+00  0.38376423397E+04  0.38376423397E+04  0.00000000000E+00 0. -1.
         -2   -1    0    0    0  501 -0.00000000000E+00 -0.00000000000E+00 -0.72892451177E+03  0.72892451177E+03  0.00000000000E+00 0.  1.
         23    2    1    2    0    0 -0.32143985169E+03 -0.11393858816E+03  0.37890881334E+04  0.38055088165E+04  0.91667275679E+02 0.  0.
         13    1    3    3    0    0 -0.25744908097E+03 -0.97442790890E+02  0.25866311457E+04  0.26012373615E+04  0.00000000000E+00 0. -1.
        -13    1    3    3    0    0 -0.63990770719E+02 -0.16495797272E+02  0.12024569877E+04  0.12042714550E+04  0.00000000000E+00 0.  1.
         22    1    1    2    0    0  0.32143985169E+03  0.11393858816E+03 -0.68037030546E+03  0.76105803502E+03  0.00000000000E+00 0.  1.
<mgrwt>
<rscale>  0 0.33450570E+04</rscale>
<asrwt>0</asrwt>
<pdfrwt beam="1">  1        2 0.59040650E+00 0.33450570E+04</pdfrwt>
<pdfrwt beam="2">  1       -2 0.11214224E+00 0.33450570E+04</pdfrwt>
<totfact> 0.23930963E-01</totfact>
</mgrwt>
</event>
<event>
 6    1  0.2047711E-005  0.4932757E+04  0.7818608E-02  0.7838965E-01
          1   -1    0    0  501    0  0.00000000000E+00  0.00000000000E+00  0.27224165023E+04  0.27224165023E+04  0.00000000000E+00 0. -1.
         -1   -1    0    0    0  501 -0.00000000000E+00 -0.00000000000E+00 -0.22344201045E+04  0.22344201045E+04  0.00000000000E+00 0.  1.
         23    2    1    2    0    0 -0.19463794001E+04  0.97855717399E+03  0.14042242802E+04  0.25934829633E+04  0.91329840757E+02 0.  0.
         11    1    3    3    0    0 -0.44084493411E+03  0.18074364982E+03  0.29571516214E+03  0.56076731360E+03  0.00000000000E+00 0. -1.
        -11    1    3    3    0    0 -0.15055344660E+04  0.79781352418E+03  0.11085091181E+04  0.20327156497E+04  0.00000000000E+00 0.  1.
         22    1    1    2    0    0  0.19463794001E+04 -0.97855717399E+03 -0.91622788235E+03  0.23633536435E+04  0.00000000000E+00 0.  1.
<mgrwt>
<rscale>  0 0.49327567E+04</rscale>
<asrwt>0</asrwt>
<pdfrwt beam="1">  1        1 0.41883331E+00 0.49327567E+04</pdfrwt>
<pdfrwt beam="2">  1       -1 0.34375694E+00 0.49327567E+04</pdfrwt>
<totfact> 0.11737389E-02</totfact>
</mgrwt>
</event>
<event>
 6    1  0.2047711E-005  0.5762617E+03  0.7818608E-02  0.9955917E-01
         -2   -1    0    0    0  501 -0.00000000000E+00  0.00000000000E+00  0.96130726286E+02  0.96130726286E+02  0.00000000000E+00 0. -1.
          2   -1    0    0  501    0  0.00000000000E+00 -0.00000000000E+00 -0.86360923456E+03  0.86360923456E+03  0.00000000000E+00 0.  1.
         23    2    1    2    0    0 -0.15765233404E+03 -0.16673220300E+03 -0.12547079121E+03  0.27795715473E+03  0.94145496301E+02 0.  0.
         13    1    3    3    0    0 -0.62570420481E+02 -0.10884741505E+03 -0.25020530610E+02  0.12801892139E+03  0.00000000000E+00 0. -1.
        -13    1    3    3    0    0 -0.95081913560E+02 -0.57884787950E+02 -0.10045026060E+03  0.14993823334E+03  0.00000000000E+00 0.  1.
         22    1    1    2    0    0  0.15765233404E+03  0.16673220300E+03 -0.64200771706E+03  0.68178280611E+03  0.00000000000E+00 0. -1.
<mgrwt>
<rscale>  0 0.57626169E+03</rscale>
<asrwt>0</asrwt>
<pdfrwt beam="1">  1        2 0.13286295E+00 0.57626169E+03</pdfrwt>
<pdfrwt beam="2">  1       -2 0.14789343E-01 0.57626169E+03</pdfrwt>
<totfact> 0.11207863E+03</totfact>
</mgrwt>
</event>
<event>
 6    1  0.2047711E-005  0.3563381E+04  0.7818608E-02  0.8098932E-01
         -2   -1    0    0    0  501 -0.00000000000E+00  0.00000000000E+00  0.17634569711E+04  0.17634569711E+04  0.00000000000E+00 0.  1.
          2   -1    0    0  501    0  0.00000000000E+00 -0.00000000000E+00 -0.18001128513E+04  0.18001128513E+04  0.00000000000E+00 0. -1.
         23    2    1    2    0    0  0.26709332363E+02  0.68289522049E+03  0.16259695378E+04  0.17659651521E+04  0.88298979962E+02 0.  0.
         13    1    3    3    0    0 -0.16382191994E+02  0.35702479686E+03  0.76459090044E+03  0.84399900878E+03  0.00000000000E+00 0.  1.
        -13    1    3    3    0    0  0.43091524357E+02  0.32587042363E+03  0.86137863735E+03  0.92196614328E+03  0.00000000000E+00 0. -1.
         22    1    1    2    0    0 -0.26709332363E+02 -0.68289522049E+03 -0.16626254180E+04  0.17976046704E+04  0.00000000000E+00 0. -1.
<mgrwt>
<rscale>  0 0.35633813E+04</rscale>
<asrwt>0</asrwt>
<pdfrwt beam="1">  1        2 0.27694044E+00 0.35633813E+04</pdfrwt>
<pdfrwt beam="2">  1       -2 0.27130107E+00 0.35633813E+04</pdfrwt>
<totfact> 0.33563749E-01</totfact>
</mgrwt>
</event>
<event>
 6    1  0.2047711E-005  0.4400346E+04  0.7818608E-02  0.7928319E-01
          2   -1    0    0  501    0  0.00000000000E+00  0.00000000000E+00  0.24031766361E+04  0.24031766361E+04  0.00000000000E+00 0. -1.
         -2   -1    0    0    0  501 -0.00000000000E+00 -0.00000000000E+00 -0.20143176867E+04  0.20143176867E+04  0.00000000000E+00 0.  1.
         23    2    1    2    0    0  0.24030151986E+03  0.20450907638E+04  0.97036953502E+03  0.22777991076E+04  0.81306133069E+02 0.  0.
         11    1    3    3    0    0  0.87515672226E+02  0.86928925840E+03  0.45318909793E+03  0.98422719234E+03  0.00000000000E+00 0. -1.
        -11    1    3    3    0    0  0.15278584763E+03  0.11758015054E+04  0.51718043708E+03  0.12935719153E+04  0.00000000000E+00 0.  1.
         22    1    1    2    0    0 -0.24030151986E+03 -0.20450907638E+04 -0.58151058554E+03  0.21396952152E+04  0.00000000000E+00 0.  1.
<mgrwt>
<rscale>  0 0.44003460E+04</rscale>
<asrwt>0</asrwt>
<pdfrwt beam="1">  1        2 0.36971948E+00 0.44003460E+04</pdfrwt>
<pdfrwt beam="2">  1       -2 0.30989503E+00 0.44003460E+04</pdfrwt>
<totfact> 0.83569983E-02</totfact>
</mgrwt>
</event>
<event>
 6    1  0.2047711E-005  0.2771924E+04  0.7818608E-02  0.8312038E-01
         -2   -1    0    0    0  501 -0.00000000000E+00  0.00000000000E+00  0.85681931557E+03  0.85681931557E+03  0.00000000000E+00 0. -1.
          2   -1    0    0  501    0  0.00000000000E+00 -0.00000000000E+00 -0.22418850128E+04  0.22418850128E+04  0.00000000000E+00 0.  1.
         23    2    1    2    0    0  0.10482642979E+04  0.90258918700E+03 -0.75685381335E+03  0.15794362645E+04  0.90917215127E+02 0.  0.
         13    1    3    3    0    0  0.29796785949E+03  0.29133371222E+03 -0.19136741824E+03  0.45856478924E+03  0.00000000000E+00 0. -1.
        -13    1    3    3    0    0  0.75029643845E+03  0.61125547478E+03 -0.56548639511E+03  0.11208714753E+04  0.00000000000E+00 0.  1.
         22    1    1    2    0    0 -0.10482642979E+04 -0.90258918700E+03 -0.62821188385E+03  0.15192680639E+04  0.00000000000E+00 0. -1.
<mgrwt>
<rscale>  0 0.27719238E+04</rscale>
<asrwt>0</asrwt>
<pdfrwt beam="1">  1        2 0.34490538E+00 0.27719238E+04</pdfrwt>
<pdfrwt beam="2">  1       -2 0.13181836E+00 0.27719238E+04</pdfrwt>
<totfact> 0.17880829E+00</totfact>
</mgrwt>
</event>
<event>
 6    1  0.2047711E-005  0.1248179E+04  0.7818608E-02  0.9071701E-01
          2   -1    0    0  501    0  0.00000000000E+00  0.00000000000E+00  0.98079349965E+03  0.98079349965E+03  0.00000000000E+00 0. -1.
         -2   -1    0    0    0  501 -0.00000000000E+00 -0.00000000000E+00 -0.39711467238E+03  0.39711467238E+03  0.00000000000E+00 0.  1.
         23    2    1    2    0    0  0.39010650852E+03  0.44567804344E+03  0.88542492054E+02  0.60591594614E+03  0.92099698696E+02 0.  0.
         13    1    3    3    0    0  0.30772347264E+03  0.39556167401E+03  0.91478469597E+02  0.50944193384E+03  0.00000000000E+00 0.  1.
        -13    1    3    3    0    0  0.82383035875E+02  0.50116369431E+02 -0.29359775430E+01  0.96474012299E+02  0.00000000000E+00 0. -1.
         22    1    1    2    0    0 -0.39010650852E+03 -0.44567804344E+03  0.49513633521E+03  0.77199222589E+03  0.00000000000E+00 0. -1.
<mgrwt>
<rscale>  0 0.12481787E+04</rscale>
<asrwt>0</asrwt>
<pdfrwt beam="1">  1        2 0.15089131E+00 0.12481787E+04</pdfrwt>
<pdfrwt beam="2">  1       -2 0.61094565E-01 0.12481787E+04</pdfrwt>
<totfact> 0.63555240E+01</totfact>
</mgrwt>
</event>
<event>
 6    1  0.2047711E-005  0.3322507E+04  0.7818608E-02  0.8157192E-01
         -2   -1    0    0    0  501 -0.00000000000E+00  0.00000000000E+00  0.10839376338E+04  0.10839376338E+04  0.00000000000E+00 0.  1.
          2   -1    0    0  501    0  0.00000000000E+00 -0.00000000000E+00 -0.25460536593E+04  0.25460536593E+04  0.00000000000E+00 0. -1.
         23    2    1    2    0    0 -0.14304139023E+04  0.32001660954E+03 -0.15827763174E+04  0.21592590033E+04  0.93402410927E+02 0.  0.
         11    1    3    3    0    0 -0.96255402527E+03  0.20569125842E+03 -0.11247139773E+04  0.14945904711E+04  0.00000000000E+00 0. -1.
        -11    1    3    3    0    0 -0.46785987702E+03  0.11432535111E+03 -0.45806234006E+03  0.66466853229E+03  0.00000000000E+00 0.  1.
         22    1    1    2    0    0  0.14304139023E+04 -0.32001660954E+03  0.12066029190E+03  0.14707322898E+04  0.00000000000E+00 0.  1.
<mgrwt>
<rscale>  0 0.33225071E+04</rscale>
<asrwt>0</asrwt>
<pdfrwt beam="1">  1        2 0.39170056E+00 0.33225071E+04</pdfrwt>
<pdfrwt beam="2">  1       -2 0.16675964E+00 0.33225071E+04</pdfrwt>
<totfact> 0.61333514E-01</totfact>
</mgrwt>
</event>
<event>
 6    1  0.2047711E-005  0.2322165E+04  0.7818608E-02  0.8469233E-01
         -2   -1    0    0    0  501 -0.00000000000E+00  0.00000000000E+00  0.60049990341E+03  0.60049990341E+03  0.00000000000E+00 0.  1.
          2   -1    0    0  501    0  0.00000000000E+00 -0.00000000000E+00 -0.22449837617E+04  0.22449837617E+04  0.00000000000E+00 0. -1.
         23    2    1    2    0    0  0.65817953431E+03  0.58392827995E+03 -0.17484806649E+04  0.19594882524E+04  0.90758143004E+02 0.  0.
         11    1    3    3    0    0  0.31250449469E+03  0.22691436475E+03 -0.81962819260E+03  0.90605715175E+03  0.00000000000E+00 0.  1.
        -11    1    3    3    0    0  0.34567503962E+03  0.35701391520E+03 -0.92885247226E+03  0.10534311007E+04  0.00000000000E+00 0. -1.
         22    1    1    2    0    0 -0.65817953431E+03 -0.58392827995E+03  0.10399680657E+03  0.88599541268E+03  0.00000000000E+00 0.  1.
<mgrwt>
<rscale>  0 0.23221650E+04</rscale>
<asrwt>0</asrwt>
<pdfrwt beam="1">  1        2 0.34538212E+00 0.23221650E+04</pdfrwt>
<pdfrwt beam="2">  1       -2 0.92384599E-01 0.23221650E+04</pdfrwt>
<totfact> 0.43839545E+00</totfact>
</mgrwt>
</event>
<event>
 6    1  0.2047711E-005  0.3201685E+04  0.7818608E-02  0.8188372E-01
         -2   -1    0    0    0  501 -0.00000000000E+00  0.00000000000E+00  0.19196103636E+04  0.19196103636E+04  0.00000000000E+00 0.  1.
          2   -1    0    0  501    0  0.00000000000E+00 -0.00000000000E+00 -0.13350085039E+04  0.13350085039E+04  0.00000000000E+00 0. -1.
         23    2    1    2    0    0 -0.37995215713E+03  0.82861160924E+03 -0.10435724702E+04  0.13886305265E+04  0.91051621936E+02 0.  0.
         11    1    3    3    0    0 -0.18608442010E+03  0.48990954294E+03 -0.64070847187E+03  0.82773553602E+03  0.00000000000E+00 0.  1.
        -11    1    3    3    0    0 -0.19386773704E+03  0.33870206630E+03 -0.40286399831E+03  0.56089499046E+03  0.00000000000E+00 0. -1.
         22    1    1    2    0    0  0.37995215713E+03 -0.82861160924E+03  0.16281743298E+04  0.18659883411E+04  0.00000000000E+00 0.  1.
<mgrwt>
<rscale>  0 0.32016847E+04</rscale>
<asrwt>0</asrwt>
<pdfrwt beam="1">  1        2 0.20538592E+00 0.32016847E+04</pdfrwt>
<pdfrwt beam="2">  1       -2 0.29532467E+00 0.32016847E+04</pdfrwt>
<totfact> 0.45081353E-01</totfact>
</mgrwt>
</event>
<event>
 6    1  0.2047711E-005  0.2343395E+04  0.7818608E-02  0.8461005E-01
          2   -1    0    0  501    0  0.00000000000E+00  0.00000000000E+00  0.18829565027E+04  0.18829565027E+04  0.00000000000E+00 0. -1.
         -2   -1    0    0    0  501 -0.00000000000E+00 -0.00000000000E+00 -0.72910581252E+03  0.72910581252E+03  0.00000000000E+00 0.  1.
         23    2    1    2    0    0 -0.47529409100E+03 -0.49722064174E+03  0.16324356312E+04  0.17741026590E+04  0.97269292533E+02 0.  0.
         13    1    3    3    0    0 -0.27957247429E+03 -0.34090612634E+03  0.95548909664E+03  0.10523008929E+04  0.00000000000E+00 0.  1.
        -13    1    3    3    0    0 -0.19572161671E+03 -0.15631451540E+03  0.67694653456E+03  0.72180176615E+03  0.00000000000E+00 0. -1.
         22    1    1    2    0    0  0.47529409100E+03  0.49722064174E+03 -0.47858494106E+03  0.83795965614E+03  0.00000000000E+00 0.  1.
<mgrwt>
<rscale>  0 0.23433946E+04</rscale>
<asrwt>0</asrwt>
<pdfrwt beam="1">  1        2 0.28968561E+00 0.23433946E+04</pdfrwt>
<pdfrwt beam="2">  1       -2 0.11217013E+00 0.23433946E+04</pdfrwt>
<totfact> 0.43930766E+00</totfact>
</mgrwt>
</event>
<event>
 6    1  0.2047711E-005  0.6846233E+03  0.7818608E-02  0.9743896E-01
          2   -1    0    0  501    0  0.00000000000E+00  0.00000000000E+00  0.24149626338E+04  0.24149626338E+04  0.00000000000E+00 0.  1.
         -2   -1    0    0    0  501 -0.00000000000E+00 -0.00000000000E+00 -0.48521355311E+02  0.48521355311E+02  0.00000000000E+00 0. -1.
         23    2    1    2    0    0  0.22993969860E+03  0.24278549827E+03  0.10816153103E+04  0.11358564691E+04  0.91984650477E+02 0.  0.
         13    1    3    3    0    0  0.11694330850E+03  0.12253775644E+03  0.69799264867E+03  0.71825133258E+03  0.00000000000E+00 0.  1.
        -13    1    3    3    0    0  0.11299639009E+03  0.12024774184E+03  0.38362266160E+03  0.41760513656E+03  0.00000000000E+00 0. -1.
         22    1    1    2    0    0 -0.22993969860E+03 -0.24278549827E+03  0.12848259682E+04  0.13276275199E+04  0.00000000000E+00 0. -1.
<mgrwt>
<rscale>  0 0.68462328E+03</rscale>
<asrwt>0</asrwt>
<pdfrwt beam="1">  1        2 0.37153262E+00 0.68462328E+03</pdfrwt>
<pdfrwt beam="2">  1       -2 0.74648258E-02 0.68462328E+03</pdfrwt>
<totfact> 0.44594912E+02</totfact>
</mgrwt>
</event>
<event>
 6    1  0.2047711E-005  0.2591042E+04  0.7818608E-02  0.8371250E-01
         -1   -1    0    0    0  501 -0.00000000000E+00  0.00000000000E+00  0.17527256497E+04  0.17527256497E+04  0.00000000000E+00 0.  1.
          1   -1    0    0  501    0  0.00000000000E+00 -0.00000000000E+00 -0.95758006631E+03  0.95758006631E+03  0.00000000000E+00 0. -1.
         23    2    1    2    0    0  0.83463390675E+02 -0.43697991441E+03  0.16688970653E+04  0.17298164324E+04  0.95550468339E+02 0.  0.
         11    1    3    3    0    0  0.93212447161E+02 -0.28742529435E+03  0.12051815875E+04  0.12424832067E+04  0.00000000000E+00 0.  1.
        -11    1    3    3    0    0 -0.97490564863E+01 -0.14955462006E+03  0.46371547786E+03  0.48733322572E+03  0.00000000000E+00 0. -1.
         22    1    1    2    0    0 -0.83463390675E+02  0.43697991441E+03 -0.87375148190E+03  0.98048928363E+03  0.00000000000E+00 0. -1.
<mgrwt>
<rscale>  0 0.25910424E+04</rscale>
<asrwt>0</asrwt>
<pdfrwt beam="1">  1        1 0.14732001E+00 0.25910424E+04</pdfrwt>
<pdfrwt beam="2">  1       -1 0.26965010E+00 0.25910424E+04</pdfrwt>
<totfact> 0.74826594E-01</totfact>
</mgrwt>
</event>
<event>
 6    1  0.2047711E-005  0.1459434E+04  0.7818608E-02  0.8911886E-01
         -2   -1    0    0    0  501 -0.00000000000E+00  0.00000000000E+00  0.72307704714E+03  0.72307704714E+03  0.00000000000E+00 0.  1.
          2   -1    0    0  501    0  0.00000000000E+00 -0.00000000000E+00 -0.73641833331E+03  0.73641833331E+03  0.00000000000E+00 0. -1.
         23    2    1    2    0    0 -0.61933368022E+03 -0.23580196197E+03  0.29177080082E+03  0.72992690639E+03  0.92121201319E+02 0.  0.
         11    1    3    3    0    0 -0.57312064478E+03 -0.24231978728E+03  0.27546055784E+03  0.68048855369E+03  0.00000000000E+00 0. -1.
        -11    1    3    3    0    0 -0.46213035434E+02  0.65178253062E+01  0.16310242984E+02  0.49438352693E+02  0.00000000000E+00 0.  1.
         22    1    1    2    0    0  0.61933368022E+03  0.23580196197E+03 -0.30511208700E+03  0.72956847407E+03  0.00000000000E+00 0. -1.
<mgrwt>
<rscale>  0 0.14594344E+04</rscale>
<asrwt>0</asrwt>
<pdfrwt beam="1">  1        2 0.11329513E+00 0.14594344E+04</pdfrwt>
<pdfrwt beam="2">  1       -2 0.11124262E+00 0.14594344E+04</pdfrwt>
<totfact> 0.23792804E+01</totfact>
</mgrwt>
</event>
<event>
 6    1  0.2047711E-005  0.4050144E+04  0.7818608E-02  0.7994507E-01
          2   -1    0    0  501    0  0.00000000000E+00  0.00000000000E+00  0.39804106506E+04  0.39804106506E+04  0.00000000000E+00 0. -1.
         -2   -1    0    0    0  501 -0.00000000000E+00 -0.00000000000E+00 -0.10302746362E+04  0.10302746362E+04  0.00000000000E+00 0.  1.
         23    2    1    2    0    0  0.19963021683E+04 -0.28524547190E+03  0.16860211154E+04  0.26306487737E+04  0.10515912896E+03 0.  0.
         11    1    3    3    0    0  0.82163351109E+02 -0.98466418113E+01  0.44007445801E+02  0.93725278908E+02  0.00000000000E+00 0. -1.
        -11    1    3    3    0    0  0.19141388172E+04 -0.27539883008E+03  0.16420136696E+04  0.25369234948E+04  0.00000000000E+00 0.  1.
         22    1    1    2    0    0 -0.19963021683E+04  0.28524547190E+03  0.12641148990E+04  0.23800365132E+04  0.00000000000E+00 0. -1.
<mgrwt>
<rscale>  0 0.40501438E+04</rscale>
<asrwt>0</asrwt>
<pdfrwt beam="1">  1        2 0.61237086E+00 0.40501438E+04</pdfrwt>
<pdfrwt beam="2">  1       -2 0.15850379E+00 0.40501438E+04</pdfrwt>
<totfact> 0.71778756E-02</totfact>
</mgrwt>
</event>
<event>
 6    1  0.2047711E-005  0.3322799E+04  0.7818608E-02  0.8157118E-01
          2   -1    0    0  501    0  0.00000000000E+00  0.00000000000E+00  0.20111850869E+04  0.20111850869E+04  0.00000000000E+00 0. -1.
         -2   -1    0    0    0  501 -0.00000000000E+00 -0.00000000000E+00 -0.13724488778E+04  0.13724488778E+04  0.00000000000E+00 0.  1.
         23    2    1    2    0    0 -0.63769718805E+03 -0.36906501136E+03 -0.11952783375E+04  0.14071532430E+04  0.92321498276E+02 0.  0.
         13    1    3    3    0    0 -0.53859182373E+03 -0.27034500583E+03 -0.96445144074E+03  0.11372485024E+04  0.00000000000E+00 0.  1.
        -13    1    3    3    0    0 -0.99105364323E+02 -0.98720005525E+02 -0.23082689672E+03  0.26990474056E+03  0.00000000000E+00 0. -1.
         22    1    1    2    0    0  0.63769718805E+03  0.36906501136E+03  0.18340145466E+04  0.19764807217E+04  0.00000000000E+00 0. -1.
<mgrwt>
<rscale>  0 0.33227993E+04</rscale>
<asrwt>0</asrwt>
<pdfrwt beam="1">  1        2 0.30941309E+00 0.33227993E+04</pdfrwt>
<pdfrwt beam="2">  1       -2 0.21114598E+00 0.33227993E+04</pdfrwt>
<totfact> 0.61817236E-01</totfact>
</mgrwt>
</event>
<event>
 6    1  0.2047711E-005  0.2705292E+04  0.7818608E-02  0.8333290E-01
         -2   -1    0    0    0  501 -0.00000000000E+00  0.00000000000E+00  0.99375952178E+03  0.99375952178E+03  0.00000000000E+00 0.  1.
          2   -1    0    0  501    0  0.00000000000E+00 -0.00000000000E+00 -0.18411402230E+04  0.18411402230E+04  0.00000000000E+00 0. -1.
         23    2    1    2    0    0 -0.45598445486E+03 -0.70266151048E+03  0.68673061665E+03  0.10870002748E+04  0.91190110698E+02 0.  0.
         11    1    3    3    0    0 -0.61085245464E+02 -0.10491705001E+03  0.14321693844E+03  0.18775006272E+03  0.00000000000E+00 0. -1.
        -11    1    3    3    0    0 -0.39489920939E+03 -0.59774446048E+03  0.54351367821E+03  0.89925021213E+03  0.00000000000E+00 0.  1.
         22    1    1    2    0    0  0.45598445486E+03  0.70266151048E+03 -0.15341113178E+04  0.17478994699E+04  0.00000000000E+00 0. -1.
<mgrwt>
<rscale>  0 0.27052916E+04</rscale>
<asrwt>0</asrwt>
<pdfrwt beam="1">  1        2 0.28325234E+00 0.27052916E+04</pdfrwt>
<pdfrwt beam="2">  1       -2 0.15288608E+00 0.27052916E+04</pdfrwt>
<totfact> 0.20448736E+00</totfact>
</mgrwt>
</event>
<event>
 6    1  0.2047711E-005  0.2446614E+04  0.7818608E-02  0.8422255E-01
         -1   -1    0    0    0  501 -0.00000000000E+00  0.00000000000E+00  0.59657708327E+03  0.59657708327E+03  0.00000000000E+00 0. -1.
          1   -1    0    0  501    0  0.00000000000E+00 -0.00000000000E+00 -0.25084435077E+04  0.25084435077E+04  0.00000000000E+00 0.  1.
         23    2    1    2    0    0 -0.64438746406E+03  0.72714992709E+02  0.35656508735E+03  0.74571895751E+03  0.91844586476E+02 0.  0.
         13    1    3    3    0    0 -0.22245298110E+03  0.32676952856E+02  0.17370596496E+03  0.28412475132E+03  0.00000000000E+00 0. -1.
        -13    1    3    3    0    0 -0.42193448296E+03  0.40038039853E+02  0.18285912239E+03  0.46159420619E+03  0.00000000000E+00 0.  1.
         22    1    1    2    0    0  0.64438746406E+03 -0.72714992709E+02 -0.22684315118E+04  0.23593016334E+04  0.00000000000E+00 0.  1.
<mgrwt>
<rscale>  0 0.24466139E+04</rscale>
<asrwt>0</asrwt>
<pdfrwt beam="1">  1        1 0.38591439E+00 0.24466139E+04</pdfrwt>
<pdfrwt beam="2">  1       -1 0.91781089E-01 0.24466139E+04</pdfrwt>
<totfact> 0.13793282E+00</totfact>
</mgrwt>
</event>
<event>
 6    1  0.2047711E-005  0.1633028E+04  0.7818608E-02  0.8800511E-01
          2   -1    0    0  501    0  0.00000000000E+00  0.00000000000E+00  0.41537592852E+03  0.41537592852E+03  0.00000000000E+00 0. -1.
         -2   -1    0    0    0  501 -0.00000000000E+00 -0.00000000000E+00 -0.16050394852E+04  0.16050394852E+04  0.00000000000E+00 0.  1.
         23    2    1    2    0    0 -0.31289733646E+03 -0.36053085231E+03 -0.14123531354E+04  0.14936537151E+04  0.91503021058E+02 0.  0.
         11    1    3    3    0    0 -0.10990747972E+03 -0.17963320046E+03 -0.52802875808E+03  0.56847349117E+03  0.00000000000E+00 0.  1.
        -11    1    3    3    0    0 -0.20298985674E+03 -0.18089765185E+03 -0.88432437734E+03  0.92518022393E+03  0.00000000000E+00 0. -1.
         22    1    1    2    0    0  0.31289733646E+03  0.36053085231E+03  0.22268957876E+03  0.52676169860E+03  0.00000000000E+00 0.  1.
<mgrwt>
<rscale>  0 0.16330276E+04</rscale>
<asrwt>0</asrwt>
<pdfrwt beam="1">  1        2 0.63903989E-01 0.16330276E+04</pdfrwt>
<pdfrwt beam="2">  1       -2 0.24692915E+00 0.16330276E+04</pdfrwt>
<totfact> 0.48924403E+00</totfact>
</mgrwt>
</event>
<event>
 6    1  0.2047711E-005  0.8007374E+03  0.7818608E-02  0.9558950E-01
         -1   -1    0    0    0  501 -0.00000000000E+00  0.00000000000E+00  0.17339537889E+03  0.17339537889E+03  0.00000000000E+00 0.  1.
          1   -1    0    0  501    0  0.00000000000E+00 -0.00000000000E+00 -0.92444849718E+03  0.92444849718E+03  0.00000000000E+00 0. -1.
         23    2    1    2    0    0  0.19613010449E+03  0.26680876877E+03 -0.85253912312E+02  0.35424282734E+03  0.92551683819E+02 0.  0.
         13    1    3    3    0    0  0.12611021169E+03  0.23495317916E+03 -0.71727499101E+02  0.27613695156E+03  0.00000000000E+00 0.  1.
        -13    1    3    3    0    0  0.70019892798E+02  0.31855589612E+02 -0.13526413211E+02  0.78105875780E+02  0.00000000000E+00 0. -1.
         22    1    1    2    0    0 -0.19613010449E+03 -0.26680876877E+03 -0.66579920598E+03  0.74360104873E+03  0.00000000000E+00 0. -1.
<mgrwt>
<rscale>  0 0.80073740E+03</rscale>
<asrwt>0</asrwt>
<pdfrwt beam="1">  1        1 0.14222284E+00 0.80073740E+03</pdfrwt>
<pdfrwt beam="2">  1       -1 0.26676212E-01 0.80073740E+03</pdfrwt>
<totfact> 0.21975045E+02</totfact>
</mgrwt>
</event>
<event>
 6    1  0.2047711E-005  0.1285307E+04  0.7818608E-02  0.9041299E-01
          1   -1    0    0  501    0  0.00000000000E+00  0.00000000000E+00  0.41814105761E+03  0.41814105761E+03  0.00000000000E+00 0. -1.
         -1   -1    0    0    0  501 -0.00000000000E+00 -0.00000000000E+00 -0.98771330933E+03  0.98771330933E+03  0.00000000000E+00 0.  1.
         23    2    1    2    0    0  0.38054064244E+03  0.23699540548E+03 -0.78494940624E+03  0.90849602383E+03  0.90782444278E+02 0.  0.
         11    1    3    3    0    0  0.82166221256E+02  0.98127083150E+02 -0.23509855877E+03  0.26767806167E+03  0.00000000000E+00 0. -1.
        -11    1    3    3    0    0  0.29837442118E+03  0.13886832233E+03 -0.54985084748E+03  0.64081796217E+03  0.00000000000E+00 0.  1.
         22    1    1    2    0    0 -0.38054064244E+03 -0.23699540548E+03  0.21537715452E+03  0.49735834311E+03  0.00000000000E+00 0. -1.
<mgrwt>
<rscale>  0 0.12853069E+04</rscale>
<asrwt>0</asrwt>
<pdfrwt beam="1">  1        1 0.64329395E-01 0.12853069E+04</pdfrwt>
<pdfrwt beam="2">  1       -1 0.15195589E+00 0.12853069E+04</pdfrwt>
<totfact> 0.18734728E+01</totfact>
</mgrwt>
</event>
<event>
 6    1  0.2047711E-005  0.3553647E+04  0.7818608E-02  0.8101193E-01
         -2   -1    0    0    0  501 -0.00000000000E+00  0.00000000000E+00  0.90570862143E+03  0.90570862143E+03  0.00000000000E+00 0.  1.
          2   -1    0    0  501    0  0.00000000000E+00 -0.00000000000E+00 -0.34857812349E+04  0.34857812349E+04  0.00000000000E+00 0. -1.
         23    2    1    2    0    0 -0.11354116789E+04  0.78850227634E+03 -0.26680854363E+04  0.30063394034E+04  0.92201915334E+02 0.  0.
         13    1    3    3    0    0 -0.83324156448E+03  0.52926798074E+03 -0.18800865810E+04  0.21234739584E+04  0.00000000000E+00 0.  1.
        -13    1    3    3    0    0 -0.30217011439E+03  0.25923429559E+03 -0.78799885530E+03  0.88286544501E+03  0.00000000000E+00 0. -1.
         22    1    1    2    0    0  0.11354116789E+04 -0.78850227634E+03  0.88012822753E+02  0.13851504529E+04  0.00000000000E+00 0.  1.
<mgrwt>
<rscale>  0 0.35536472E+04</rscale>
<asrwt>0</asrwt>
<pdfrwt beam="1">  1        2 0.53627405E+00 0.35536472E+04</pdfrwt>
<pdfrwt beam="2">  1       -2 0.13933979E+00 0.35536472E+04</pdfrwt>
<totfact> 0.24703903E-01</totfact>
</mgrwt>
</event>
<event>
 6    1  0.2047711E-005  0.2643563E+04  0.7818608E-02  0.8353553E-01
         -2   -1    0    0    0  501 -0.00000000000E+00  0.00000000000E+00  0.97813465719E+03  0.97813465719E+03  0.00000000000E+00 0.  1.
          2   -1    0    0  501    0  0.00000000000E+00 -0.00000000000E+00 -0.17861614859E+04  0.17861614859E+04  0.00000000000E+00 0. -1.
         23    2    1    2    0    0 -0.30393755673E+03  0.11750000917E+04 -0.94781287235E+03  0.15425992118E+04  0.90883624311E+02 0.  0.
         13    1    3    3    0    0 -0.21633170480E+03  0.97321742755E+03 -0.78478457561E+03  0.12687940723E+04  0.00000000000E+00 0.  1.
        -13    1    3    3    0    0 -0.87605851926E+02  0.20178266418E+03 -0.16302829675E+03  0.27380513946E+03  0.00000000000E+00 0. -1.
         22    1    1    2    0    0  0.30393755673E+03 -0.11750000917E+04  0.13978604369E+03  0.12216969313E+04  0.00000000000E+00 0.  1.
<mgrwt>
<rscale>  0 0.26435631E+04</rscale>
<asrwt>0</asrwt>
<pdfrwt beam="1">  1        2 0.27479407E+00 0.26435631E+04</pdfrwt>
<pdfrwt beam="2">  1       -2 0.15048225E+00 0.26435631E+04</pdfrwt>
<totfact> 0.23000046E+00</totfact>
</mgrwt>
</event>
<event>
 6    1  0.2047711E-005  0.1380111E+04  0.7818608E-02  0.8968343E-01
          2   -1    0    0  501    0  0.00000000000E+00  0.00000000000E+00  0.21435691096E+04  0.21435691096E+04  0.00000000000E+00 0. -1.
         -2   -1    0    0    0  501 -0.00000000000E+00 -0.00000000000E+00 -0.22214179659E+03  0.22214179659E+03  0.00000000000E+00 0.  1.
         23    2    1    2    0    0  0.51853909604E+03 -0.24144957342E+03  0.31316716745E+03  0.65876000284E+03  0.93329394888E+02 0.  0.
         13    1    3    3    0    0  0.14414095625E+03 -0.71640929580E+02  0.42256480990E+02  0.16641709120E+03  0.00000000000E+00 0. -1.
        -13    1    3    3    0    0  0.37439813979E+03 -0.16980864384E+03  0.27091068646E+03  0.49234291164E+03  0.00000000000E+00 0.  1.
         22    1    1    2    0    0 -0.51853909604E+03  0.24144957342E+03  0.16082601456E+04  0.17069509033E+04  0.00000000000E+00 0. -1.
<mgrwt>
<rscale>  0 0.13801106E+04</rscale>
<asrwt>0</asrwt>
<pdfrwt beam="1">  1        2 0.32977985E+00 0.13801106E+04</pdfrwt>
<pdfrwt beam="2">  1       -2 0.34175663E-01 0.13801106E+04</pdfrwt>
<totfact> 0.43469604E+01</totfact>
</mgrwt>
</event>
<event>
 6    1  0.2047711E-005  0.1322633E+04  0.7818608E-02  0.9011807E-01
         -2   -1    0    0    0  501 -0.00000000000E+00  0.00000000000E+00  0.24473510079E+03  0.24473510079E+03  0.00000000000E+00 0.  1.
          2   -1    0    0  501    0  0.00000000000E+00 -0.00000000000E+00 -0.17869903752E+04  0.17869903752E+04  0.00000000000E+00 0. -1.
         23    2    1    2    0    0  0.48376654963E+03 -0.43852190314E+03 -0.90234283798E+03  0.11174938531E+04  0.90765523810E+02 0.  0.
         13    1    3    3    0    0  0.46877842093E+02 -0.79665793552E+02 -0.10274561685E+03  0.13820576154E+03  0.00000000000E+00 0. -1.
        -13    1    3    3    0    0  0.43688870754E+03 -0.35885610959E+03 -0.79959722113E+03  0.97928809153E+03  0.00000000000E+00 0.  1.
         22    1    1    2    0    0 -0.48376654963E+03  0.43852190314E+03 -0.63991243646E+03  0.91423162296E+03  0.00000000000E+00 0.  1.
<mgrwt>
<rscale>  0 0.13226326E+04</rscale>
<asrwt>0</asrwt>
<pdfrwt beam="1">  1        2 0.27492158E+00 0.13226326E+04</pdfrwt>
<pdfrwt beam="2">  1       -2 0.37651556E-01 0.13226326E+04</pdfrwt>
<totfact> 0.57142497E+01</totfact>
</mgrwt>
</event>
<event>
 6    1  0.2047711E-005  0.5146421E+03  0.7818608E-02  0.1010026E+00
         -1   -1    0    0    0  501 -0.00000000000E+00  0.00000000000E+00  0.19059839768E+03  0.19059839768E+03  0.00000000000E+00 0.  1.
          1   -1    0    0  501    0  0.00000000000E+00 -0.00000000000E+00 -0.34740122769E+03  0.34740122769E+03  0.00000000000E+00 0. -1.
         23    2    1    2    0    0 -0.67075177963E+02 -0.68166808550E+02 -0.32139716899E+03  0.34763920483E+03  0.91711957845E+02 0.  0.
         11    1    3    3    0    0  0.64630004295E+01 -0.11213244405E+02 -0.16620228084E+03  0.16670544496E+03  0.00000000000E+00 0.  1.
        -11    1    3    3    0    0 -0.73538178392E+02 -0.56953564145E+02 -0.15519488815E+03  0.18093375986E+03  0.00000000000E+00 0. -1.
         22    1    1    2    0    0  0.67075177963E+02  0.68166808550E+02  0.16459433898E+03  0.19036042054E+03  0.00000000000E+00 0.  1.
<mgrwt>
<rscale>  0 0.51464208E+03</rscale>
<asrwt>0</asrwt>
<pdfrwt beam="1">  1        1 0.53446342E-01 0.51464208E+03</pdfrwt>
<pdfrwt beam="2">  1       -1 0.29322831E-01 0.51464208E+03</pdfrwt>
<totfact> 0.77286973E+02</totfact>
</mgrwt>
</event>
<event>
 6    1  0.2047711E-005  0.2192963E+04  0.7818608E-02  0.8521363E-01
         -2   -1    0    0    0  501 -0.00000000000E+00  0.00000000000E+00  0.30020840402E+03  0.30020840402E+03  0.00000000000E+00 0.  1.
          2   -1    0    0  501    0  0.00000000000E+00 -0.00000000000E+00 -0.40047911693E+04  0.40047911693E+04  0.00000000000E+00 0. -1.
         23    2    1    2    0    0  0.39622423261E+03 -0.77482845685E+03 -0.31597695403E+04  0.32782697013E+04  0.74537952390E+02 0.  0.
         13    1    3    3    0    0  0.16861350922E+03 -0.31288002746E+03 -0.14267632587E+04  0.14703665609E+04  0.00000000000E+00 0.  1.
        -13    1    3    3    0    0  0.22761072339E+03 -0.46194842939E+03 -0.17330062817E+04  0.18079031404E+04  0.00000000000E+00 0. -1.
         22    1    1    2    0    0 -0.39622423261E+03  0.77482845685E+03 -0.54481322495E+03  0.10267298720E+04  0.00000000000E+00 0.  1.
<mgrwt>
<rscale>  0 0.21929633E+04</rscale>
<asrwt>0</asrwt>
<pdfrwt beam="1">  1        2 0.61612169E+00 0.21929633E+04</pdfrwt>
<pdfrwt beam="2">  1       -2 0.46185911E-01 0.21929633E+04</pdfrwt>
<totfact> 0.13885217E+00</totfact>
</mgrwt>
</event>
<event>
 6    1  0.2047711E-005  0.6881096E+03  0.7818608E-02  0.9737785E-01
          1   -1    0    0  501    0  0.00000000000E+00  0.00000000000E+00  0.27379087518E+04  0.27379087518E+04  0.00000000000E+00 0. -1.
         -1   -1    0    0    0  501 -0.00000000000E+00 -0.00000000000E+00 -0.43235086075E+02  0.43235086075E+02  0.00000000000E+00 0.  1.
         23    2    1    2    0    0  0.27557396509E+02 -0.48788806379E+02  0.27182870160E+04  0.27203380154E+04  0.89525746221E+02 0.  0.
         11    1    3    3    0    0 -0.95986683118E+01  0.22453480585E+02  0.49934207926E+03  0.49993880160E+03  0.00000000000E+00 0.  1.
        -11    1    3    3    0    0  0.37156064821E+02 -0.71242286963E+02  0.22189449367E+04  0.22203992138E+04  0.00000000000E+00 0. -1.
         22    1    1    2    0    0 -0.27557396509E+02  0.48788806379E+02 -0.23613350268E+02  0.60805822428E+02  0.00000000000E+00 0.  1.
<mgrwt>
<rscale>  0 0.68810964E+03</rscale>
<asrwt>0</asrwt>
<pdfrwt beam="1">  1        1 0.42121660E+00 0.68810964E+03</pdfrwt>
<pdfrwt beam="2">  1       -1 0.66515538E-02 0.68810964E+03</pdfrwt>
<totfact> 0.11656530E+02</totfact>
</mgrwt>
</event>
<event>
 6    1  0.2047711E-005  0.3143315E+04  0.7818608E-02  0.8203950E-01
          2   -1    0    0  501    0  0.00000000000E+00  0.00000000000E+00  0.21243321073E+04  0.21243321073E+04  0.00000000000E+00 0. -1.
         -2   -1    0    0    0  501 -0.00000000000E+00 -0.00000000000E+00 -0.11627690397E+04  0.11627690397E+04  0.00000000000E+00 0.  1.
         23    2    1    2    0    0  0.94578834841E+03 -0.10854130948E+04 -0.17470625928E+03  0.14530495748E+04  0.90518526008E+02 0.  0.
         13    1    3    3    0    0  0.54730743401E+03 -0.62143367200E+03 -0.14529358918E+03  0.84073507306E+03  0.00000000000E+00 0. -1.
        -13    1    3    3    0    0  0.39848091441E+03 -0.46397942279E+03 -0.29412670101E+02  0.61231450177E+03  0.00000000000E+00 0.  1.
         22    1    1    2    0    0 -0.94578834841E+03  0.10854130948E+04  0.11362693268E+04  0.18340515722E+04  0.00000000000E+00 0. -1.
<mgrwt>
<rscale>  0 0.31433152E+04</rscale>
<asrwt>0</asrwt>
<pdfrwt beam="1">  1        2 0.32682032E+00 0.31433152E+04</pdfrwt>
<pdfrwt beam="2">  1       -2 0.17888755E+00 0.31433152E+04</pdfrwt>
<totfact> 0.88922302E-01</totfact>
</mgrwt>
</event>
<event>
 6    1  0.2047711E-005  0.2220856E+04  0.7818608E-02  0.8509797E-01
         -2   -1    0    0    0  501 -0.00000000000E+00  0.00000000000E+00  0.10418746049E+04  0.10418746049E+04  0.00000000000E+00 0.  1.
          2   -1    0    0  501    0  0.00000000000E+00 -0.00000000000E+00 -0.11834920548E+04  0.11834920548E+04  0.00000000000E+00 0. -1.
         23    2    1    2    0    0  0.97794346131E+03  0.31721839922E+03  0.34451883675E+03  0.10881202416E+04  0.91167455695E+02 0.  0.
         11    1    3    3    0    0  0.33626229757E+03  0.13407921262E+03  0.83000237677E+02  0.37140087167E+03  0.00000000000E+00 0. -1.
        -11    1    3    3    0    0  0.64168116374E+03  0.18313918660E+03  0.26151859908E+03  0.71671936993E+03  0.00000000000E+00 0.  1.
         22    1    1    2    0    0 -0.97794346131E+03 -0.31721839922E+03 -0.48613628658E+03  0.11372464181E+04  0.00000000000E+00 0. -1.
<mgrwt>
<rscale>  0 0.22208560E+04</rscale>
<asrwt>0</asrwt>
<pdfrwt beam="1">  1        2 0.18207570E+00 0.22208560E+04</pdfrwt>
<pdfrwt beam="2">  1       -2 0.16028840E+00 0.22208560E+04</pdfrwt>
<totfact> 0.44322622E+00</totfact>
</mgrwt>
</event>
<event>
 6    1  0.2047711E-005  0.2404167E+04  0.7818608E-02  0.8437945E-01
         -2   -1    0    0    0  501 -0.00000000000E+00  0.00000000000E+00  0.19081302117E+04  0.19081302117E+04  0.00000000000E+00 0.  1.
          2   -1    0    0  501    0  0.00000000000E+00 -0.00000000000E+00 -0.75728860211E+03  0.75728860211E+03  0.00000000000E+00 0. -1.
         23    2    1    2    0    0  0.66557230233E+03 -0.31731114275E+03  0.16268001468E+04  0.17878030779E+04  0.78027411392E+02 0.  0.
         11    1    3    3    0    0  0.31425727402E+03 -0.15124232403E+03  0.86382978558E+03  0.93157596218E+03  0.00000000000E+00 0. -1.
        -11    1    3    3    0    0  0.35131502831E+03 -0.16606881872E+03  0.76297036117E+03  0.85622711572E+03  0.00000000000E+00 0.  1.
         22    1    1    2    0    0 -0.66557230233E+03  0.31731114275E+03 -0.47595853712E+03  0.87761573596E+03  0.00000000000E+00 0. -1.
<mgrwt>
<rscale>  0 0.24041674E+04</rscale>
<asrwt>0</asrwt>
<pdfrwt beam="1">  1        2 0.11650594E+00 0.24041674E+04</pdfrwt>
<pdfrwt beam="2">  1       -2 0.29355849E+00 0.24041674E+04</pdfrwt>
<totfact> 0.11587382E+00</totfact>
</mgrwt>
</event>
<event>
 6    1  0.2047711E-005  0.9876022E+03  0.7818608E-02  0.9322248E-01
         -4   -1    0    0    0  501 -0.00000000000E+00  0.00000000000E+00  0.15136435863E+03  0.15136435863E+03  0.00000000000E+00 0. -1.
          4   -1    0    0  501    0  0.00000000000E+00 -0.00000000000E+00 -0.16109440531E+04  0.16109440531E+04  0.00000000000E+00 0.  1.
         23    2    1    2    0    0 -0.22046767197E+03  0.40266931620E+03 -0.10396747540E+04  0.11401599314E+04  0.91063178302E+02 0.  0.
         13    1    3    3    0    0 -0.14164885413E+02  0.80274421851E+02 -0.13279839151E+03  0.15582053642E+03  0.00000000000E+00 0.  1.
        -13    1    3    3    0    0 -0.20630278656E+03  0.32239489435E+03 -0.90687636246E+03  0.98433939494E+03  0.00000000000E+00 0. -1.
         22    1    1    2    0    0  0.22046767197E+03 -0.40266931620E+03 -0.41990494055E+03  0.62214848042E+03  0.00000000000E+00 0. -1.
<mgrwt>
<rscale>  0 0.98760217E+03</rscale>
<asrwt>0</asrwt>
<pdfrwt beam="1">  1        4 0.24783756E+00 0.98760217E+03</pdfrwt>
<pdfrwt beam="2">  1       -4 0.23286823E-01 0.98760217E+03</pdfrwt>
<totfact> 0.22798089E+00</totfact>
</mgrwt>
</event>
<event>
 6    1  0.2047711E-005  0.2669899E+04  0.7818608E-02  0.8344838E-01
         -2   -1    0    0    0  501 -0.00000000000E+00  0.00000000000E+00  0.56641102649E+03  0.56641102649E+03  0.00000000000E+00 0. -1.
          2   -1    0    0  501    0  0.00000000000E+00 -0.00000000000E+00 -0.31462835573E+04  0.31462835573E+04  0.00000000000E+00 0.  1.
         23    2    1    2    0    0 -0.93874804632E+03 -0.74117408421E+03 -0.47191767169E+03  0.12890484451E+04  0.91393037627E+02 0.  0.
         11    1    3    3    0    0 -0.11185020736E+03 -0.96882927551E+02 -0.27726358448E+02  0.15055072730E+03  0.00000000000E+00 0.  1.
        -11    1    3    3    0    0 -0.82689783896E+03 -0.64429115666E+03 -0.44419131324E+03  0.11384977178E+04  0.00000000000E+00 0. -1.
         22    1    1    2    0    0  0.93874804632E+03  0.74117408421E+03 -0.21079548591E+04  0.24236461387E+04  0.00000000000E+00 0.  1.
<mgrwt>
<rscale>  0 0.26698986E+04</rscale>
<asrwt>0</asrwt>
<pdfrwt beam="1">  1        2 0.48404361E+00 0.26698986E+04</pdfrwt>
<pdfrwt beam="2">  1       -2 0.87140160E-01 0.26698986E+04</pdfrwt>
<totfact> 0.14066099E+00</totfact>
</mgrwt>
</event>
<event>
 6    1  0.2047711E-005  0.4253374E+04  0.7818608E-02  0.7955296E-01
         -2   -1    0    0    0  501 -0.00000000000E+00  0.00000000000E+00  0.12180493737E+04  0.12180493737E+04  0.00000000000E+00 0.  1.
          2   -1    0    0  501    0  0.00000000000E+00 -0.00000000000E+00 -0.37131487094E+04  0.37131487094E+04  0.00000000000E+00 0. -1.
         23    2    1    2    0    0 -0.15199459699E+04  0.60208949589E+03  0.32708642900E+03  0.16696830973E+04  0.90047771254E+02 0.  0.
         13    1    3    3    0    0 -0.93703377347E+03  0.38835789420E+03  0.24427882197E+03  0.10433246328E+04  0.00000000000E+00 0. -1.
        -13    1    3    3    0    0 -0.58291219641E+03  0.21373160170E+03  0.82807607025E+02  0.62635846452E+03  0.00000000000E+00 0.  1.
         22    1    1    2    0    0  0.15199459699E+04 -0.60208949589E+03 -0.28221857647E+04  0.32615149858E+04  0.00000000000E+00 0. -1.
<mgrwt>
<rscale>  0 0.42533744E+04</rscale>
<asrwt>0</asrwt>
<pdfrwt beam="1">  1        2 0.57125364E+00 0.42533744E+04</pdfrwt>
<pdfrwt beam="2">  1       -2 0.18739221E+00 0.42533744E+04</pdfrwt>
<totfact> 0.71015854E-02</totfact>
</mgrwt>
</event>
<event>
 6    1  0.2047711E-005  0.2693648E+04  0.7818608E-02  0.8337069E-01
         -1   -1    0    0    0  501 -0.00000000000E+00  0.00000000000E+00  0.68306353277E+03  0.68306353277E+03  0.00000000000E+00 0.  1.
          1   -1    0    0  501    0  0.00000000000E+00 -0.00000000000E+00 -0.26555878892E+04  0.26555878892E+04  0.00000000000E+00 0. -1.
         23    2    1    2    0    0 -0.12262329264E+04  0.53366637585E+03 -0.11685447554E+04  0.17782571803E+04  0.90855728103E+02 0.  0.
         11    1    3    3    0    0 -0.27744528531E+03  0.80468258084E+02 -0.25899313816E+03  0.38797998983E+03  0.00000000000E+00 0. -1.
        -11    1    3    3    0    0 -0.94878764113E+03  0.45319811776E+03 -0.90955161719E+03  0.13902771904E+04  0.00000000000E+00 0.  1.
         22    1    1    2    0    0  0.12262329264E+04 -0.53366637585E+03 -0.80397960109E+03  0.15603942417E+04  0.00000000000E+00 0. -1.
<mgrwt>
<rscale>  0 0.26936483E+04</rscale>
<asrwt>0</asrwt>
<pdfrwt beam="1">  1        1 0.40855198E+00 0.26936483E+04</pdfrwt>
<pdfrwt beam="2">  1       -1 0.10508670E+00 0.26936483E+04</pdfrwt>
<totfact> 0.78259282E-01</totfact>
</mgrwt>
</event>
<event>
 6    1  0.2047711E-005  0.3081087E+04  0.7818608E-02  0.8220948E-01
         -2   -1    0    0    0  501 -0.00000000000E+00  0.00000000000E+00  0.12655230454E+04  0.12655230454E+04  0.00000000000E+00 0.  1.
          2   -1    0    0  501    0  0.00000000000E+00 -0.00000000000E+00 -0.18753307360E+04  0.18753307360E+04  0.00000000000E+00 0. -1.
         23    2    1    2    0    0 -0.10723713216E+04 -0.95607512431E+03 -0.86817931948E+03  0.16811223701E+04  0.91527033173E+02 0.  0.
         11    1    3    3    0    0 -0.32722584137E+03 -0.30163186835E+03 -0.22088477450E+03  0.49683862457E+03  0.00000000000E+00 0. -1.
        -11    1    3    3    0    0 -0.74514548022E+03 -0.65444325597E+03 -0.64729454498E+03  0.11842837455E+04  0.00000000000E+00 0.  1.
         22    1    1    2    0    0  0.10723713216E+04  0.95607512431E+03  0.25837162890E+03  0.14597314114E+04  0.00000000000E+00 0.  1.
<mgrwt>
<rscale>  0 0.30810870E+04</rscale>
<asrwt>0</asrwt>
<pdfrwt beam="1">  1        2 0.28851242E+00 0.30810870E+04</pdfrwt>
<pdfrwt beam="2">  1       -2 0.19469585E+00 0.30810870E+04</pdfrwt>
<totfact> 0.96095265E-01</totfact>
</mgrwt>
</event>
<event>
 6    1  0.2047711E-005  0.5228611E+04  0.7818608E-02  0.7794178E-01
         -1   -1    0    0    0  501 -0.00000000000E+00  0.00000000000E+00  0.18231348481E+04  0.18231348481E+04  0.00000000000E+00 0.  1.
          1   -1    0    0  501    0  0.00000000000E+00 -0.00000000000E+00 -0.37488132914E+04  0.37488132914E+04  0.00000000000E+00 0. -1.
         23    2    1    2    0    0  0.36278022102E+03  0.25721216692E+04 -0.12705515827E+04  0.28930284742E+04  0.88842886891E+02 0.  0.
         13    1    3    3    0    0  0.13504467359E+03  0.12751672797E+04 -0.62913437473E+03  0.14283202430E+04  0.00000000000E+00 0.  1.
        -13    1    3    3    0    0  0.22773554744E+03  0.12969543895E+04 -0.64141720793E+03  0.14647082312E+04  0.00000000000E+00 0. -1.
         22    1    1    2    0    0 -0.36278022102E+03 -0.25721216692E+04 -0.65512686062E+03  0.26789196653E+04  0.00000000000E+00 0. -1.
<mgrwt>
<rscale>  0 0.52286106E+04</rscale>
<asrwt>0</asrwt>
<pdfrwt beam="1">  1        1 0.57674051E+00 0.52286106E+04</pdfrwt>
<pdfrwt beam="2">  1       -1 0.28048228E+00 0.52286106E+04</pdfrwt>
<totfact> 0.49167890E-03</totfact>
</mgrwt>
</event>
<event>
 6    1  0.2047711E-005  0.2405273E+04  0.7818608E-02  0.8437532E-01
          2   -1    0    0  501    0  0.00000000000E+00  0.00000000000E+00  0.22878214410E+04  0.22878214410E+04  0.00000000000E+00 0. -1.
         -2   -1    0    0    0  501 -0.00000000000E+00 -0.00000000000E+00 -0.63218854035E+03  0.63218854035E+03  0.00000000000E+00 0.  1.
         23    2    1    2    0    0 -0.69387137304E+03  0.48098008224E+03 -0.20771939606E+03  0.87431178674E+03  0.92056673311E+02 0.  0.
         13    1    3    3    0    0 -0.47092999734E+03  0.28655869478E+03 -0.16505559563E+03  0.57544269706E+03  0.00000000000E+00 0.  1.
        -13    1    3    3    0    0 -0.22294137569E+03  0.19442138746E+03 -0.42663800421E+02  0.29886908968E+03  0.00000000000E+00 0. -1.
         22    1    1    2    0    0  0.69387137304E+03 -0.48098008224E+03  0.18633522967E+04  0.20456981946E+04  0.00000000000E+00 0. -1.
<mgrwt>
<rscale>  0 0.24052730E+04</rscale>
<asrwt>0</asrwt>
<pdfrwt beam="1">  1        2 0.35197253E+00 0.24052730E+04</pdfrwt>
<pdfrwt beam="2">  1       -2 0.97259776E-01 0.24052730E+04</pdfrwt>
<totfact> 0.36512829E+00</totfact>
</mgrwt>
</event>
<event>
 6    1  0.2047711E-005  0.1923763E+04  0.7818608E-02  0.8643117E-01
         -2   -1    0    0    0  501 -0.00000000000E+00  0.00000000000E+00  0.29437230573E+03  0.29437230573E+03  0.00000000000E+00 0.  1.
          2   -1    0    0  501    0  0.00000000000E+00 -0.00000000000E+00 -0.31430143818E+04  0.31430143818E+04  0.00000000000E+00 0. -1.
         23    2    1    2    0    0 -0.78746072606E+03  0.44210868337E+03 -0.20070426725E+04  0.22029459077E+04  0.95895253413E+02 0.  0.
         13    1    3    3    0    0 -0.41513099965E+03  0.20430215001E+03 -0.11255935483E+04  0.12169773833E+04  0.00000000000E+00 0. -1.
        -13    1    3    3    0    0 -0.37232972641E+03  0.23780653336E+03 -0.88144912423E+03  0.98596852439E+03  0.00000000000E+00 0.  1.
         22    1    1    2    0    0  0.78746072606E+03 -0.44210868337E+03 -0.84159940353E+03  0.12344407799E+04  0.00000000000E+00 0.  1.
<mgrwt>
<rscale>  0 0.19237634E+04</rscale>
<asrwt>0</asrwt>
<pdfrwt beam="1">  1        2 0.48354066E+00 0.19237634E+04</pdfrwt>
<pdfrwt beam="2">  1       -2 0.45288049E-01 0.19237634E+04</pdfrwt>
<totfact> 0.61262639E+00</totfact>
</mgrwt>
</event>
<event>
 6    1  0.2047711E-005  0.1316369E+04  0.7818608E-02  0.9016684E-01
         -2   -1    0    0    0  501 -0.00000000000E+00  0.00000000000E+00  0.91419083576E+03  0.91419083576E+03  0.00000000000E+00 0.  1.
          2   -1    0    0  501    0  0.00000000000E+00 -0.00000000000E+00 -0.47386901591E+03  0.47386901591E+03  0.00000000000E+00 0. -1.
         23    2    1    2    0    0  0.24054391521E+03  0.40774133499E+03 -0.25546031745E+03  0.54649752243E+03  0.96359726187E+02 0.  0.
         11    1    3    3    0    0  0.13678152381E+03  0.20057178177E+03 -0.79170548447E+02  0.25535504819E+03  0.00000000000E+00 0. -1.
        -11    1    3    3    0    0  0.10376239141E+03  0.20716955322E+03 -0.17628976900E+03  0.29114247424E+03  0.00000000000E+00 0.  1.
         22    1    1    2    0    0 -0.24054391521E+03 -0.40774133499E+03  0.69578213730E+03  0.84156232924E+03  0.00000000000E+00 0.  1.
<mgrwt>
<rscale>  0 0.13163688E+04</rscale>
<asrwt>0</asrwt>
<pdfrwt beam="1">  1        2 0.72902926E-01 0.13163688E+04</pdfrwt>
<pdfrwt beam="2">  1       -2 0.14064474E+00 0.13163688E+04</pdfrwt>
<totfact> 0.22753031E+01</totfact>
</mgrwt>
</event>
<event>
 6    1  0.2047711E-005  0.2171609E+04  0.7818608E-02  0.8530339E-01
          2   -1    0    0  501    0  0.00000000000E+00  0.00000000000E+00  0.18718067054E+04  0.18718067054E+04  0.00000000000E+00 0.  1.
         -2   -1    0    0    0  501 -0.00000000000E+00 -0.00000000000E+00 -0.62985767771E+03  0.62985767771E+03  0.00000000000E+00 0. -1.
         23    2    1    2    0    0  0.64644830152E+02 -0.93886367119E+03  0.26427466896E+01  0.94553970775E+03  0.91621000276E+02 0.  0.
         13    1    3    3    0    0  0.78612808379E+02 -0.67451103574E+03 -0.23854371353E+02  0.67949550551E+03  0.00000000000E+00 0. -1.
        -13    1    3    3    0    0 -0.13967978226E+02 -0.26435263544E+03  0.26497118043E+02  0.26604420224E+03  0.00000000000E+00 0.  1.
         22    1    1    2    0    0 -0.64644830152E+02  0.93886367119E+03  0.12393062810E+04  0.15561246753E+04  0.00000000000E+00 0.  1.
<mgrwt>
<rscale>  0 0.21716094E+04</rscale>
<asrwt>0</asrwt>
<pdfrwt beam="1">  1        2 0.28797026E+00 0.21716094E+04</pdfrwt>
<pdfrwt beam="2">  1       -2 0.96901182E-01 0.21716094E+04</pdfrwt>
<totfact> 0.64164720E+00</totfact>
</mgrwt>
</event>
<event>
 6    1  0.2047711E-005  0.1432650E+04  0.7818608E-02  0.8930518E-01
          2   -1    0    0  501    0  0.00000000000E+00  0.00000000000E+00  0.82731603260E+03  0.82731603260E+03  0.00000000000E+00 0. -1.
         -2   -1    0    0    0  501 -0.00000000000E+00 -0.00000000000E+00 -0.62022473071E+03  0.62022473071E+03  0.00000000000E+00 0.  1.
         23    2    1    2    0    0  0.20753853300E+03 -0.50887854638E+03 -0.35590419680E+03  0.66077933238E+03  0.89061277568E+02 0.  0.
         11    1    3    3    0    0  0.12790137956E+03 -0.37400975384E+03 -0.21428900802E+03  0.44962410725E+03  0.00000000000E+00 0.  1.
        -11    1    3    3    0    0  0.79637153439E+02 -0.13486879254E+03 -0.14161518878E+03  0.21115522514E+03  0.00000000000E+00 0. -1.
         22    1    1    2    0    0 -0.20753853300E+03  0.50887854638E+03  0.56299549869E+03  0.78676143092E+03  0.00000000000E+00 0. -1.
<mgrwt>
<rscale>  0 0.14326505E+04</rscale>
<asrwt>0</asrwt>
<pdfrwt beam="1">  1        2 0.12727939E+00 0.14326505E+04</pdfrwt>
<pdfrwt beam="2">  1       -2 0.95419189E-01 0.14326505E+04</pdfrwt>
<totfact> 0.29501864E+01</totfact>
</mgrwt>
</event>
<event>
 6    1  0.2047711E-005  0.5475558E+04  0.7818608E-02  0.7759061E-01
         -2   -1    0    0    0  501 -0.00000000000E+00  0.00000000000E+00  0.26788330782E+04  0.26788330782E+04  0.00000000000E+00 0.  1.
          2   -1    0    0  501    0  0.00000000000E+00 -0.00000000000E+00 -0.27980222228E+04  0.27980222228E+04  0.00000000000E+00 0. -1.
         23    2    1    2    0    0 -0.48997345635E+03  0.25474241815E+04  0.81341677626E+03  0.27201910574E+04  0.91370608716E+02 0.  0.
         11    1    3    3    0    0 -0.20910294909E+03  0.90643660543E+03  0.26284380167E+03  0.96666345077E+03  0.00000000000E+00 0. -1.
        -11    1    3    3    0    0 -0.28087050726E+03  0.16409875761E+04  0.55057297459E+03  0.17535276066E+04  0.00000000000E+00 0.  1.
         22    1    1    2    0    0  0.48997345635E+03 -0.25474241815E+04 -0.93260592093E+03  0.27566642436E+04  0.00000000000E+00 0. -1.
<mgrwt>
<rscale>  0 0.54755582E+04</rscale>
<asrwt>0</asrwt>
<pdfrwt beam="1">  1        2 0.43046495E+00 0.54755582E+04</pdfrwt>
<pdfrwt beam="2">  1       -2 0.41212817E+00 0.54755582E+04</pdfrwt>
<totfact> 0.10060099E-02</totfact>
</mgrwt>
</event>
<event>
 6    1  0.2047711E-005  0.1480205E+04  0.7818608E-02  0.8897724E-01
          1   -1    0    0  501    0  0.00000000000E+00  0.00000000000E+00  0.52567162865E+03  0.52567162865E+03  0.00000000000E+00 0. -1.
         -1   -1    0    0    0  501 -0.00000000000E+00 -0.00000000000E+00 -0.10420042335E+04  0.10420042335E+04  0.00000000000E+00 0.  1.
         23    2    1    2    0    0  0.72883891663E+03 -0.13819463837E+02 -0.14191928383E+03  0.74817450221E+03  0.90702032248E+02 0.  0.
         11    1    3    3    0    0  0.19994922620E+03 -0.44352412050E+02 -0.37692634780E+02  0.20824880367E+03  0.00000000000E+00 0.  1.
        -11    1    3    3    0    0  0.52888969043E+03  0.30532948213E+02 -0.10422664905E+03  0.53992569854E+03  0.00000000000E+00 0. -1.
         22    1    1    2    0    0 -0.72883891663E+03  0.13819463837E+02 -0.37441332103E+03  0.81950135994E+03  0.00000000000E+00 0.  1.
<mgrwt>
<rscale>  0 0.14802055E+04</rscale>
<asrwt>0</asrwt>
<pdfrwt beam="1">  1        1 0.80872558E-01 0.14802055E+04</pdfrwt>
<pdfrwt beam="2">  1       -1 0.16030834E+00 0.14802055E+04</pdfrwt>
<totfact> 0.11642404E+01</totfact>
</mgrwt>
</event>
<event>
 6    1  0.2047711E-005  0.1977435E+04  0.7818608E-02  0.8617244E-01
          2   -1    0    0  501    0  0.00000000000E+00  0.00000000000E+00  0.73542589644E+03  0.73542589644E+03  0.00000000000E+00 0. -1.
         -2   -1    0    0    0  501 -0.00000000000E+00 -0.00000000000E+00 -0.13292463397E+04  0.13292463397E+04  0.00000000000E+00 0.  1.
         23    2    1    2    0    0  0.36997845839E+03 -0.56749672260E+03  0.45146149148E+03  0.81905957045E+03  0.90025062213E+02 0.  0.
         11    1    3    3    0    0  0.26089652291E+03 -0.32574555485E+03  0.29567123150E+03  0.51146714392E+03  0.00000000000E+00 0. -1.
        -11    1    3    3    0    0  0.10908193548E+03 -0.24175116775E+03  0.15579025998E+03  0.30759242653E+03  0.00000000000E+00 0.  1.
         22    1    1    2    0    0 -0.36997845839E+03  0.56749672260E+03 -0.10452819347E+04  0.12456126657E+04  0.00000000000E+00 0.  1.
<mgrwt>
<rscale>  0 0.19774349E+04</rscale>
<asrwt>0</asrwt>
<pdfrwt beam="1">  1        2 0.11314245E+00 0.19774349E+04</pdfrwt>
<pdfrwt beam="2">  1       -2 0.20449944E+00 0.19774349E+04</pdfrwt>
<totfact> 0.44470673E+00</totfact>
</mgrwt>
</event>
<event>
 6    1  0.2047711E-005  0.1569013E+04  0.7818608E-02  0.8839814E-01
          1   -1    0    0  501    0  0.00000000000E+00  0.00000000000E+00  0.33600930841E+04  0.33600930841E+04  0.00000000000E+00 0. -1.
         -1   -1    0    0    0  501 -0.00000000000E+00 -0.00000000000E+00 -0.18316460704E+03  0.18316460704E+03  0.00000000000E+00 0.  1.
         23    2    1    2    0    0 -0.74965604997E+03 -0.21315980702E+03  0.14523057010E+04  0.16507078196E+04  0.90681640441E+02 0.  0.
         11    1    3    3    0    0 -0.39628474896E+03 -0.88904789084E+02  0.83748542144E+03  0.93076715397E+03  0.00000000000E+00 0. -1.
        -11    1    3    3    0    0 -0.35337130101E+03 -0.12425501793E+03  0.61482027959E+03  0.71994066565E+03  0.00000000000E+00 0.  1.
         22    1    1    2    0    0  0.74965604997E+03  0.21315980702E+03  0.17246227760E+04  0.18925498715E+04  0.00000000000E+00 0. -1.
<mgrwt>
<rscale>  0 0.15690126E+04</rscale>
<asrwt>0</asrwt>
<pdfrwt beam="1">  1        1 0.51693735E+00 0.15690126E+04</pdfrwt>
<pdfrwt beam="2">  1       -1 0.28179173E-01 0.15690126E+04</pdfrwt>
<totfact> 0.35488572E+00</totfact>
</mgrwt>
</event>
<event>
 6    1  0.2047711E-005  0.1763777E+04  0.7818608E-02  0.8725803E-01
         -2   -1    0    0    0  501 -0.00000000000E+00  0.00000000000E+00  0.23700897373E+03  0.23700897373E+03  0.00000000000E+00 0.  1.
          2   -1    0    0  501    0  0.00000000000E+00 -0.00000000000E+00 -0.32814242875E+04  0.32814242875E+04  0.00000000000E+00 0. -1.
         23    2    1    2    0    0  0.54065345145E+03  0.21764833849E+02 -0.29095237135E+04  0.29607813928E+04  0.90101907057E+02 0.  0.
         11    1    3    3    0    0  0.50325690107E+03  0.42261540219E+02 -0.26342851693E+04  0.26822587309E+04  0.00000000000E+00 0.  1.
        -11    1    3    3    0    0  0.37396550374E+02 -0.20496706369E+02 -0.27523854422E+03  0.27852266187E+03  0.00000000000E+00 0. -1.
         22    1    1    2    0    0 -0.54065345145E+03 -0.21764833849E+02 -0.13489160022E+03  0.55765186843E+03  0.00000000000E+00 0.  1.
<mgrwt>
<rscale>  0 0.17637766E+04</rscale>
<asrwt>0</asrwt>
<pdfrwt beam="1">  1        2 0.50483448E+00 0.17637766E+04</pdfrwt>
<pdfrwt beam="2">  1       -2 0.36462921E-01 0.17637766E+04</pdfrwt>
<totfact> 0.77340276E+00</totfact>
</mgrwt>
</event>
<event>
 6    1  0.2047711E-005  0.3649561E+04  0.7818608E-02  0.8079233E-01
         -1   -1    0    0    0  501 -0.00000000000E+00  0.00000000000E+00  0.20167918903E+04  0.20167918903E+04  0.00000000000E+00 0.  1.
          1   -1    0    0  501    0  0.00000000000E+00 -0.00000000000E+00 -0.16510494667E+04  0.16510494667E+04  0.00000000000E+00 0. -1.
         23    2    1    2    0    0  0.34194592676E+03  0.16195459484E+04  0.95221949922E+03  0.19117629260E+04  0.90881322014E+02 0.  0.
         11    1    3    3    0    0  0.19203276484E+03  0.83564937426E+03  0.44380142372E+03  0.96547716864E+03  0.00000000000E+00 0. -1.
        -11    1    3    3    0    0  0.14991316191E+03  0.78389657415E+03  0.50841807550E+03  0.94628575736E+03  0.00000000000E+00 0.  1.
         22    1    1    2    0    0 -0.34194592676E+03 -0.16195459484E+04 -0.58647707559E+03  0.17560784311E+04  0.00000000000E+00 0. -1.
<mgrwt>
<rscale>  0 0.36495606E+04</rscale>
<asrwt>0</asrwt>
<pdfrwt beam="1">  1        1 0.25400761E+00 0.36495606E+04</pdfrwt>
<pdfrwt beam="2">  1       -1 0.31027568E+00 0.36495606E+04</pdfrwt>
<totfact> 0.11744062E-01</totfact>
</mgrwt>
</event>
<event>
 6    1  0.2244684E-005  0.2995841E+04  0.7818608E-02  0.8244920E-01
          2   -1    0    0  501    0  0.00000000000E+00  0.00000000000E+00  0.20321443030E+04  0.20321443030E+04  0.00000000000E+00 0. -1.
         -2   -1    0    0    0  501 -0.00000000000E+00 -0.00000000000E+00 -0.11041367853E+04  0.11041367853E+04  0.00000000000E+00 0.  1.
         23    2    1    2    0    0 -0.33667243200E+03 -0.11572802549E+04  0.13933983314E+04  0.18442924953E+04  0.84911621962E+02 0.  0.
         13    1    3    3    0    0 -0.26909509977E+03 -0.78909369522E+03  0.97678663608E+03  0.12842091594E+04  0.00000000000E+00 0. -1.
        -13    1    3    3    0    0 -0.67577332230E+02 -0.36818655966E+03  0.41661169536E+03  0.56008333599E+03  0.00000000000E+00 0.  1.
         22    1    1    2    0    0  0.33667243200E+03  0.11572802549E+04 -0.46539081371E+03  0.12919885929E+04  0.00000000000E+00 0.  1.
<mgrwt>
<rscale>  0 0.29958406E+04</rscale>
<asrwt>0</asrwt>
<pdfrwt beam="1">  1        2 0.31263758E+00 0.29958406E+04</pdfrwt>
<pdfrwt beam="2">  1       -2 0.16986720E+00 0.29958406E+04</pdfrwt>
<totfact> 0.11727638E+00</totfact>
</mgrwt>
</event>
<event>
 6    1  0.2047711E-005  0.1800665E+04  0.7818608E-02  0.8705946E-01
          2   -1    0    0  501    0  0.00000000000E+00  0.00000000000E+00  0.52420529042E+03  0.52420529042E+03  0.00000000000E+00 0. -1.
         -2   -1    0    0    0  501 -0.00000000000E+00 -0.00000000000E+00 -0.15463381123E+04  0.15463381123E+04  0.00000000000E+00 0.  1.
         23    2    1    2    0    0  0.60081151728E+03 -0.23856081055E+03 -0.12291177469E+04  0.13917735604E+04  0.91746761755E+02 0.  0.
         11    1    3    3    0    0  0.81435122985E+02 -0.37666775915E+01 -0.18616847471E+03  0.20323525308E+03  0.00000000000E+00 0. -1.
        -11    1    3    3    0    0  0.51937639430E+03 -0.23479413296E+03 -0.10429492721E+04  0.11885383074E+04  0.00000000000E+00 0.  1.
         22    1    1    2    0    0 -0.60081151728E+03  0.23856081055E+03  0.20698492497E+03  0.67876984228E+03  0.00000000000E+00 0. -1.
<mgrwt>
<rscale>  0 0.18006650E+04</rscale>
<asrwt>0</asrwt>
<pdfrwt beam="1">  1        2 0.80646967E-01 0.18006650E+04</pdfrwt>
<pdfrwt beam="2">  1       -2 0.23789817E+00 0.18006650E+04</pdfrwt>
<totfact> 0.41970477E+00</totfact>
</mgrwt>
</event>
<event>
 6    1  0.2047711E-005  0.7242674E+03  0.7818608E-02  0.9676609E-01
          2   -1    0    0  501    0  0.00000000000E+00  0.00000000000E+00  0.14599646975E+04  0.14599646975E+04  0.00000000000E+00 0.  1.
         -2   -1    0    0    0  501 -0.00000000000E+00 -0.00000000000E+00 -0.89824656130E+02  0.89824656130E+02  0.00000000000E+00 0. -1.
         23    2    1    2    0    0  0.14562938405E+03 -0.28993072386E+03  0.10118317579E+04  0.10664131356E+04  0.90364414319E+02 0.  0.
         13    1    3    3    0    0  0.10123500816E+03 -0.11884488894E+03  0.55634299309E+03  0.57783229441E+03  0.00000000000E+00 0. -1.
        -13    1    3    3    0    0  0.44394375886E+02 -0.17108583492E+03  0.45548876481E+03  0.48858084120E+03  0.00000000000E+00 0.  1.
         22    1    1    2    0    0 -0.14562938405E+03  0.28993072386E+03  0.35830828344E+03  0.48337621799E+03  0.00000000000E+00 0. -1.
<mgrwt>
<rscale>  0 0.72426743E+03</rscale>
<asrwt>0</asrwt>
<pdfrwt beam="1">  1        2 0.22460994E+00 0.72426743E+03</pdfrwt>
<pdfrwt beam="2">  1       -2 0.13819179E-01 0.72426743E+03</pdfrwt>
<totfact> 0.54501489E+02</totfact>
</mgrwt>
</event>
<event>
 6    1  0.2047711E-005  0.2133388E+04  0.7818608E-02  0.8546677E-01
          2   -1    0    0  501    0  0.00000000000E+00  0.00000000000E+00  0.32714927527E+04  0.32714927527E+04  0.00000000000E+00 0. -1.
         -2   -1    0    0    0  501 -0.00000000000E+00 -0.00000000000E+00 -0.34780344683E+03  0.34780344683E+03  0.00000000000E+00 0.  1.
         23    2    1    2    0    0 -0.33927183118E+03 -0.99929811698E+03  0.12233151424E+04  0.16180529865E+04  0.88844962521E+02 0.  0.
         11    1    3    3    0    0 -0.31426076247E+02 -0.20111651568E+03  0.23278003227E+03  0.30922806240E+03  0.00000000000E+00 0. -1.
        -11    1    3    3    0    0 -0.30784575493E+03 -0.79818160130E+03  0.99053511017E+03  0.13088249241E+04  0.00000000000E+00 0.  1.
         22    1    1    2    0    0  0.33927183118E+03  0.99929811698E+03  0.17003741634E+04  0.20012432130E+04  0.00000000000E+00 0. -1.
<mgrwt>
<rscale>  0 0.21333883E+04</rscale>
<asrwt>0</asrwt>
<pdfrwt beam="1">  1        2 0.50330656E+00 0.21333883E+04</pdfrwt>
<pdfrwt beam="2">  1       -2 0.53508225E-01 0.21333883E+04</pdfrwt>
<totfact> 0.35300327E+00</totfact>
</mgrwt>
</event>
<event>
 6    1  0.2047711E-005  0.5314188E+04  0.7818608E-02  0.7781788E-01
          2   -1    0    0  501    0  0.00000000000E+00  0.00000000000E+00  0.37864577276E+04  0.37864577276E+04  0.00000000000E+00 0. -1.
         -2   -1    0    0    0  501 -0.00000000000E+00 -0.00000000000E+00 -0.18645786040E+04  0.18645786040E+04  0.00000000000E+00 0.  1.
         23    2    1    2    0    0 -0.20028876048E+02 -0.22195292359E+04  0.25129329003E+04  0.33540696902E+04  0.90777422391E+02 0.  0.
         13    1    3    3    0    0  0.22558962386E+02 -0.16768440682E+04  0.19123966858E+04  0.25435361252E+04  0.00000000000E+00 0.  1.
        -13    1    3    3    0    0 -0.42587838434E+02 -0.54268516763E+03  0.60053621447E+03  0.81053356502E+03  0.00000000000E+00 0. -1.
         22    1    1    2    0    0  0.20028876048E+02  0.22195292359E+04 -0.59105377678E+03  0.22969666414E+04  0.00000000000E+00 0.  1.
<mgrwt>
<rscale>  0 0.53141878E+04</rscale>
<asrwt>0</asrwt>
<pdfrwt beam="1">  1        2 0.58253195E+00 0.53141878E+04</pdfrwt>
<pdfrwt beam="2">  1       -2 0.28685825E+00 0.53141878E+04</pdfrwt>
<totfact> 0.13609920E-02</totfact>
</mgrwt>
</event>
<event>
 6    1  0.2047711E-005  0.1275462E+04  0.7818608E-02  0.9049253E-01
          2   -1    0    0  501    0  0.00000000000E+00  0.00000000000E+00  0.29158973045E+03  0.29158973045E+03  0.00000000000E+00 0. -1.
         -2   -1    0    0    0  501 -0.00000000000E+00 -0.00000000000E+00 -0.13947711718E+04  0.13947711718E+04  0.00000000000E+00 0.  1.
         23    2    1    2    0    0 -0.42926228465E+03 -0.40734033258E+03 -0.25173016659E+03  0.64946094137E+03  0.90769940040E+02 0.  0.
         11    1    3    3    0    0 -0.19286496222E+03 -0.15895787931E+03 -0.61713266873E+02  0.25743548388E+03  0.00000000000E+00 0. -1.
        -11    1    3    3    0    0 -0.23639732243E+03 -0.24838245327E+03 -0.19001689972E+03  0.39202545749E+03  0.00000000000E+00 0.  1.
         22    1    1    2    0    0  0.42926228465E+03  0.40734033258E+03 -0.85145127476E+03  0.10368999609E+04  0.00000000000E+00 0.  1.
<mgrwt>
<rscale>  0 0.12754622E+04</rscale>
<asrwt>0</asrwt>
<pdfrwt beam="1">  1        2 0.44859958E-01 0.12754622E+04</pdfrwt>
<pdfrwt beam="2">  1       -2 0.21458018E+00 0.12754622E+04</pdfrwt>
<totfact> 0.11904265E+01</totfact>
</mgrwt>
</event>
<event>
 6    1  0.2047711E-005  0.4324280E+04  0.7818608E-02  0.7942144E-01
         -2   -1    0    0    0  501 -0.00000000000E+00  0.00000000000E+00  0.25327488105E+04  0.25327488105E+04  0.00000000000E+00 0.  1.
          2   -1    0    0  501    0  0.00000000000E+00 -0.00000000000E+00 -0.18457615031E+04  0.18457615031E+04  0.00000000000E+00 0. -1.
         23    2    1    2    0    0  0.14318055113E+04  0.10343816839E+03  0.19794175875E+04  0.24468937611E+04  0.91807491603E+02 0.  0.
         13    1    3    3    0    0  0.13339639858E+04  0.81218437040E+02  0.18696113255E+04  0.22981520529E+04  0.00000000000E+00 0.  1.
        -13    1    3    3    0    0  0.97841525546E+02  0.22219731347E+02  0.10980626197E+03  0.14874170817E+03  0.00000000000E+00 0. -1.
         22    1    1    2    0    0 -0.14318055113E+04 -0.10343816839E+03 -0.12924302800E+04  0.19316165525E+04  0.00000000000E+00 0. -1.
<mgrwt>
<rscale>  0 0.43242804E+04</rscale>
<asrwt>0</asrwt>
<pdfrwt beam="1">  1        2 0.28396331E+00 0.43242804E+04</pdfrwt>
<pdfrwt beam="2">  1       -2 0.38965366E+00 0.43242804E+04</pdfrwt>
<totfact> 0.54219063E-02</totfact>
</mgrwt>
</event>
<event>
 6    1  0.2047711E-005  0.3172086E+04  0.7818608E-02  0.8196228E-01
         -2   -1    0    0    0  501 -0.00000000000E+00  0.00000000000E+00  0.11267270763E+04  0.11267270763E+04  0.00000000000E+00 0.  1.
          2   -1    0    0  501    0  0.00000000000E+00 -0.00000000000E+00 -0.22326012765E+04  0.22326012765E+04  0.00000000000E+00 0. -1.
         23    2    1    2    0    0  0.94712724652E+03  0.11447057163E+04  0.30890890914E+02  0.14885969263E+04  0.86979099494E+02 0.  0.
         11    1    3    3    0    0  0.82493003190E+03  0.98053834473E+03 -0.15204653627E+01  0.12813927247E+04  0.00000000000E+00 0. -1.
        -11    1    3    3    0    0  0.12219721462E+03  0.16416737154E+03  0.32411356277E+02  0.20720420159E+03  0.00000000000E+00 0.  1.
         22    1    1    2    0    0 -0.94712724652E+03 -0.11447057163E+04 -0.11367650911E+04  0.18707314265E+04  0.00000000000E+00 0. -1.
<mgrwt>
<rscale>  0 0.31720859E+04</rscale>
<asrwt>0</asrwt>
<pdfrwt beam="1">  1        2 0.34347712E+00 0.31720859E+04</pdfrwt>
<pdfrwt beam="2">  1       -2 0.17334263E+00 0.31720859E+04</pdfrwt>
<totfact> 0.84317503E-01</totfact>
</mgrwt>
</event>
<event>
 6    1  0.2047711E-005  0.1646805E+04  0.7818608E-02  0.8792299E-01
          2   -1    0    0  501    0  0.00000000000E+00  0.00000000000E+00  0.21641710944E+04  0.21641710944E+04  0.00000000000E+00 0. -1.
         -2   -1    0    0    0  501 -0.00000000000E+00 -0.00000000000E+00 -0.31328019698E+03  0.31328019698E+03  0.00000000000E+00 0.  1.
         23    2    1    2    0    0 -0.18426275347E+03  0.20285293174E+03  0.20923522717E+04  0.21122038827E+04  0.91461135024E+02 0.  0.
         11    1    3    3    0    0 -0.17043796381E+03  0.12956068980E+03  0.15879187575E+04  0.16022861955E+04  0.00000000000E+00 0.  1.
        -11    1    3    3    0    0 -0.13824789661E+02  0.73292241933E+02  0.50443351414E+03  0.50991768720E+03  0.00000000000E+00 0. -1.
         22    1    1    2    0    0  0.18426275347E+03 -0.20285293174E+03 -0.24146137428E+03  0.36524740862E+03  0.00000000000E+00 0.  1.
<mgrwt>
<rscale>  0 0.16468053E+04</rscale>
<asrwt>0</asrwt>
<pdfrwt beam="1">  1        2 0.33294939E+00 0.16468053E+04</pdfrwt>
<pdfrwt beam="2">  1       -2 0.48196955E-01 0.16468053E+04</pdfrwt>
<totfact> 0.21087857E+01</totfact>
</mgrwt>
</event>
<event>
 6    1  0.2047711E-005  0.3322074E+04  0.7818608E-02  0.8157301E-01
         -2   -1    0    0    0  501 -0.00000000000E+00  0.00000000000E+00  0.15264020438E+04  0.15264020438E+04  0.00000000000E+00 0.  1.
          2   -1    0    0  501    0  0.00000000000E+00 -0.00000000000E+00 -0.18075473447E+04  0.18075473447E+04  0.00000000000E+00 0. -1.
         23    2    1    2    0    0  0.89776731931E+02 -0.12260986696E+04 -0.12596440868E+04  0.17626958498E+04  0.94950642985E+02 0.  0.
         11    1    3    3    0    0  0.90175763863E+02 -0.99970764920E+03 -0.10727340333E+04  0.14691172038E+04  0.00000000000E+00 0. -1.
        -11    1    3    3    0    0 -0.39903193123E+00 -0.22639102036E+03 -0.18691005341E+03  0.29357864601E+03  0.00000000000E+00 0.  1.
         22    1    1    2    0    0 -0.89776731931E+02  0.12260986696E+04  0.97849878580E+03  0.15712535387E+04  0.00000000000E+00 0.  1.
<mgrwt>
<rscale>  0 0.33220740E+04</rscale>
<asrwt>0</asrwt>
<pdfrwt beam="1">  1        2 0.27808421E+00 0.33220740E+04</pdfrwt>
<pdfrwt beam="2">  1       -2 0.23483108E+00 0.33220740E+04</pdfrwt>
<totfact> 0.56831431E-01</totfact>
</mgrwt>
</event>
<event>
 6    1  0.2047711E-005  0.1716656E+04  0.7818608E-02  0.8751922E-01
         -2   -1    0    0    0  501 -0.00000000000E+00  0.00000000000E+00  0.37138834118E+03  0.37138834118E+03  0.00000000000E+00 0.  1.
          2   -1    0    0  501    0  0.00000000000E+00 -0.00000000000E+00 -0.19837099670E+04  0.19837099670E+04  0.00000000000E+00 0. -1.
         23    2    1    2    0    0  0.66902898494E+03  0.15410179842E+03 -0.15097685700E+04  0.16609338635E+04  0.89179690719E+02 0.  0.
         13    1    3    3    0    0  0.34739192961E+03  0.10629729456E+03 -0.88359144862E+03  0.95536072542E+03  0.00000000000E+00 0.  1.
        -13    1    3    3    0    0  0.32163705533E+03  0.47804503854E+02 -0.62617712135E+03  0.70557313813E+03  0.00000000000E+00 0. -1.
         22    1    1    2    0    0 -0.66902898494E+03 -0.15410179842E+03 -0.10255305588E+03  0.69416444466E+03  0.00000000000E+00 0.  1.
<mgrwt>
<rscale>  0 0.17166558E+04</rscale>
<asrwt>0</asrwt>
<pdfrwt beam="1">  1        2 0.30518615E+00 0.17166558E+04</pdfrwt>
<pdfrwt beam="2">  1       -2 0.57136667E-01 0.17166558E+04</pdfrwt>
<totfact> 0.18614148E+01</totfact>
</mgrwt>
</event>
<event>
 6    1  0.2047711E-005  0.8472471E+03  0.7818608E-02  0.9494039E-01
          2   -1    0    0  501    0  0.00000000000E+00  0.00000000000E+00  0.12965388911E+03  0.12965388911E+03  0.00000000000E+00 0. -1.
         -2   -1    0    0    0  501 -0.00000000000E+00 -0.00000000000E+00 -0.13841228691E+04  0.13841228691E+04  0.00000000000E+00 0.  1.
         23    2    1    2    0    0  0.37910202672E+03 -0.30291297799E+01 -0.95162969999E+03  0.10285560334E+04  0.92741067452E+02 0.  0.
         13    1    3    3    0    0  0.12259414058E+03 -0.19086237294E+02 -0.21313900930E+03  0.24662085282E+03  0.00000000000E+00 0. -1.
        -13    1    3    3    0    0  0.25650788614E+03  0.16057107514E+02 -0.73849069069E+03  0.78193518055E+03  0.00000000000E+00 0.  1.
         22    1    1    2    0    0 -0.37910202672E+03  0.30291297799E+01 -0.30283928000E+03  0.48522072482E+03  0.00000000000E+00 0. -1.
<mgrwt>
<rscale>  0 0.84724710E+03</rscale>
<asrwt>0</asrwt>
<pdfrwt beam="1">  1        2 0.19946752E-01 0.84724710E+03</pdfrwt>
<pdfrwt beam="2">  1       -2 0.21294198E+00 0.84724710E+03</pdfrwt>
<totfact> 0.31642370E+01</totfact>
</mgrwt>
</event>
<event>
 6    1  0.2047711E-005  0.1241051E+04  0.7818608E-02  0.9077664E-01
         -2   -1    0    0    0  501 -0.00000000000E+00  0.00000000000E+00  0.22325313207E+03  0.22325313207E+03  0.00000000000E+00 0. -1.
          2   -1    0    0  501    0  0.00000000000E+00 -0.00000000000E+00 -0.17247327011E+04  0.17247327011E+04  0.00000000000E+00 0.  1.
         23    2    1    2    0    0  0.34839215302E+03  0.40736620103E+03 -0.27456780364E+03  0.60909196356E+03  0.91001248575E+02 0.  0.
         11    1    3    3    0    0  0.14500159164E+03  0.22569142304E+03 -0.10571918830E+03  0.28833769574E+03  0.00000000000E+00 0.  1.
        -11    1    3    3    0    0  0.20339056139E+03  0.18167477800E+03 -0.16884861534E+03  0.32075426782E+03  0.00000000000E+00 0. -1.
         22    1    1    2    0    0 -0.34839215302E+03 -0.40736620103E+03 -0.12269117654E+04  0.13388938696E+04  0.00000000000E+00 0.  1.
<mgrwt>
<rscale>  0 0.12410511E+04</rscale>
<asrwt>0</asrwt>
<pdfrwt beam="1">  1        2 0.26534348E+00 0.12410511E+04</pdfrwt>
<pdfrwt beam="2">  1       -2 0.34346637E-01 0.12410511E+04</pdfrwt>
<totfact> 0.74248675E+01</totfact>
</mgrwt>
</event>
<event>
 6    1  0.2047711E-005  0.1108873E+04  0.7818608E-02  0.9196587E-01
         -1   -1    0    0    0  501 -0.00000000000E+00  0.00000000000E+00  0.95538405638E+03  0.95538405638E+03  0.00000000000E+00 0.  1.
          1   -1    0    0  501    0  0.00000000000E+00 -0.00000000000E+00 -0.32175520300E+03  0.32175520300E+03  0.00000000000E+00 0. -1.
         23    2    1    2    0    0 -0.19724554901E+03 -0.12999091653E+03 -0.25389970481E+03  0.35871104412E+03  0.91679376556E+02 0.  0.
         11    1    3    3    0    0 -0.11155522941E+03 -0.63691832863E+02 -0.72731936325E+02  0.14761826900E+03  0.00000000000E+00 0. -1.
        -11    1    3    3    0    0 -0.85690319600E+02 -0.66299083671E+02 -0.18116776849E+03  0.21109277512E+03  0.00000000000E+00 0.  1.
         22    1    1    2    0    0  0.19724554901E+03  0.12999091653E+03  0.88752855819E+03  0.91842821526E+03  0.00000000000E+00 0.  1.
<mgrwt>
<rscale>  0 0.11088729E+04</rscale>
<asrwt>0</asrwt>
<pdfrwt beam="1">  1        1 0.49500801E-01 0.11088729E+04</pdfrwt>
<pdfrwt beam="2">  1       -1 0.14698216E+00 0.11088729E+04</pdfrwt>
<totfact> 0.29360954E+01</totfact>
</mgrwt>
</event>
<event>
 6    1  0.2047711E-005  0.1298586E+04  0.7818608E-02  0.9030688E-01
         -2   -1    0    0    0  501 -0.00000000000E+00  0.00000000000E+00  0.22516039189E+03  0.22516039189E+03  0.00000000000E+00 0.  1.
          2   -1    0    0  501    0  0.00000000000E+00 -0.00000000000E+00 -0.18723592554E+04  0.18723592554E+04  0.00000000000E+00 0. -1.
         23    2    1    2    0    0 -0.61688634980E+03 -0.16986937225E+03 -0.97306325152E+03  0.11680772362E+04  0.90266084894E+02 0.  0.
         13    1    3    3    0    0 -0.38657465241E+03 -0.85637949934E+02 -0.66967901025E+03  0.77797416225E+03  0.00000000000E+00 0.  1.
        -13    1    3    3    0    0 -0.23031169739E+03 -0.84231422312E+02 -0.30338424127E+03  0.39010307395E+03  0.00000000000E+00 0. -1.
         22    1    1    2    0    0  0.61688634980E+03  0.16986937225E+03 -0.67413561200E+03  0.92944241111E+03  0.00000000000E+00 0.  1.
<mgrwt>
<rscale>  0 0.12985856E+04</rscale>
<asrwt>0</asrwt>
<pdfrwt beam="1">  1        2 0.28805527E+00 0.12985856E+04</pdfrwt>
<pdfrwt beam="2">  1       -2 0.34640060E-01 0.12985856E+04</pdfrwt>
<totfact> 0.60275857E+01</totfact>
</mgrwt>
</event>
<event>
 6    1  0.2047711E-005  0.3329307E+04  0.7818608E-02  0.8155478E-01
          2   -1    0    0  501    0  0.00000000000E+00  0.00000000000E+00  0.20419601531E+04  0.20419601531E+04  0.00000000000E+00 0. -1.
         -2   -1    0    0    0  501 -0.00000000000E+00 -0.00000000000E+00 -0.13570641560E+04  0.13570641560E+04  0.00000000000E+00 0.  1.
         23    2    1    2    0    0 -0.47053566552E+03 -0.64407993411E+03 -0.11475652567E+04  0.14004855877E+04  0.90615059460E+02 0.  0.
         13    1    3    3    0    0 -0.31397399173E+03 -0.37012130495E+03 -0.64800174032E+03  0.80961453996E+03  0.00000000000E+00 0. -1.
        -13    1    3    3    0    0 -0.15656167379E+03 -0.27395862916E+03 -0.49956351636E+03  0.59087104776E+03  0.00000000000E+00 0.  1.
         22    1    1    2    0    0  0.47053566552E+03  0.64407993411E+03  0.18324612538E+04  0.19985387214E+04  0.00000000000E+00 0. -1.
<mgrwt>
<rscale>  0 0.33293068E+04</rscale>
<asrwt>0</asrwt>
<pdfrwt beam="1">  1        2 0.31414772E+00 0.33293068E+04</pdfrwt>
<pdfrwt beam="2">  1       -2 0.20877910E+00 0.33293068E+04</pdfrwt>
<totfact> 0.61514067E-01</totfact>
</mgrwt>
</event>
<event>
 6    1  0.2047711E-005  0.4875803E+04  0.7818608E-02  0.7847957E-01
          2   -1    0    0  501    0  0.00000000000E+00  0.00000000000E+00  0.29985511535E+04  0.29985511535E+04  0.00000000000E+00 0. -1.
         -2   -1    0    0    0  501 -0.00000000000E+00 -0.00000000000E+00 -0.19820785843E+04  0.19820785843E+04  0.00000000000E+00 0.  1.
         23    2    1    2    0    0 -0.27239470823E+03  0.15794923298E+04 -0.13667900311E+04  0.21085337229E+04  0.93832693958E+02 0.  0.
         11    1    3    3    0    0 -0.25040481822E+03  0.13200709533E+04 -0.11093968523E+04  0.17424268336E+04  0.00000000000E+00 0. -1.
        -11    1    3    3    0    0 -0.21989890006E+02  0.25942137646E+03 -0.25739317884E+03  0.36610688923E+03  0.00000000000E+00 0.  1.
         22    1    1    2    0    0  0.27239470823E+03 -0.15794923298E+04  0.23832626004E+04  0.28720960149E+04  0.00000000000E+00 0. -1.
<mgrwt>
<rscale>  0 0.48758031E+04</rscale>
<asrwt>0</asrwt>
<pdfrwt beam="1">  1        2 0.46131556E+00 0.48758031E+04</pdfrwt>
<pdfrwt beam="2">  1       -2 0.30493517E+00 0.48758031E+04</pdfrwt>
<totfact> 0.38010306E-02</totfact>
</mgrwt>
</event>
<event>
 6    1  0.2047711E-005  0.1510179E+04  0.7818608E-02  0.8877712E-01
          2   -1    0    0  501    0  0.00000000000E+00  0.00000000000E+00  0.36817438461E+03  0.36817438461E+03  0.00000000000E+00 0. -1.
         -2   -1    0    0    0  501 -0.00000000000E+00 -0.00000000000E+00 -0.15486142370E+04  0.15486142370E+04  0.00000000000E+00 0.  1.
         23    2    1    2    0    0 -0.35573838528E+03  0.75650124011E+02 -0.14282267213E+04  0.14767078649E+04  0.92530053037E+02 0.  0.
         13    1    3    3    0    0 -0.26269745087E+03  0.86879155575E+02 -0.11613124281E+04  0.11938192887E+04  0.00000000000E+00 0. -1.
        -13    1    3    3    0    0 -0.93040934403E+02 -0.11229031564E+02 -0.26691429323E+03  0.28288857621E+03  0.00000000000E+00 0.  1.
         22    1    1    2    0    0  0.35573838528E+03 -0.75650124011E+02  0.24778686894E+03  0.44008075672E+03  0.00000000000E+00 0. -1.
<mgrwt>
<rscale>  0 0.15101789E+04</rscale>
<asrwt>0</asrwt>
<pdfrwt beam="1">  1        2 0.56642213E-01 0.15101789E+04</pdfrwt>
<pdfrwt beam="2">  1       -2 0.23824834E+00 0.15101789E+04</pdfrwt>
<totfact> 0.64021003E+00</totfact>
</mgrwt>
</event>
<event>
 6    1  0.2047711E-005  0.1415335E+04  0.7818608E-02  0.8942792E-01
          2   -1    0    0  501    0  0.00000000000E+00  0.00000000000E+00  0.19696995742E+04  0.19696995742E+04  0.00000000000E+00 0. -1.
         -2   -1    0    0    0  501 -0.00000000000E+00 -0.00000000000E+00 -0.25424871276E+03  0.25424871276E+03  0.00000000000E+00 0.  1.
         23    2    1    2    0    0  0.43804480269E+03  0.33713450440E+03  0.15495118455E+04  0.16468185959E+04  0.74037864678E+02 0.  0.
         11    1    3    3    0    0  0.29353121880E+03  0.23662235298E+03  0.95283296729E+03  0.10247152667E+04  0.00000000000E+00 0. -1.
        -11    1    3    3    0    0  0.14451358389E+03  0.10051215142E+03  0.59667887819E+03  0.62210332920E+03  0.00000000000E+00 0.  1.
         22    1    1    2    0    0 -0.43804480269E+03 -0.33713450440E+03  0.16593901592E+03  0.57712969099E+03  0.00000000000E+00 0.  1.
<mgrwt>
<rscale>  0 0.14153354E+04</rscale>
<asrwt>0</asrwt>
<pdfrwt beam="1">  1        2 0.30303069E+00 0.14153354E+04</pdfrwt>
<pdfrwt beam="2">  1       -2 0.39115188E-01 0.14153354E+04</pdfrwt>
<totfact> 0.41743958E+01</totfact>
</mgrwt>
</event>
<event>
 6    1  0.2047711E-005  0.2244444E+04  0.7818608E-02  0.8500154E-01
         -2   -1    0    0    0  501 -0.00000000000E+00  0.00000000000E+00  0.37827371061E+03  0.37827371061E+03  0.00000000000E+00 0.  1.
          2   -1    0    0  501    0  0.00000000000E+00 -0.00000000000E+00 -0.33292888351E+04  0.33292888351E+04  0.00000000000E+00 0. -1.
         23    2    1    2    0    0 -0.55911745943E+01 -0.61780372709E+03 -0.30218094245E+04  0.30856907427E+04  0.91882835567E+02 0.  0.
         13    1    3    3    0    0  0.74685796543E+01 -0.47868242871E+03 -0.21414575230E+04  0.21943183384E+04  0.00000000000E+00 0. -1.
        -13    1    3    3    0    0 -0.13059754249E+02 -0.13912129839E+03 -0.88035190145E+03  0.89137240435E+03  0.00000000000E+00 0.  1.
         22    1    1    2    0    0  0.55911745943E+01  0.61780372709E+03  0.70794299970E+02  0.62187180299E+03  0.00000000000E+00 0.  1.
<mgrwt>
<rscale>  0 0.22444442E+04</rscale>
<asrwt>0</asrwt>
<pdfrwt beam="1">  1        2 0.51219831E+00 0.22444442E+04</pdfrwt>
<pdfrwt beam="2">  1       -2 0.58195952E-01 0.22444442E+04</pdfrwt>
<totfact> 0.26844426E+00</totfact>
</mgrwt>
</event>
<event>
 6    1  0.2047711E-005  0.2667186E+04  0.7818608E-02  0.8345731E-01
          2   -1    0    0  501    0  0.00000000000E+00  0.00000000000E+00  0.19663875709E+04  0.19663875709E+04  0.00000000000E+00 0. -1.
         -2   -1    0    0    0  501 -0.00000000000E+00 -0.00000000000E+00 -0.90443528381E+03  0.90443528381E+03  0.00000000000E+00 0.  1.
         23    2    1    2    0    0 -0.43271893564E+03  0.12495647709E+04  0.70487286284E+03  0.15010916734E+04  0.88162720604E+02 0.  0.
         11    1    3    3    0    0 -0.29357262603E+03  0.77031467767E+03  0.47779396912E+03  0.95281512703E+03  0.00000000000E+00 0. -1.
        -11    1    3    3    0    0 -0.13914630961E+03  0.47925009319E+03  0.22707889373E+03  0.54827654635E+03  0.00000000000E+00 0.  1.
         22    1    1    2    0    0  0.43271893564E+03 -0.12495647709E+04  0.35707942421E+03  0.13697311813E+04  0.00000000000E+00 0.  1.
<mgrwt>
<rscale>  0 0.26671860E+04</rscale>
<asrwt>0</asrwt>
<pdfrwt beam="1">  1        2 0.30252116E+00 0.26671860E+04</pdfrwt>
<pdfrwt beam="2">  1       -2 0.13914389E+00 0.26671860E+04</pdfrwt>
<totfact> 0.22393047E+00</totfact>
</mgrwt>
</event>
<event>
 6    1  0.2047711E-005  0.2054527E+04  0.7818608E-02  0.8581543E-01
          2   -1    0    0  501    0  0.00000000000E+00  0.00000000000E+00  0.18104699595E+04  0.18104699595E+04  0.00000000000E+00 0. -1.
         -2   -1    0    0    0  501 -0.00000000000E+00 -0.00000000000E+00 -0.58287094837E+03  0.58287094837E+03  0.00000000000E+00 0.  1.
         23    2    1    2    0    0  0.81342144887E+03  0.61165371016E+03  0.47117646152E+03  0.11252913078E+04  0.92187607137E+02 0.  0.
         13    1    3    3    0    0  0.38803778297E+03  0.32262032156E+03  0.19047880980E+03  0.53938795860E+03  0.00000000000E+00 0. -1.
        -13    1    3    3    0    0  0.42538366589E+03  0.28903338860E+03  0.28069765172E+03  0.58590334921E+03  0.00000000000E+00 0.  1.
         22    1    1    2    0    0 -0.81342144887E+03 -0.61165371016E+03  0.75642254957E+03  0.12680496000E+04  0.00000000000E+00 0. -1.
<mgrwt>
<rscale>  0 0.20545270E+04</rscale>
<asrwt>0</asrwt>
<pdfrwt beam="1">  1        2 0.27853384E+00 0.20545270E+04</pdfrwt>
<pdfrwt beam="2">  1       -2 0.89672455E-01 0.20545270E+04</pdfrwt>
<totfact> 0.83926324E+00</totfact>
</mgrwt>
</event>
<event>
 6    1  0.2047711E-005  0.5392101E+04  0.7818608E-02  0.7770713E-01
         -2   -1    0    0    0  501 -0.00000000000E+00  0.00000000000E+00  0.28865785159E+04  0.28865785159E+04  0.00000000000E+00 0.  1.
          2   -1    0    0  501    0  0.00000000000E+00 -0.00000000000E+00 -0.25180983472E+04  0.25180983472E+04  0.00000000000E+00 0. -1.
         23    2    1    2    0    0  0.25570791463E+04  0.85105861602E+03  0.22110560602E+03  0.27056633784E+04  0.93659488855E+02 0.  0.
         13    1    3    3    0    0  0.11461796153E+04  0.36135223745E+03  0.55999554636E+02  0.12030956322E+04  0.00000000000E+00 0. -1.
        -13    1    3    3    0    0  0.14108995310E+04  0.48970637858E+03  0.16510605139E+03  0.15025677462E+04  0.00000000000E+00 0.  1.
         22    1    1    2    0    0 -0.25570791463E+04 -0.85105861602E+03  0.14737456263E+03  0.26990134846E+04  0.00000000000E+00 0. -1.
<mgrwt>
<rscale>  0 0.53921011E+04</rscale>
<asrwt>0</asrwt>
<pdfrwt beam="1">  1        2 0.38739974E+00 0.53921011E+04</pdfrwt>
<pdfrwt beam="2">  1       -2 0.44408901E+00 0.53921011E+04</pdfrwt>
<totfact> 0.91377766E-03</totfact>
</mgrwt>
</event>
<event>
 6    1  0.2047711E-005  0.5378593E+03  0.7818608E-02  0.1004344E+00
         -2   -1    0    0    0  501 -0.00000000000E+00  0.00000000000E+00  0.60060981169E+02  0.60060981169E+02  0.00000000000E+00 0.  1.
          2   -1    0    0  501    0  0.00000000000E+00 -0.00000000000E+00 -0.12041621696E+04  0.12041621696E+04  0.00000000000E+00 0. -1.
         23    2    1    2    0    0  0.17765586018E+03 -0.15586581688E+03 -0.84892844264E+03  0.88609260799E+03  0.92870079626E+02 0.  0.
         13    1    3    3    0    0  0.26424618141E+02 -0.11441635802E+02 -0.33017810757E+02  0.43810356092E+02  0.00000000000E+00 0.  1.
        -13    1    3    3    0    0  0.15123124204E+03 -0.14442418107E+03 -0.81591063188E+03  0.84228225190E+03  0.00000000000E+00 0. -1.
         22    1    1    2    0    0 -0.17765586018E+03  0.15586581688E+03 -0.29517274583E+03  0.37813054281E+03  0.00000000000E+00 0.  1.
<mgrwt>
<rscale>  0 0.53785932E+03</rscale>
<asrwt>0</asrwt>
<pdfrwt beam="1">  1        2 0.18525572E+00 0.53785932E+03</pdfrwt>
<pdfrwt beam="2">  1       -2 0.92401510E-02 0.53785932E+03</pdfrwt>
<totfact> 0.14870271E+03</totfact>
</mgrwt>
</event>
<event>
 6    1  0.2047711E-005  0.2171473E+04  0.7818608E-02  0.8530396E-01
          2   -1    0    0  501    0  0.00000000000E+00  0.00000000000E+00  0.27677331960E+04  0.27677331960E+04  0.00000000000E+00 0. -1.
         -2   -1    0    0    0  501 -0.00000000000E+00 -0.00000000000E+00 -0.42591664698E+03  0.42591664698E+03  0.00000000000E+00 0.  1.
         23    2    1    2    0    0 -0.90504094718E+02 -0.27081548158E+03  0.27107188421E+04  0.27271512705E+04  0.88461264039E+02 0.  0.
         13    1    3    3    0    0 -0.10399240863E+02 -0.60154540242E+02  0.96742183347E+03  0.96934602531E+03  0.00000000000E+00 0.  1.
        -13    1    3    3    0    0 -0.80104853855E+02 -0.21066094134E+03  0.17432970086E+04  0.17578052452E+04  0.00000000000E+00 0. -1.
         22    1    1    2    0    0  0.90504094718E+02  0.27081548158E+03 -0.36890229309E+03  0.46649857242E+03  0.00000000000E+00 0.  1.
<mgrwt>
<rscale>  0 0.21714729E+04</rscale>
<asrwt>0</asrwt>
<pdfrwt beam="1">  1        2 0.42580510E+00 0.21714729E+04</pdfrwt>
<pdfrwt beam="2">  1       -2 0.65525640E-01 0.21714729E+04</pdfrwt>
<totfact> 0.47575222E+00</totfact>
</mgrwt>
</event>
<event>
 6    1  0.2047711E-005  0.1502748E+04  0.7818608E-02  0.8882627E-01
          2   -1    0    0  501    0  0.00000000000E+00  0.00000000000E+00  0.17042117984E+04  0.17042117984E+04  0.00000000000E+00 0. -1.
         -2   -1    0    0    0  501 -0.00000000000E+00 -0.00000000000E+00 -0.33127525203E+03  0.33127525203E+03  0.00000000000E+00 0.  1.
         23    2    1    2    0    0  0.35917337345E+03 -0.59459177782E+03  0.10667889547E+04  0.12763617364E+04  0.92280625862E+02 0.  0.
         11    1    3    3    0    0  0.22681509421E+03 -0.37926737080E+03  0.75696986646E+03  0.87652279163E+03  0.00000000000E+00 0. -1.
        -11    1    3    3    0    0  0.13235827924E+03 -0.21532440702E+03  0.30981908821E+03  0.39983894478E+03  0.00000000000E+00 0.  1.
         22    1    1    2    0    0 -0.35917337345E+03  0.59459177782E+03  0.30614759165E+03  0.75912531398E+03  0.00000000000E+00 0.  1.
<mgrwt>
<rscale>  0 0.15027484E+04</rscale>
<asrwt>0</asrwt>
<pdfrwt beam="1">  1        2 0.26218643E+00 0.15027484E+04</pdfrwt>
<pdfrwt beam="2">  1       -2 0.50965424E-01 0.15027484E+04</pdfrwt>
<totfact> 0.34283687E+01</totfact>
</mgrwt>
</event>
<event>
 6    1  0.2047711E-005  0.1526225E+04  0.7818608E-02  0.8867199E-01
         -2   -1    0    0    0  501 -0.00000000000E+00  0.00000000000E+00  0.24784756267E+03  0.24784756267E+03  0.00000000000E+00 0.  1.
          2   -1    0    0  501    0  0.00000000000E+00 -0.00000000000E+00 -0.23495910096E+04  0.23495910096E+04  0.00000000000E+00 0. -1.
         23    2    1    2    0    0 -0.48551632899E+03  0.38393080797E+03 -0.30332033823E+03  0.69547783426E+03  0.92505239523E+02 0.  0.
         13    1    3    3    0    0 -0.86888193505E+02  0.10099336977E+03 -0.34569189580E+02  0.13763810438E+03  0.00000000000E+00 0. -1.
        -13    1    3    3    0    0 -0.39862813548E+03  0.28293743820E+03 -0.26875114865E+03  0.55783972988E+03  0.00000000000E+00 0.  1.
         22    1    1    2    0    0  0.48551632899E+03 -0.38393080797E+03 -0.17984231087E+04  0.19019607380E+04  0.00000000000E+00 0. -1.
<mgrwt>
<rscale>  0 0.15262246E+04</rscale>
<asrwt>0</asrwt>
<pdfrwt beam="1">  1        2 0.36147552E+00 0.15262246E+04</pdfrwt>
<pdfrwt beam="2">  1       -2 0.38130397E-01 0.15262246E+04</pdfrwt>
<totfact> 0.26647059E+01</totfact>
</mgrwt>
</event>
<event>
 6    1  0.2047711E-005  0.2952030E+04  0.7818608E-02  0.8257563E-01
          2   -1    0    0  501    0  0.00000000000E+00  0.00000000000E+00  0.31277520670E+04  0.31277520670E+04  0.00000000000E+00 0. -1.
         -2   -1    0    0    0  501 -0.00000000000E+00 -0.00000000000E+00 -0.69654494751E+03  0.69654494751E+03  0.00000000000E+00 0.  1.
         23    2    1    2    0    0 -0.49589899642E+03  0.96556540259E+03 -0.76479088494E+02  0.10917665977E+04  0.88729315556E+02 0.  0.
         11    1    3    3    0    0 -0.28086612259E+03  0.53976034023E+03  0.11889894323E+01  0.60846398200E+03  0.00000000000E+00 0.  1.
        -11    1    3    3    0    0 -0.21503287383E+03  0.42580506237E+03 -0.77668077927E+02  0.48330261565E+03  0.00000000000E+00 0. -1.
         22    1    1    2    0    0  0.49589899642E+03 -0.96556540259E+03  0.25076862080E+04  0.27325304168E+04  0.00000000000E+00 0. -1.
<mgrwt>
<rscale>  0 0.29520297E+04</rscale>
<asrwt>0</asrwt>
<pdfrwt beam="1">  1        2 0.48119262E+00 0.29520297E+04</pdfrwt>
<pdfrwt beam="2">  1       -2 0.10716076E+00 0.29520297E+04</pdfrwt>
<totfact> 0.86825618E-01</totfact>
</mgrwt>
</event>
<event>
 6    1  0.2047711E-005  0.2012711E+04  0.7818608E-02  0.8600701E-01
          2   -1    0    0  501    0  0.00000000000E+00  0.00000000000E+00  0.38940039177E+04  0.38940039177E+04  0.00000000000E+00 0. -1.
         -2   -1    0    0    0  501 -0.00000000000E+00 -0.00000000000E+00 -0.26007965374E+03  0.26007965374E+03  0.00000000000E+00 0.  1.
         23    2    1    2    0    0  0.26007355716E+02  0.89875449940E+03  0.89683330232E+03  0.12730936435E+04  0.89562381315E+02 0.  0.
         13    1    3    3    0    0  0.59046306166E+02  0.61052990597E+03  0.60044762457E+03  0.85835341335E+03  0.00000000000E+00 0. -1.
        -13    1    3    3    0    0 -0.33038950449E+02  0.28822459343E+03  0.29638567775E+03  0.41474023012E+03  0.00000000000E+00 0.  1.
         22    1    1    2    0    0 -0.26007355716E+02 -0.89875449940E+03  0.27370909617E+04  0.28809899280E+04  0.00000000000E+00 0. -1.
<mgrwt>
<rscale>  0 0.20127108E+04</rscale>
<asrwt>0</asrwt>
<pdfrwt beam="1">  1        2 0.59907748E+00 0.20127108E+04</pdfrwt>
<pdfrwt beam="2">  1       -2 0.40012257E-01 0.20127108E+04</pdfrwt>
<totfact> 0.23005680E+00</totfact>
</mgrwt>
</event>
<event>
 6    1  0.2329002E-005  0.3473298E+04  0.7818608E-02  0.8120147E-01
         -2   -1    0    0    0  501 -0.00000000000E+00  0.00000000000E+00  0.24249889263E+04  0.24249889263E+04  0.00000000000E+00 0.  1.
          2   -1    0    0  501    0  0.00000000000E+00 -0.00000000000E+00 -0.12436964525E+04  0.12436964525E+04  0.00000000000E+00 0. -1.
         23    2    1    2    0    0  0.15248746160E+04 -0.69718918880E+03  0.11830316800E+03  0.16834242817E+04  0.92770217531E+02 0.  0.
         13    1    3    3    0    0  0.10425381284E+04 -0.51072574412E+03  0.11146603774E+03  0.11662552090E+04  0.00000000000E+00 0. -1.
        -13    1    3    3    0    0  0.48233648760E+03 -0.18646344468E+03  0.68371302626E+01  0.51716907276E+03  0.00000000000E+00 0.  1.
         22    1    1    2    0    0 -0.15248746160E+04  0.69718918880E+03  0.10629893058E+04  0.19852610971E+04  0.00000000000E+00 0.  1.
<mgrwt>
<rscale>  0 0.34732982E+04</rscale>
<asrwt>0</asrwt>
<pdfrwt beam="1">  1        2 0.19133792E+00 0.34732982E+04</pdfrwt>
<pdfrwt beam="2">  1       -2 0.37307522E+00 0.34732982E+04</pdfrwt>
<totfact> 0.16289154E-01</totfact>
</mgrwt>
</event>
<event>
 6    1  0.2047711E-005  0.2411407E+04  0.7818608E-02  0.8435245E-01
         -2   -1    0    0    0  501 -0.00000000000E+00  0.00000000000E+00  0.62384934262E+03  0.62384934262E+03  0.00000000000E+00 0.  1.
          2   -1    0    0  501    0  0.00000000000E+00 -0.00000000000E+00 -0.23302437231E+04  0.23302437231E+04  0.00000000000E+00 0. -1.
         23    2    1    2    0    0 -0.53833387917E+03  0.10682555922E+04 -0.10217054664E+04  0.15757707939E+04  0.90543686263E+02 0.  0.
         11    1    3    3    0    0 -0.11427507724E+03  0.15753948500E+03 -0.18160231552E+03  0.26618956331E+03  0.00000000000E+00 0.  1.
        -11    1    3    3    0    0 -0.42405880193E+03  0.91071610725E+03 -0.84010315085E+03  0.13095812306E+04  0.00000000000E+00 0. -1.
         22    1    1    2    0    0  0.53833387917E+03 -0.10682555922E+04 -0.68468891411E+03  0.13783222718E+04  0.00000000000E+00 0. -1.
<mgrwt>
<rscale>  0 0.24114071E+04</rscale>
<asrwt>0</asrwt>
<pdfrwt beam="1">  1        2 0.35849903E+00 0.24114071E+04</pdfrwt>
<pdfrwt beam="2">  1       -2 0.95976823E-01 0.24114071E+04</pdfrwt>
<totfact> 0.35617514E+00</totfact>
</mgrwt>
</event>
<event>
 6    1  0.2047711E-005  0.2790393E+04  0.7818608E-02  0.8306257E-01
          2   -1    0    0  501    0  0.00000000000E+00  0.00000000000E+00  0.21642995440E+04  0.21642995440E+04  0.00000000000E+00 0. -1.
         -2   -1    0    0    0  501 -0.00000000000E+00 -0.00000000000E+00 -0.89940106658E+03  0.89940106658E+03  0.00000000000E+00 0.  1.
         23    2    1    2    0    0  0.90643272284E+03  0.74453200828E+03  0.14593968416E+04  0.18746767226E+04  0.92873465562E+02 0.  0.
         11    1    3    3    0    0  0.28453618235E+03  0.20716691588E+03  0.49839614899E+03  0.61014563133E+03  0.00000000000E+00 0. -1.
        -11    1    3    3    0    0  0.62189654049E+03  0.53736509240E+03  0.96100069266E+03  0.12645310913E+04  0.00000000000E+00 0.  1.
         22    1    1    2    0    0 -0.90643272284E+03 -0.74453200828E+03 -0.19449836423E+03  0.11890238879E+04  0.00000000000E+00 0.  1.
<mgrwt>
<rscale>  0 0.27903930E+04</rscale>
<asrwt>0</asrwt>
<pdfrwt beam="1">  1        2 0.33296916E+00 0.27903930E+04</pdfrwt>
<pdfrwt beam="2">  1       -2 0.13836940E+00 0.27903930E+04</pdfrwt>
<totfact> 0.17436956E+00</totfact>
</mgrwt>
</event>
<event>
 6    1  0.2047711E-005  0.2278869E+04  0.7818608E-02  0.8486299E-01
          2   -1    0    0  501    0  0.00000000000E+00  0.00000000000E+00  0.55571275503E+03  0.55571275503E+03  0.00000000000E+00 0. -1.
         -2   -1    0    0    0  501 -0.00000000000E+00 -0.00000000000E+00 -0.23362996606E+04  0.23362996606E+04  0.00000000000E+00 0.  1.
         23    2    1    2    0    0  0.46084688314E+03 -0.89663114963E+03 -0.22276994219E+03  0.10364475530E+04  0.90938521706E+02 0.  0.
         11    1    3    3    0    0  0.42169745979E+03 -0.86329417028E+03 -0.21287474452E+03  0.98408395418E+03  0.00000000000E+00 0. -1.
        -11    1    3    3    0    0  0.39149423349E+02 -0.33336979350E+02 -0.98951976653E+01  0.52363598784E+02  0.00000000000E+00 0.  1.
         22    1    1    2    0    0 -0.46084688314E+03  0.89663114963E+03 -0.15578169634E+04  0.18555648627E+04  0.00000000000E+00 0.  1.
<mgrwt>
<rscale>  0 0.22788695E+04</rscale>
<asrwt>0</asrwt>
<pdfrwt beam="1">  1        2 0.85494270E-01 0.22788695E+04</pdfrwt>
<pdfrwt beam="2">  1       -2 0.35943072E+00 0.22788695E+04</pdfrwt>
<totfact> 0.67049202E-01</totfact>
</mgrwt>
</event>
<event>
 6    1  0.2047711E-005  0.4299817E+04  0.7818608E-02  0.7946652E-01
         -2   -1    0    0    0  501 -0.00000000000E+00  0.00000000000E+00  0.12294075812E+04  0.12294075812E+04  0.00000000000E+00 0.  1.
          2   -1    0    0  501    0  0.00000000000E+00 -0.00000000000E+00 -0.37596213736E+04  0.37596213736E+04  0.00000000000E+00 0. -1.
         23    2    1    2    0    0  0.42531390093E+03 -0.20930972511E+04 -0.15390059280E+04  0.26343652746E+04  0.96918196261E+02 0.  0.
         13    1    3    3    0    0  0.27525623882E+03 -0.11700462635E+04 -0.82729899238E+03  0.14591771238E+04  0.00000000000E+00 0.  1.
        -13    1    3    3    0    0  0.15005766211E+03 -0.92305098756E+03 -0.71170693559E+03  0.11751881508E+04  0.00000000000E+00 0. -1.
         22    1    1    2    0    0 -0.42531390093E+03  0.20930972511E+04 -0.99120786446E+03  0.23546636803E+04  0.00000000000E+00 0.  1.
<mgrwt>
<rscale>  0 0.42998172E+04</rscale>
<asrwt>0</asrwt>
<pdfrwt beam="1">  1        2 0.57840329E+00 0.42998172E+04</pdfrwt>
<pdfrwt beam="2">  1       -2 0.18913963E+00 0.42998172E+04</pdfrwt>
<totfact> 0.63551973E-02</totfact>
</mgrwt>
</event>
<event>
 6    1  0.2047711E-005  0.2177378E+04  0.7818608E-02  0.8527903E-01
          1   -1    0    0  501    0  0.00000000000E+00  0.00000000000E+00  0.98169068897E+03  0.98169068897E+03  0.00000000000E+00 0.  1.
         -1   -1    0    0    0  501 -0.00000000000E+00 -0.00000000000E+00 -0.12073492101E+04  0.12073492101E+04  0.00000000000E+00 0. -1.
         23    2    1    2    0    0  0.28313210542E+03  0.88620619436E+03 -0.67785601562E+03  0.11546280942E+04  0.90288703391E+02 0.  0.
         11    1    3    3    0    0  0.18141534358E+03  0.64623568131E+03 -0.44686554644E+03  0.80636275911E+03  0.00000000000E+00 0. -1.
        -11    1    3    3    0    0  0.10171676184E+03  0.23997051305E+03 -0.23099046918E+03  0.34826533509E+03  0.00000000000E+00 0.  1.
         22    1    1    2    0    0 -0.28313210542E+03 -0.88620619436E+03  0.45219749449E+03  0.10344118049E+04  0.00000000000E+00 0. -1.
<mgrwt>
<rscale>  0 0.21773778E+04</rscale>
<asrwt>0</asrwt>
<pdfrwt beam="1">  1        1 0.15102934E+00 0.21773778E+04</pdfrwt>
<pdfrwt beam="2">  1       -1 0.18574603E+00 0.21773778E+04</pdfrwt>
<totfact> 0.27054287E+00</totfact>
</mgrwt>
</event>
<event>
 6    1  0.2047711E-005  0.3792553E+04  0.7818608E-02  0.8047755E-01
         -2   -1    0    0    0  501 -0.00000000000E+00  0.00000000000E+00  0.14469623187E+04  0.14469623187E+04  0.00000000000E+00 0. -1.
          2   -1    0    0  501    0  0.00000000000E+00 -0.00000000000E+00 -0.24851127351E+04  0.24851127351E+04  0.00000000000E+00 0.  1.
         23    2    1    2    0    0  0.85375286037E+03  0.63445617072E+03  0.11069184809E+04  0.15377590444E+04  0.89475001703E+02 0.  0.
         13    1    3    3    0    0  0.33809300793E+03  0.20098834986E+03  0.38608932838E+03  0.55115167447E+03  0.00000000000E+00 0.  1.
        -13    1    3    3    0    0  0.51565985245E+03  0.43346782086E+03  0.72082915256E+03  0.98660736989E+03  0.00000000000E+00 0. -1.
         22    1    1    2    0    0 -0.85375286037E+03 -0.63445617072E+03 -0.21450688972E+04  0.23943160094E+04  0.00000000000E+00 0.  1.
<mgrwt>
<rscale>  0 0.37925530E+04</rscale>
<asrwt>0</asrwt>
<pdfrwt beam="1">  1        2 0.38232503E+00 0.37925530E+04</pdfrwt>
<pdfrwt beam="2">  1       -2 0.22260959E+00 0.37925530E+04</pdfrwt>
<totfact> 0.27106554E-01</totfact>
</mgrwt>
</event>
<event>
 6    1  0.2047711E-005  0.1666346E+04  0.7818608E-02  0.8780794E-01
         -2   -1    0    0    0  501 -0.00000000000E+00  0.00000000000E+00  0.87813727687E+03  0.87813727687E+03  0.00000000000E+00 0.  1.
          2   -1    0    0  501    0  0.00000000000E+00 -0.00000000000E+00 -0.79051149787E+03  0.79051149787E+03  0.00000000000E+00 0. -1.
         23    2    1    2    0    0  0.49423921605E+03 -0.45422959254E+03 -0.44603708220E+03  0.81109820780E+03  0.91292379593E+02 0.  0.
         13    1    3    3    0    0  0.31613562075E+03 -0.34648256424E+03 -0.31908224087E+03  0.56727892122E+03  0.00000000000E+00 0. -1.
        -13    1    3    3    0    0  0.17810359530E+03 -0.10774702830E+03 -0.12695484133E+03  0.24381928658E+03  0.00000000000E+00 0.  1.
         22    1    1    2    0    0 -0.49423921605E+03  0.45422959254E+03  0.53366286121E+03  0.85755056694E+03  0.00000000000E+00 0.  1.
<mgrwt>
<rscale>  0 0.16663464E+04</rscale>
<asrwt>0</asrwt>
<pdfrwt beam="1">  1        2 0.12161715E+00 0.16663464E+04</pdfrwt>
<pdfrwt beam="2">  1       -2 0.13509804E+00 0.16663464E+04</pdfrwt>
<totfact> 0.13144510E+01</totfact>
</mgrwt>
</event>
<event>
 6    1  0.2047711E-005  0.3539127E+04  0.7818608E-02  0.8104579E-01
          2   -1    0    0  501    0  0.00000000000E+00  0.00000000000E+00  0.27776125004E+04  0.27776125004E+04  0.00000000000E+00 0.  1.
         -2   -1    0    0    0  501 -0.00000000000E+00 -0.00000000000E+00 -0.11273551870E+04  0.11273551870E+04  0.00000000000E+00 0. -1.
         23    2    1    2    0    0 -0.10312707460E+04  0.42343178906E+03 -0.68890156661E+03  0.13137366870E+04  0.92221921141E+02 0.  0.
         13    1    3    3    0    0 -0.30174241843E+03  0.10493556453E+03 -0.15367226460E+03  0.35450687538E+03  0.00000000000E+00 0. -1.
        -13    1    3    3    0    0 -0.72952832761E+03  0.31849622452E+03 -0.53522930201E+03  0.95922981165E+03  0.00000000000E+00 0.  1.
         22    1    1    2    0    0  0.10312707460E+04 -0.42343178906E+03  0.23391588800E+04  0.25912310004E+04  0.00000000000E+00 0.  1.
<mgrwt>
<rscale>  0 0.35391275E+04</rscale>
<asrwt>0</asrwt>
<pdfrwt beam="1">  1        2 0.42732500E+00 0.35391275E+04</pdfrwt>
<pdfrwt beam="2">  1       -2 0.17343926E+00 0.35391275E+04</pdfrwt>
<totfact> 0.39361738E-01</totfact>
</mgrwt>
</event>
<event>
 6    1  0.2047711E-005  0.3758511E+04  0.7818608E-02  0.8055117E-01
         -2   -1    0    0    0  501 -0.00000000000E+00  0.00000000000E+00  0.39847897123E+04  0.39847897123E+04  0.00000000000E+00 0.  1.
          2   -1    0    0  501    0  0.00000000000E+00 -0.00000000000E+00 -0.88627058398E+03  0.88627058398E+03  0.00000000000E+00 0. -1.
         23    2    1    2    0    0  0.11412086707E+04  0.47035801293E+03  0.33846912102E+04  0.36039816283E+04  0.94631383837E+02 0.  0.
         13    1    3    3    0    0  0.18903582649E+03  0.75832616525E+02  0.66745868506E+03  0.69784398377E+03  0.00000000000E+00 0.  1.
        -13    1    3    3    0    0  0.95217284420E+03  0.39452539640E+03  0.27172325251E+04  0.29061376446E+04  0.00000000000E+00 0. -1.
         22    1    1    2    0    0 -0.11412086707E+04 -0.47035801293E+03 -0.28617208183E+03  0.12670786680E+04  0.00000000000E+00 0. -1.
<mgrwt>
<rscale>  0 0.37585114E+04</rscale>
<asrwt>0</asrwt>
<pdfrwt beam="1">  1        2 0.13634932E+00 0.37585114E+04</pdfrwt>
<pdfrwt beam="2">  1       -2 0.61304456E+00 0.37585114E+04</pdfrwt>
<totfact> 0.10861174E-02</totfact>
</mgrwt>
</event>
<event>
 6    1  0.2047711E-005  0.2923872E+04  0.7818608E-02  0.8265810E-01
          2   -1    0    0  501    0  0.00000000000E+00  0.00000000000E+00  0.22551960218E+04  0.22551960218E+04  0.00000000000E+00 0. -1.
         -2   -1    0    0    0  501 -0.00000000000E+00 -0.00000000000E+00 -0.94770313292E+03  0.94770313292E+03  0.00000000000E+00 0.  1.
         23    2    1    2    0    0  0.70062741803E+03  0.10931961337E+04  0.13875975185E+04  0.19019866607E+04  0.78548192144E+02 0.  0.
         13    1    3    3    0    0  0.60952226910E+03  0.97853944076E+03  0.12591049895E+04  0.17071620334E+04  0.00000000000E+00 0.  1.
        -13    1    3    3    0    0  0.91105148929E+02  0.11465669290E+03  0.12849252898E+03  0.19482462727E+03  0.00000000000E+00 0. -1.
         22    1    1    2    0    0 -0.70062741803E+03 -0.10931961337E+04 -0.80104629612E+02  0.13009124941E+04  0.00000000000E+00 0. -1.
<mgrwt>
<rscale>  0 0.29238716E+04</rscale>
<asrwt>0</asrwt>
<pdfrwt beam="1">  1        2 0.34695323E+00 0.29238716E+04</pdfrwt>
<pdfrwt beam="2">  1       -2 0.14580048E+00 0.29238716E+04</pdfrwt>
<totfact> 0.13370713E+00</totfact>
</mgrwt>
</event>
<event>
 6    1  0.2047711E-005  0.2512122E+04  0.7818608E-02  0.8398680E-01
          2   -1    0    0  501    0  0.00000000000E+00  0.00000000000E+00  0.12094942594E+04  0.12094942594E+04  0.00000000000E+00 0. -1.
         -2   -1    0    0    0  501 -0.00000000000E+00 -0.00000000000E+00 -0.13044201170E+04  0.13044201170E+04  0.00000000000E+00 0.  1.
         23    2    1    2    0    0  0.74919459610E+02 -0.11120969157E+04  0.52862172774E+03  0.12367362107E+04  0.87767012608E+02 0.  0.
         13    1    3    3    0    0 -0.51127994816E+01 -0.56864354614E+03  0.26119671276E+03  0.62578378538E+03  0.00000000000E+00 0. -1.
        -13    1    3    3    0    0  0.80032259091E+02 -0.54345336960E+03  0.26742501498E+03  0.61095242537E+03  0.00000000000E+00 0.  1.
         22    1    1    2    0    0 -0.74919459610E+02  0.11120969157E+04 -0.62354758536E+03  0.12771781656E+04  0.00000000000E+00 0.  1.
<mgrwt>
<rscale>  0 0.25121215E+04</rscale>
<asrwt>0</asrwt>
<pdfrwt beam="1">  1        2 0.18607604E+00 0.25121215E+04</pdfrwt>
<pdfrwt beam="2">  1       -2 0.20068002E+00 0.25121215E+04</pdfrwt>
<totfact> 0.21926654E+00</totfact>
</mgrwt>
</event>
<event>
 6    1  0.2047711E-005  0.2593511E+04  0.7818608E-02  0.8370409E-01
         -2   -1    0    0    0  501 -0.00000000000E+00  0.00000000000E+00  0.73907360075E+03  0.73907360075E+03  0.00000000000E+00 0. -1.
          2   -1    0    0  501    0  0.00000000000E+00 -0.00000000000E+00 -0.22752464646E+04  0.22752464646E+04  0.00000000000E+00 0.  1.
         23    2    1    2    0    0 -0.61159980581E+03 -0.11079933617E+03  0.55161520826E+03  0.83597439732E+03  0.90791186937E+02 0.  0.
         13    1    3    3    0    0 -0.44964653006E+03 -0.44785669212E+02  0.42209255388E+03  0.61834446889E+03  0.00000000000E+00 0. -1.
        -13    1    3    3    0    0 -0.16195327575E+03 -0.66013666958E+02  0.12952265438E+03  0.21762992843E+03  0.00000000000E+00 0.  1.
         22    1    1    2    0    0  0.61159980581E+03  0.11079933617E+03 -0.20877880721E+04  0.21783456680E+04  0.00000000000E+00 0.  1.
<mgrwt>
<rscale>  0 0.25935108E+04</rscale>
<asrwt>0</asrwt>
<pdfrwt beam="1">  1        2 0.35003792E+00 0.25935108E+04</pdfrwt>
<pdfrwt beam="2">  1       -2 0.11370363E+00 0.25935108E+04</pdfrwt>
<totfact> 0.25118507E+00</totfact>
</mgrwt>
</event>
<event>
 6    1  0.2047711E-005  0.3339762E+04  0.7818608E-02  0.8152851E-01
          2   -1    0    0  501    0  0.00000000000E+00  0.00000000000E+00  0.24475111214E+04  0.24475111214E+04  0.00000000000E+00 0. -1.
         -2   -1    0    0    0  501 -0.00000000000E+00 -0.00000000000E+00 -0.11393214403E+04  0.11393214403E+04  0.00000000000E+00 0.  1.
         23    2    1    2    0    0 -0.53220895130E+03  0.10118739360E+04 -0.64944171707E+03  0.13197957465E+04  0.11380262963E+03 0.  0.
         13    1    3    3    0    0 -0.49676427151E+03  0.97581514836E+03 -0.59787246730E+03  0.12475742192E+04  0.00000000000E+00 0.  1.
        -13    1    3    3    0    0 -0.35444679794E+02  0.36058787639E+02 -0.51569249770E+02  0.72221527355E+02  0.00000000000E+00 0. -1.
         22    1    1    2    0    0  0.53220895130E+03 -0.10118739360E+04  0.19576313982E+04  0.22670368152E+04  0.00000000000E+00 0. -1.
<mgrwt>
<rscale>  0 0.33397616E+04</rscale>
<asrwt>0</asrwt>
<pdfrwt beam="1">  1        2 0.37654017E+00 0.33397616E+04</pdfrwt>
<pdfrwt beam="2">  1       -2 0.17528022E+00 0.33397616E+04</pdfrwt>
<totfact> 0.60779762E-01</totfact>
</mgrwt>
</event>
<event>
 6    1  0.2047711E-005  0.4494906E+03  0.7818608E-02  0.1027874E+00
          2   -1    0    0  501    0  0.00000000000E+00  0.00000000000E+00  0.83803605400E+03  0.83803605400E+03  0.00000000000E+00 0. -1.
         -2   -1    0    0    0  501 -0.00000000000E+00 -0.00000000000E+00 -0.60272413593E+02  0.60272413593E+02  0.00000000000E+00 0.  1.
         23    2    1    2    0    0 -0.13086671061E+03 -0.14797495131E+03  0.24070618227E+03  0.32607303047E+03  0.96754704575E+02 0.  0.
         11    1    3    3    0    0 -0.84024619105E+01  0.14325654417E+02  0.19771911040E+02  0.25821584127E+02  0.00000000000E+00 0. -1.
        -11    1    3    3    0    0 -0.12246424870E+03 -0.16230060572E+03  0.22093427123E+03  0.30025144634E+03  0.00000000000E+00 0.  1.
         22    1    1    2    0    0  0.13086671061E+03  0.14797495131E+03  0.53705745813E+03  0.57223543712E+03  0.00000000000E+00 0. -1.
<mgrwt>
<rscale>  0 0.44949063E+03</rscale>
<asrwt>0</asrwt>
<pdfrwt beam="1">  1        2 0.12892862E+00 0.44949063E+03</pdfrwt>
<pdfrwt beam="2">  1       -2 0.92726796E-02 0.44949063E+03</pdfrwt>
<totfact> 0.25100353E+03</totfact>
</mgrwt>
</event>
<event>
 6    1  0.2047711E-005  0.5075635E+04  0.7818608E-02  0.7816945E-01
          2   -1    0    0  501    0  0.00000000000E+00  0.00000000000E+00  0.21286966671E+04  0.21286966671E+04  0.00000000000E+00 0.  1.
         -2   -1    0    0    0  501 -0.00000000000E+00 -0.00000000000E+00 -0.30255680408E+04  0.30255680408E+04  0.00000000000E+00 0. -1.
         23    2    1    2    0    0 -0.21125998161E+04 -0.84486400200E+03  0.69126953659E+03  0.23795458545E+04  0.86670274720E+02 0.  0.
         13    1    3    3    0    0 -0.94729951886E+03 -0.33401197983E+03  0.29355251538E+03  0.10464766889E+04  0.00000000000E+00 0.  1.
        -13    1    3    3    0    0 -0.11653002972E+04 -0.51085202217E+03  0.39771702121E+03  0.13330691656E+04  0.00000000000E+00 0. -1.
         22    1    1    2    0    0  0.21125998161E+04  0.84486400200E+03 -0.15881409102E+04  0.27747188534E+04  0.00000000000E+00 0. -1.
<mgrwt>
<rscale>  0 0.50756346E+04</rscale>
<asrwt>0</asrwt>
<pdfrwt beam="1">  1        2 0.32749179E+00 0.50756346E+04</pdfrwt>
<pdfrwt beam="2">  1       -2 0.46547201E+00 0.50756346E+04</pdfrwt>
<totfact> 0.11294177E-02</totfact>
</mgrwt>
</event>
<event>
 6    1  0.2047711E-005  0.3522591E+04  0.7818608E-02  0.8108457E-01
         -1   -1    0    0    0  501 -0.00000000000E+00  0.00000000000E+00  0.11302061296E+04  0.11302061296E+04  0.00000000000E+00 0.  1.
          1   -1    0    0  501    0  0.00000000000E+00 -0.00000000000E+00 -0.27447755207E+04  0.27447755207E+04  0.00000000000E+00 0. -1.
         23    2    1    2    0    0  0.14784608837E+04 -0.69385005111E+03 -0.15298247726E+04  0.22396052017E+04  0.90516002835E+02 0.  0.
         13    1    3    3    0    0  0.85992845040E+03 -0.37524575670E+03 -0.92841400985E+03  0.13199389726E+04  0.00000000000E+00 0. -1.
        -13    1    3    3    0    0  0.61853243328E+03 -0.31860429441E+03 -0.60141076273E+03  0.91966622911E+03  0.00000000000E+00 0.  1.
         22    1    1    2    0    0 -0.14784608837E+04  0.69385005111E+03 -0.84744618493E+02  0.16353764485E+04  0.00000000000E+00 0.  1.
<mgrwt>
<rscale>  0 0.35225912E+04</rscale>
<asrwt>0</asrwt>
<pdfrwt beam="1">  1        1 0.42227315E+00 0.35225912E+04</pdfrwt>
<pdfrwt beam="2">  1       -1 0.17387787E+00 0.35225912E+04</pdfrwt>
<totfact> 0.17115910E-01</totfact>
</mgrwt>
</event>
<event>
 6    1  0.2047711E-005  0.2249152E+04  0.7818608E-02  0.8498244E-01
         -1   -1    0    0    0  501 -0.00000000000E+00  0.00000000000E+00  0.26086372123E+03  0.26086372123E+03  0.00000000000E+00 0.  1.
          1   -1    0    0  501    0  0.00000000000E+00 -0.00000000000E+00 -0.48480150034E+04  0.48480150034E+04  0.00000000000E+00 0. -1.
         23    2    1    2    0    0  0.10750747548E+04  0.30705093864E+03 -0.20658451990E+04  0.23507905513E+04  0.91835843834E+02 0.  0.
         13    1    3    3    0    0  0.53149433555E+03  0.10489632167E+03 -0.97996659101E+03  0.11197428216E+04  0.00000000000E+00 0. -1.
        -13    1    3    3    0    0  0.54358041922E+03  0.20215461697E+03 -0.10858786080E+04  0.12310477297E+04  0.00000000000E+00 0.  1.
         22    1    1    2    0    0 -0.10750747548E+04 -0.30705093864E+03 -0.25213060831E+04  0.27580881734E+04  0.00000000000E+00 0. -1.
<mgrwt>
<rscale>  0 0.22491520E+04</rscale>
<asrwt>0</asrwt>
<pdfrwt beam="1">  1        1 0.74584834E+00 0.22491520E+04</pdfrwt>
<pdfrwt beam="2">  1       -1 0.40132887E-01 0.22491520E+04</pdfrwt>
<totfact> 0.74070317E-02</totfact>
</mgrwt>
</event>
<event>
 6    1  0.4235649E-005  0.1961746E+04  0.7818608E-02  0.8624718E-01
          1   -1    0    0  501    0  0.00000000000E+00  0.00000000000E+00  0.82868769839E+03  0.82868769839E+03  0.00000000000E+00 0. -1.
         -1   -1    0    0    0  501 -0.00000000000E+00 -0.00000000000E+00 -0.11610062622E+04  0.11610062622E+04  0.00000000000E+00 0.  1.
         23    2    1    2    0    0 -0.97396373105E+03 -0.87581092671E+02 -0.21624467666E+03  0.10049356428E+04  0.82813578744E+02 0.  0.
         13    1    3    3    0    0 -0.23850431213E+03 -0.49573018334E+02 -0.76693789488E+02  0.25538936626E+03  0.00000000000E+00 0. -1.
        -13    1    3    3    0    0 -0.73545941892E+03 -0.38008074338E+02 -0.13955088718E+03  0.74954627656E+03  0.00000000000E+00 0.  1.
         22    1    1    2    0    0  0.97396373105E+03  0.87581092671E+02 -0.11607388717E+03  0.98475831780E+03  0.00000000000E+00 0.  1.
<mgrwt>
<rscale>  0 0.19617458E+04</rscale>
<asrwt>0</asrwt>
<pdfrwt beam="1">  1        1 0.12749042E+00 0.19617458E+04</pdfrwt>
<pdfrwt beam="2">  1       -1 0.17861635E+00 0.19617458E+04</pdfrwt>
<totfact> 0.41382378E+00</totfact>
</mgrwt>
</event>
<event>
 6    1  0.2047711E-005  0.1753266E+04  0.7818608E-02  0.8731555E-01
          2   -1    0    0  501    0  0.00000000000E+00  0.00000000000E+00  0.14266994057E+04  0.14266994057E+04  0.00000000000E+00 0. -1.
         -2   -1    0    0    0  501 -0.00000000000E+00 -0.00000000000E+00 -0.53864552490E+03  0.53864552490E+03  0.00000000000E+00 0.  1.
         23    2    1    2    0    0  0.69932029065E+03 -0.52016233420E+03  0.52222190903E+03  0.10201196906E+04  0.91163249107E+02 0.  0.
         11    1    3    3    0    0  0.41559875007E+03 -0.30725598537E+03  0.36127262296E+03  0.63059215799E+03  0.00000000000E+00 0.  1.
        -11    1    3    3    0    0  0.28372154058E+03 -0.21290634882E+03  0.16094928607E+03  0.38952753259E+03  0.00000000000E+00 0. -1.
         22    1    1    2    0    0 -0.69932029065E+03  0.52016233420E+03  0.36583197180E+03  0.94522524005E+03  0.00000000000E+00 0.  1.
<mgrwt>
<rscale>  0 0.17532658E+04</rscale>
<asrwt>0</asrwt>
<pdfrwt beam="1">  1        2 0.21949221E+00 0.17532658E+04</pdfrwt>
<pdfrwt beam="2">  1       -2 0.82868543E-01 0.17532658E+04</pdfrwt>
<totfact> 0.16899487E+01</totfact>
</mgrwt>
</event>
<event>
 6    1  0.2047711E-005  0.1625777E+04  0.7818608E-02  0.8804867E-01
          2   -1    0    0  501    0  0.00000000000E+00  0.00000000000E+00  0.52864752729E+03  0.52864752729E+03  0.00000000000E+00 0. -1.
         -2   -1    0    0    0  501 -0.00000000000E+00 -0.00000000000E+00 -0.12499585836E+04  0.12499585836E+04  0.00000000000E+00 0.  1.
         23    2    1    2    0    0 -0.54048867536E+03 -0.47264504318E+03 -0.77451256246E+03  0.10586396219E+04  0.72984892462E+02 0.  0.
         11    1    3    3    0    0 -0.31903725848E+03 -0.24660725938E+03 -0.39439249116E+03  0.56404374809E+03  0.00000000000E+00 0. -1.
        -11    1    3    3    0    0 -0.22145141688E+03 -0.22603778380E+03 -0.38012007130E+03  0.49459587377E+03  0.00000000000E+00 0.  1.
         22    1    1    2    0    0  0.54048867536E+03  0.47264504318E+03  0.53201506171E+02  0.71996648900E+03  0.00000000000E+00 0. -1.
<mgrwt>
<rscale>  0 0.16257768E+04</rscale>
<asrwt>0</asrwt>
<pdfrwt beam="1">  1        2 0.81330390E-01 0.16257768E+04</pdfrwt>
<pdfrwt beam="2">  1       -2 0.19230132E+00 0.16257768E+04</pdfrwt>
<totfact> 0.82510600E+00</totfact>
</mgrwt>
</event>
<event>
 6    1  0.2047711E-005  0.1757132E+04  0.7818608E-02  0.8729434E-01
         -2   -1    0    0    0  501 -0.00000000000E+00  0.00000000000E+00  0.39018192294E+03  0.39018192294E+03  0.00000000000E+00 0.  1.
          2   -1    0    0  501    0  0.00000000000E+00 -0.00000000000E+00 -0.19782519151E+04  0.19782519151E+04  0.00000000000E+00 0. -1.
         23    2    1    2    0    0 -0.70237870039E+03  0.48491410183E+03 -0.10625921833E+04  0.13661342558E+04  0.93504716178E+02 0.  0.
         11    1    3    3    0    0 -0.59004731353E+03  0.37397669757E+03 -0.82744208583E+03  0.10829011072E+04  0.00000000000E+00 0.  1.
        -11    1    3    3    0    0 -0.11233138687E+03  0.11093740427E+03 -0.23515009747E+03  0.28323314862E+03  0.00000000000E+00 0. -1.
         22    1    1    2    0    0  0.70237870039E+03 -0.48491410183E+03 -0.52547780882E+03  0.10022995822E+04  0.00000000000E+00 0. -1.
<mgrwt>
<rscale>  0 0.17571319E+04</rscale>
<asrwt>0</asrwt>
<pdfrwt beam="1">  1        2 0.30434645E+00 0.17571319E+04</pdfrwt>
<pdfrwt beam="2">  1       -2 0.60027987E-01 0.17571319E+04</pdfrwt>
<totfact> 0.16838591E+01</totfact>
</mgrwt>
</event>
<event>
 6    1  0.2047711E-005  0.1091443E+04  0.7818608E-02  0.9213572E-01
          2   -1    0    0  501    0  0.00000000000E+00  0.00000000000E+00  0.10532900308E+04  0.10532900308E+04  0.00000000000E+00 0. -1.
         -2   -1    0    0    0  501 -0.00000000000E+00 -0.00000000000E+00 -0.28274460843E+03  0.28274460843E+03  0.00000000000E+00 0.  1.
         23    2    1    2    0    0  0.29779390330E+03  0.89738335291E+01 -0.16608754300E+03  0.35315974874E+03  0.91515013303E+02 0.  0.
         11    1    3    3    0    0  0.30593104051E+02 -0.17939050848E+01  0.10845364863E+02  0.32508122830E+02  0.00000000000E+00 0. -1.
        -11    1    3    3    0    0  0.26720079925E+03  0.10767738614E+02 -0.17693290786E+03  0.32065162591E+03  0.00000000000E+00 0.  1.
         22    1    1    2    0    0 -0.29779390330E+03 -0.89738335291E+01  0.93663296534E+03  0.98287489046E+03  0.00000000000E+00 0. -1.
<mgrwt>
<rscale>  0 0.10914432E+04</rscale>
<asrwt>0</asrwt>
<pdfrwt beam="1">  1        2 0.16204462E+00 0.10914432E+04</pdfrwt>
<pdfrwt beam="2">  1       -2 0.43499171E-01 0.10914432E+04</pdfrwt>
<totfact> 0.11590767E+02</totfact>
</mgrwt>
</event>
<event>
 6    1  0.2047711E-005  0.1559912E+04  0.7818608E-02  0.8845561E-01
          2   -1    0    0  501    0  0.00000000000E+00  0.00000000000E+00  0.54325702792E+03  0.54325702792E+03  0.00000000000E+00 0. -1.
         -2   -1    0    0    0  501 -0.00000000000E+00 -0.00000000000E+00 -0.11197860040E+04  0.11197860040E+04  0.00000000000E+00 0.  1.
         23    2    1    2    0    0  0.65311047739E+03 -0.39711172088E+01 -0.73856424000E+03  0.99012067958E+03  0.91064581941E+02 0.  0.
         13    1    3    3    0    0  0.25474329834E+03  0.32011098562E+02 -0.33312084796E+03  0.42058097654E+03  0.00000000000E+00 0. -1.
        -13    1    3    3    0    0  0.39836717905E+03 -0.35982215771E+02 -0.40544339204E+03  0.56953970304E+03  0.00000000000E+00 0.  1.
         22    1    1    2    0    0 -0.65311047739E+03  0.39711172088E+01  0.16203526396E+03  0.67292235229E+03  0.00000000000E+00 0. -1.
<mgrwt>
<rscale>  0 0.15599123E+04</rscale>
<asrwt>0</asrwt>
<pdfrwt beam="1">  1        2 0.83578005E-01 0.15599123E+04</pdfrwt>
<pdfrwt beam="2">  1       -2 0.17227477E+00 0.15599123E+04</pdfrwt>
<totfact> 0.11023351E+01</totfact>
</mgrwt>
</event>
<event>
 6    1  0.2047711E-005  0.2743252E+04  0.7818608E-02  0.8321106E-01
          2   -1    0    0  501    0  0.00000000000E+00  0.00000000000E+00  0.19676078230E+04  0.19676078230E+04  0.00000000000E+00 0. -1.
         -2   -1    0    0    0  501 -0.00000000000E+00 -0.00000000000E+00 -0.95616505676E+03  0.95616505676E+03  0.00000000000E+00 0.  1.
         23    2    1    2    0    0  0.10553757984E+04  0.50305020034E+03  0.12674166644E+04  0.17269436453E+04  0.95455606544E+02 0.  0.
         11    1    3    3    0    0  0.39425282843E+03  0.16665236073E+03  0.52618829427E+03  0.67829375870E+03  0.00000000000E+00 0. -1.
        -11    1    3    3    0    0  0.66112297002E+03  0.33639783961E+03  0.74122837015E+03  0.10486498866E+04  0.00000000000E+00 0.  1.
         22    1    1    2    0    0 -0.10553757984E+04 -0.50305020034E+03 -0.25597389813E+03  0.11968292345E+04  0.00000000000E+00 0. -1.
<mgrwt>
<rscale>  0 0.27432520E+04</rscale>
<asrwt>0</asrwt>
<pdfrwt beam="1">  1        2 0.30270889E+00 0.27432520E+04</pdfrwt>
<pdfrwt beam="2">  1       -2 0.14710232E+00 0.27432520E+04</pdfrwt>
<totfact> 0.19209155E+00</totfact>
</mgrwt>
</event>
<event>
 6    1  0.2047711E-005  0.3597818E+04  0.7818608E-02  0.8090992E-01
         -2   -1    0    0    0  501 -0.00000000000E+00  0.00000000000E+00  0.22084968913E+04  0.22084968913E+04  0.00000000000E+00 0.  1.
          2   -1    0    0  501    0  0.00000000000E+00 -0.00000000000E+00 -0.14652831492E+04  0.14652831492E+04  0.00000000000E+00 0. -1.
         23    2    1    2    0    0 -0.76910301736E+03  0.82663481836E+03 -0.10566525292E+04  0.15490769627E+04  0.90996125122E+02 0.  0.
         13    1    3    3    0    0 -0.15704189943E+03  0.13229188827E+03 -0.15908827078E+03  0.25975446056E+03  0.00000000000E+00 0.  1.
        -13    1    3    3    0    0 -0.61206111793E+03  0.69434293009E+03 -0.89756425838E+03  0.12893225022E+04  0.00000000000E+00 0. -1.
         22    1    1    2    0    0  0.76910301736E+03 -0.82663481836E+03  0.17998662712E+04  0.21247030777E+04  0.00000000000E+00 0.  1.
<mgrwt>
<rscale>  0 0.35978178E+04</rscale>
<asrwt>0</asrwt>
<pdfrwt beam="1">  1        2 0.22542818E+00 0.35978178E+04</pdfrwt>
<pdfrwt beam="2">  1       -2 0.33976875E+00 0.35978178E+04</pdfrwt>
<totfact> 0.19526539E-01</totfact>
</mgrwt>
</event>
<event>
 6    1  0.2047711E-005  0.6053119E+03  0.7818608E-02  0.9894446E-01
          2   -1    0    0  501    0  0.00000000000E+00  0.00000000000E+00  0.18310926930E+04  0.18310926930E+04  0.00000000000E+00 0.  1.
         -2   -1    0    0    0  501 -0.00000000000E+00 -0.00000000000E+00 -0.50025119284E+02  0.50025119284E+02  0.00000000000E+00 0. -1.
         23    2    1    2    0    0 -0.69682095054E+02  0.27378104826E+03  0.63798755149E+03  0.70364441811E+03  0.90970844412E+02 0.  0.
         13    1    3    3    0    0 -0.48670895819E+02  0.23536457235E+03  0.44505664753E+03  0.50580703586E+03  0.00000000000E+00 0.  1.
        -13    1    3    3    0    0 -0.21011199235E+02  0.38416475913E+02  0.19293090396E+03  0.19783738226E+03  0.00000000000E+00 0. -1.
         22    1    1    2    0    0  0.69682095054E+02 -0.27378104826E+03  0.11430800222E+04  0.11774733941E+04  0.00000000000E+00 0.  1.
<mgrwt>
<rscale>  0 0.60531192E+03</rscale>
<asrwt>0</asrwt>
<pdfrwt beam="1">  1        2 0.28170652E+00 0.60531192E+03</pdfrwt>
<pdfrwt beam="2">  1       -2 0.76961736E-02 0.60531192E+03</pdfrwt>
<totfact> 0.89208339E+02</totfact>
</mgrwt>
</event>
<event>
 6    1  0.2047711E-005  0.2627313E+04  0.7818608E-02  0.8358982E-01
         -2   -1    0    0    0  501 -0.00000000000E+00  0.00000000000E+00  0.11448056057E+04  0.11448056057E+04  0.00000000000E+00 0.  1.
          2   -1    0    0  501    0  0.00000000000E+00 -0.00000000000E+00 -0.15074120510E+04  0.15074120510E+04  0.00000000000E+00 0. -1.
         23    2    1    2    0    0  0.10102334410E+04 -0.79267277433E+03 -0.45353931709E+03  0.13649063037E+04  0.91485370995E+02 0.  0.
         13    1    3    3    0    0  0.29044096823E+03 -0.22700648759E+03 -0.17458586324E+03  0.40788248930E+03  0.00000000000E+00 0. -1.
        -13    1    3    3    0    0  0.71979247279E+03 -0.56566628673E+03 -0.27895345386E+03  0.95702381436E+03  0.00000000000E+00 0.  1.
         22    1    1    2    0    0 -0.10102334410E+04  0.79267277433E+03  0.90932871873E+02  0.12873113531E+04  0.00000000000E+00 0. -1.
<mgrwt>
<rscale>  0 0.26273133E+04</rscale>
<asrwt>0</asrwt>
<pdfrwt beam="1">  1        2 0.23190954E+00 0.26273133E+04</pdfrwt>
<pdfrwt beam="2">  1       -2 0.17612394E+00 0.26273133E+04</pdfrwt>
<totfact> 0.21411635E+00</totfact>
</mgrwt>
</event>
<event>
 6    1  0.2503201E-005  0.4694037E+04  0.7818608E-02  0.7877520E-01
         -2   -1    0    0    0  501 -0.00000000000E+00  0.00000000000E+00  0.24710407496E+04  0.24710407496E+04  0.00000000000E+00 0.  1.
          2   -1    0    0  501    0  0.00000000000E+00 -0.00000000000E+00 -0.22292208231E+04  0.22292208231E+04  0.00000000000E+00 0. -1.
         23    2    1    2    0    0 -0.71988436179E+03 -0.22312061498E+04  0.33336249466E+02  0.23465454002E+04  0.93003399357E+02 0.  0.
         11    1    3    3    0    0 -0.35304477688E+03 -0.12189653097E+04  0.44129090649E+02  0.12698284992E+04  0.00000000000E+00 0. -1.
        -11    1    3    3    0    0 -0.36683958491E+03 -0.10122408401E+04 -0.10792841183E+02  0.10767169009E+04  0.00000000000E+00 0.  1.
         22    1    1    2    0    0  0.71988436179E+03  0.22312061498E+04  0.20848367703E+03  0.23537161725E+04  0.00000000000E+00 0.  1.
<mgrwt>
<rscale>  0 0.46940369E+04</rscale>
<asrwt>0</asrwt>
<pdfrwt beam="1">  1        2 0.34295705E+00 0.46940369E+04</pdfrwt>
<pdfrwt beam="2">  1       -2 0.38016012E+00 0.46940369E+04</pdfrwt>
<totfact> 0.37048453E-02</totfact>
</mgrwt>
</event>
<event>
 6    1  0.2047711E-005  0.2078867E+04  0.7818608E-02  0.8570610E-01
          1   -1    0    0  501    0  0.00000000000E+00  0.00000000000E+00  0.12170905284E+04  0.12170905284E+04  0.00000000000E+00 0. -1.
         -1   -1    0    0    0  501 -0.00000000000E+00 -0.00000000000E+00 -0.88770856367E+03  0.88770856367E+03  0.00000000000E+00 0.  1.
         23    2    1    2    0    0  0.15112940197E+03 -0.17634451222E+03  0.11887293287E+04  0.12146219326E+04  0.91057889111E+02 0.  0.
         11    1    3    3    0    0  0.12561156867E+03 -0.97635785192E+02  0.91254632230E+03  0.92631085661E+03  0.00000000000E+00 0. -1.
        -11    1    3    3    0    0  0.25517833292E+02 -0.78708727028E+02  0.27618300639E+03  0.28831107600E+03  0.00000000000E+00 0.  1.
         22    1    1    2    0    0 -0.15112940197E+03  0.17634451222E+03 -0.85934736401E+03  0.89017715942E+03  0.00000000000E+00 0.  1.
<mgrwt>
<rscale>  0 0.20788667E+04</rscale>
<asrwt>0</asrwt>
<pdfrwt beam="1">  1        1 0.18724470E+00 0.20788667E+04</pdfrwt>
<pdfrwt beam="2">  1       -1 0.13657055E+00 0.20788667E+04</pdfrwt>
<totfact> 0.42777596E+00</totfact>
</mgrwt>
</event>
<event>
 6    1  0.2047711E-005  0.1824063E+04  0.7818608E-02  0.8693607E-01
          2   -1    0    0  501    0  0.00000000000E+00  0.00000000000E+00  0.26071116862E+04  0.26071116862E+04  0.00000000000E+00 0. -1.
         -2   -1    0    0    0  501 -0.00000000000E+00 -0.00000000000E+00 -0.31905098081E+03  0.31905098081E+03  0.00000000000E+00 0.  1.
         23    2    1    2    0    0 -0.52107620192E+03 -0.62053481552E+03  0.48404220688E+03  0.94852098853E+03  0.93868749684E+02 0.  0.
         11    1    3    3    0    0 -0.26830270829E+03 -0.38002553741E+03  0.24695803201E+03  0.52668208811E+03  0.00000000000E+00 0. -1.
        -11    1    3    3    0    0 -0.25277349363E+03 -0.24050927812E+03  0.23708417487E+03  0.42183890043E+03  0.00000000000E+00 0.  1.
         22    1    1    2    0    0  0.52107620192E+03  0.62053481552E+03  0.18040184985E+04  0.19776416785E+04  0.00000000000E+00 0. -1.
<mgrwt>
<rscale>  0 0.18240631E+04</rscale>
<asrwt>0</asrwt>
<pdfrwt beam="1">  1        2 0.40109409E+00 0.18240631E+04</pdfrwt>
<pdfrwt beam="2">  1       -2 0.49084768E-01 0.18240631E+04</pdfrwt>
<totfact> 0.11176854E+01</totfact>
</mgrwt>
</event>
<event>
 6    1  0.2047711E-005  0.1964206E+04  0.7818608E-02  0.8623541E-01
         -2   -1    0    0    0  501 -0.00000000000E+00  0.00000000000E+00  0.96855717446E+03  0.96855717446E+03  0.00000000000E+00 0. -1.
          2   -1    0    0  501    0  0.00000000000E+00 -0.00000000000E+00 -0.99583800784E+03  0.99583800784E+03  0.00000000000E+00 0.  1.
         23    2    1    2    0    0  0.49222336648E+03  0.19161288687E+03  0.81202807078E+03  0.97271036466E+03  0.88184606734E+02 0.  0.
         13    1    3    3    0    0  0.18502482603E+03  0.33956589226E+02  0.24610497853E+03  0.30976587394E+03  0.00000000000E+00 0. -1.
        -13    1    3    3    0    0  0.30719854045E+03  0.15765629765E+03  0.56592309225E+03  0.66294449073E+03  0.00000000000E+00 0.  1.
         22    1    1    2    0    0 -0.49222336648E+03 -0.19161288687E+03 -0.83930890415E+03  0.99168481763E+03  0.00000000000E+00 0.  1.
<mgrwt>
<rscale>  0 0.19642057E+04</rscale>
<asrwt>0</asrwt>
<pdfrwt beam="1">  1        2 0.15320585E+00 0.19642057E+04</pdfrwt>
<pdfrwt beam="2">  1       -2 0.14900880E+00 0.19642057E+04</pdfrwt>
<totfact> 0.72000703E+00</totfact>
</mgrwt>
</event>
<event>
 6    1  0.2047711E-005  0.2571173E+04  0.7818608E-02  0.8378060E-01
         -2   -1    0    0    0  501 -0.00000000000E+00  0.00000000000E+00  0.26963057817E+04  0.26963057817E+04  0.00000000000E+00 0.  1.
          2   -1    0    0  501    0  0.00000000000E+00 -0.00000000000E+00 -0.61296167233E+03  0.61296167233E+03  0.00000000000E+00 0. -1.
         23    2    1    2    0    0  0.35065219157E+03 -0.84122780264E+03 -0.12120826798E+03  0.92375443586E+03  0.89496581784E+02 0.  0.
         11    1    3    3    0    0  0.19693350669E+03 -0.37766766238E+03 -0.82454013232E+02  0.43383675912E+03  0.00000000000E+00 0. -1.
        -11    1    3    3    0    0  0.15371868488E+03 -0.46356014026E+03 -0.38754254751E+02  0.48991767674E+03  0.00000000000E+00 0.  1.
         22    1    1    2    0    0 -0.35065219157E+03  0.84122780264E+03  0.22045523774E+04  0.23855130182E+04  0.00000000000E+00 0.  1.
<mgrwt>
<rscale>  0 0.25711726E+04</rscale>
<asrwt>0</asrwt>
<pdfrwt beam="1">  1        2 0.94301798E-01 0.25711726E+04</pdfrwt>
<pdfrwt beam="2">  1       -2 0.41481627E+00 0.25711726E+04</pdfrwt>
<totfact> 0.25415757E-01</totfact>
</mgrwt>
</event>
<event>
 6    1  0.2047711E-005  0.2636817E+04  0.7818608E-02  0.8355802E-01
         -2   -1    0    0    0  501 -0.00000000000E+00  0.00000000000E+00  0.10226057480E+04  0.10226057480E+04  0.00000000000E+00 0. -1.
          2   -1    0    0  501    0  0.00000000000E+00 -0.00000000000E+00 -0.16997768319E+04  0.16997768319E+04  0.00000000000E+00 0.  1.
         23    2    1    2    0    0 -0.49738057696E+03 -0.92640890608E+03  0.47935071476E+03  0.11593203386E+04  0.92874324524E+02 0.  0.
         11    1    3    3    0    0 -0.21482858890E+03 -0.32181361290E+03  0.20366488880E+03  0.43725817429E+03  0.00000000000E+00 0.  1.
        -11    1    3    3    0    0 -0.28255198807E+03 -0.60459529318E+03  0.27568582596E+03  0.72206216431E+03  0.00000000000E+00 0. -1.
         22    1    1    2    0    0  0.49738057696E+03  0.92640890608E+03 -0.11565217987E+04  0.15630622414E+04  0.00000000000E+00 0.  1.
<mgrwt>
<rscale>  0 0.26368174E+04</rscale>
<asrwt>0</asrwt>
<pdfrwt beam="1">  1        2 0.26150413E+00 0.26368174E+04</pdfrwt>
<pdfrwt beam="2">  1       -2 0.15732396E+00 0.26368174E+04</pdfrwt>
<totfact> 0.22816834E+00</totfact>
</mgrwt>
</event>
<event>
 6    1  0.2047711E-005  0.2655558E+04  0.7818608E-02  0.8349570E-01
          2   -1    0    0  501    0  0.00000000000E+00  0.00000000000E+00  0.11736592230E+04  0.11736592230E+04  0.00000000000E+00 0. -1.
         -2   -1    0    0    0  501 -0.00000000000E+00 -0.00000000000E+00 -0.15021374103E+04  0.15021374103E+04  0.00000000000E+00 0.  1.
         23    2    1    2    0    0  0.74388105115E+03  0.64825290147E+03  0.72817292843E+03  0.12300779805E+04  0.96255815272E+02 0.  0.
         11    1    3    3    0    0  0.14664087279E+03  0.15429914521E+03  0.11590996900E+03  0.24237758292E+03  0.00000000000E+00 0. -1.
        -11    1    3    3    0    0  0.59724017836E+03  0.49395375626E+03  0.61226295943E+03  0.98770039762E+03  0.00000000000E+00 0.  1.
         22    1    1    2    0    0 -0.74388105115E+03 -0.64825290147E+03 -0.10566511157E+04  0.14457186528E+04  0.00000000000E+00 0.  1.
<mgrwt>
<rscale>  0 0.26555583E+04</rscale>
<asrwt>0</asrwt>
<pdfrwt beam="1">  1        2 0.18056296E+00 0.26555583E+04</pdfrwt>
<pdfrwt beam="2">  1       -2 0.23109806E+00 0.26555583E+04</pdfrwt>
<totfact> 0.14555575E+00</totfact>
</mgrwt>
</event>
<event>
 6    1  0.2047711E-005  0.1926889E+04  0.7818608E-02  0.8641586E-01
          2   -1    0    0  501    0  0.00000000000E+00  0.00000000000E+00  0.25237482449E+04  0.25237482449E+04  0.00000000000E+00 0. -1.
         -2   -1    0    0    0  501 -0.00000000000E+00 -0.00000000000E+00 -0.36779638273E+03  0.36779638273E+03  0.00000000000E+00 0.  1.
         23    2    1    2    0    0  0.93068996410E+03  0.11155732723E+03  0.13989776691E+04  0.16867048974E+04  0.95948141096E+02 0.  0.
         11    1    3    3    0    0  0.43659424440E+03  0.59957010804E+02  0.57341291645E+03  0.72319551308E+03  0.00000000000E+00 0. -1.
        -11    1    3    3    0    0  0.49409571970E+03  0.51600316424E+02  0.82556475260E+03  0.96350938429E+03  0.00000000000E+00 0.  1.
         22    1    1    2    0    0 -0.93068996410E+03 -0.11155732723E+03  0.75697419308E+03  0.12048397302E+04  0.00000000000E+00 0.  1.
<mgrwt>
<rscale>  0 0.19268892E+04</rscale>
<asrwt>0</asrwt>
<pdfrwt beam="1">  1        2 0.38826895E+00 0.19268892E+04</pdfrwt>
<pdfrwt beam="2">  1       -2 0.56584061E-01 0.19268892E+04</pdfrwt>
<totfact> 0.92417822E+00</totfact>
</mgrwt>
</event>
<event>
 6    1  0.2047711E-005  0.3122547E+04  0.7818608E-02  0.8209577E-01
          2   -1    0    0  501    0  0.00000000000E+00  0.00000000000E+00  0.24037379779E+04  0.24037379779E+04  0.00000000000E+00 0. -1.
         -2   -1    0    0    0  501 -0.00000000000E+00 -0.00000000000E+00 -0.10140767130E+04  0.10140767130E+04  0.00000000000E+00 0.  1.
         23    2    1    2    0    0  0.17944981584E+02 -0.15569242640E+04  0.58793540103E+03  0.16665010276E+04  0.84985015532E+02 0.  0.
         11    1    3    3    0    0 -0.39556001590E+01 -0.28502608018E+03  0.73862249323E+02  0.29446756194E+03  0.00000000000E+00 0. -1.
        -11    1    3    3    0    0  0.21900581743E+02 -0.12718981839E+04  0.51407315170E+03  0.13720334657E+04  0.00000000000E+00 0.  1.
         22    1    1    2    0    0 -0.17944981584E+02  0.15569242640E+04  0.80172586388E+03  0.17513136633E+04  0.00000000000E+00 0. -1.
<mgrwt>
<rscale>  0 0.31225468E+04</rscale>
<asrwt>0</asrwt>
<pdfrwt beam="1">  1        2 0.36980584E+00 0.31225468E+04</pdfrwt>
<pdfrwt beam="2">  1       -2 0.15601180E+00 0.31225468E+04</pdfrwt>
<totfact> 0.90419776E-01</totfact>
</mgrwt>
</event>
<event>
 6    1  0.2047711E-005  0.3252409E+04  0.7818608E-02  0.8175111E-01
         -1   -1    0    0    0  501 -0.00000000000E+00  0.00000000000E+00  0.14027936260E+04  0.14027936260E+04  0.00000000000E+00 0.  1.
          1   -1    0    0  501    0  0.00000000000E+00 -0.00000000000E+00 -0.18851966705E+04  0.18851966705E+04  0.00000000000E+00 0. -1.
         23    2    1    2    0    0 -0.46445602825E+03  0.10494787993E+04 -0.14039546099E+04  0.18161267022E+04  0.10051119013E+03 0.  0.
         13    1    3    3    0    0 -0.29970684254E+03  0.57277460068E+03 -0.83018131765E+03  0.10521862738E+04  0.00000000000E+00 0. -1.
        -13    1    3    3    0    0 -0.16474918571E+03  0.47670419860E+03 -0.57377329229E+03  0.76394042837E+03  0.00000000000E+00 0.  1.
         22    1    1    2    0    0  0.46445602825E+03 -0.10494787993E+04  0.92155156552E+03  0.14718635943E+04  0.00000000000E+00 0.  1.
<mgrwt>
<rscale>  0 0.32524095E+04</rscale>
<asrwt>0</asrwt>
<pdfrwt beam="1">  1        1 0.29003026E+00 0.32524095E+04</pdfrwt>
<pdfrwt beam="2">  1       -1 0.21581440E+00 0.32524095E+04</pdfrwt>
<totfact> 0.34875362E-01</totfact>
</mgrwt>
</event>
<event>
 6    1  0.2047711E-005  0.1911344E+04  0.7818608E-02  0.8649230E-01
         -2   -1    0    0    0  501 -0.00000000000E+00  0.00000000000E+00  0.20586733653E+04  0.20586733653E+04  0.00000000000E+00 0.  1.
          2   -1    0    0  501    0  0.00000000000E+00 -0.00000000000E+00 -0.44363941467E+03  0.44363941467E+03  0.00000000000E+00 0. -1.
         23    2    1    2    0    0  0.24635617611E+03 -0.27507900422E+03 -0.34152828458E+03  0.51120866307E+03  0.91284741097E+02 0.  0.
         13    1    3    3    0    0  0.18443943109E+03 -0.14295371355E+03 -0.22896323543E+03  0.32692175079E+03  0.00000000000E+00 0. -1.
        -13    1    3    3    0    0  0.61916745023E+02 -0.13212529067E+03 -0.11256504915E+03  0.18428691228E+03  0.00000000000E+00 0.  1.
         22    1    1    2    0    0 -0.24635617611E+03  0.27507900422E+03  0.19565622353E+04  0.19911041169E+04  0.00000000000E+00 0.  1.
<mgrwt>
<rscale>  0 0.19113437E+04</rscale>
<asrwt>0</asrwt>
<pdfrwt beam="1">  1        2 0.68252219E-01 0.19113437E+04</pdfrwt>
<pdfrwt beam="2">  1       -2 0.31671897E+00 0.19113437E+04</pdfrwt>
<totfact> 0.16625249E+00</totfact>
</mgrwt>
</event>
<event>
 6    1  0.2573789E-005  0.4782045E+04  0.7818608E-02  0.7863037E-01
         -1   -1    0    0    0  501 -0.00000000000E+00  0.00000000000E+00  0.15849191219E+04  0.15849191219E+04  0.00000000000E+00 0.  1.
          1   -1    0    0  501    0  0.00000000000E+00 -0.00000000000E+00 -0.36071174306E+04  0.36071174306E+04  0.00000000000E+00 0. -1.
         23    2    1    2    0    0  0.14802042336E+03 -0.16124610999E+04 -0.29202762818E+04  0.33404197210E+04  0.91921195158E+02 0.  0.
         13    1    3    3    0    0  0.76653162714E+02 -0.55857554066E+03 -0.10908816554E+04  0.12279678856E+04  0.00000000000E+00 0. -1.
        -13    1    3    3    0    0  0.71367260644E+02 -0.10538855593E+04 -0.18293946264E+04  0.21124518354E+04  0.00000000000E+00 0.  1.
         22    1    1    2    0    0 -0.14802042336E+03  0.16124610999E+04  0.89807797318E+03  0.18516168314E+04  0.00000000000E+00 0.  1.
<mgrwt>
<rscale>  0 0.47820453E+04</rscale>
<asrwt>0</asrwt>
<pdfrwt beam="1">  1        1 0.55494114E+00 0.47820453E+04</pdfrwt>
<pdfrwt beam="2">  1       -1 0.24383371E+00 0.47820453E+04</pdfrwt>
<totfact> 0.11518654E-02</totfact>
</mgrwt>
</event>
<event>
 6    1  0.2047711E-005  0.4680773E+04  0.7818608E-02  0.7879731E-01
         -2   -1    0    0    0  501 -0.00000000000E+00  0.00000000000E+00  0.15339271472E+04  0.15339271472E+04  0.00000000000E+00 0.  1.
          2   -1    0    0  501    0  0.00000000000E+00 -0.00000000000E+00 -0.35708397882E+04  0.35708397882E+04  0.00000000000E+00 0. -1.
         23    2    1    2    0    0 -0.18916577599E+04  0.30892338289E+03 -0.24817880303E+04  0.31370990648E+04  0.91191983099E+02 0.  0.
         13    1    3    3    0    0 -0.10993883841E+04  0.13476977590E+03 -0.14182329765E+04  0.17995006217E+04  0.00000000000E+00 0. -1.
        -13    1    3    3    0    0 -0.79226937581E+03  0.17415360698E+03 -0.10635550538E+04  0.13375984431E+04  0.00000000000E+00 0.  1.
         22    1    1    2    0    0  0.18916577599E+04 -0.30892338289E+03  0.44487538930E+03  0.19676678707E+04  0.00000000000E+00 0.  1.
<mgrwt>
<rscale>  0 0.46807726E+04</rscale>
<asrwt>0</asrwt>
<pdfrwt beam="1">  1        2 0.54935996E+00 0.46807726E+04</pdfrwt>
<pdfrwt beam="2">  1       -2 0.23598879E+00 0.46807726E+04</pdfrwt>
<totfact> 0.42341526E-02</totfact>
</mgrwt>
</event>
<event>
 6    1  0.2047711E-005  0.1616142E+04  0.7818608E-02  0.8810692E-01
         -2   -1    0    0    0  501 -0.00000000000E+00  0.00000000000E+00  0.16135210095E+03  0.16135210095E+03  0.00000000000E+00 0.  1.
          2   -1    0    0  501    0  0.00000000000E+00 -0.00000000000E+00 -0.40469199590E+04  0.40469199590E+04  0.00000000000E+00 0. -1.
         23    2    1    2    0    0 -0.74290209913E+03  0.20821763435E+02 -0.27579794054E+04  0.28577933325E+04  0.90527653610E+02 0.  0.
         13    1    3    3    0    0 -0.27076789640E+03 -0.34670093169E+02 -0.96584915380E+03  0.10036841420E+04  0.00000000000E+00 0.  1.
        -13    1    3    3    0    0 -0.47213420273E+03  0.55491856604E+02 -0.17921302516E+04  0.18541091905E+04  0.00000000000E+00 0. -1.
         22    1    1    2    0    0  0.74290209913E+03 -0.20821763435E+02 -0.11275884527E+04  0.13504787275E+04  0.00000000000E+00 0. -1.
<mgrwt>
<rscale>  0 0.16161424E+04</rscale>
<asrwt>0</asrwt>
<pdfrwt beam="1">  1        2 0.62260306E+00 0.16161424E+04</pdfrwt>
<pdfrwt beam="2">  1       -2 0.24823401E-01 0.16161424E+04</pdfrwt>
<totfact> 0.44502533E+00</totfact>
</mgrwt>
</event>
<event>
 6    1  0.2047711E-005  0.5537069E+04  0.7818608E-02  0.7750609E-01
          2   -1    0    0  501    0  0.00000000000E+00  0.00000000000E+00  0.32677437534E+04  0.32677437534E+04  0.00000000000E+00 0. -1.
         -2   -1    0    0    0  501 -0.00000000000E+00 -0.00000000000E+00 -0.23455889185E+04  0.23455889185E+04  0.00000000000E+00 0.  1.
         23    2    1    2    0    0 -0.27388793531E+04  0.34492842109E+03  0.66457668178E+03  0.28408279862E+04  0.90585620496E+02 0.  0.
         13    1    3    3    0    0 -0.20109662287E+04  0.26861175023E+03  0.45021824965E+03  0.20781804344E+04  0.00000000000E+00 0.  1.
        -13    1    3    3    0    0 -0.72791312440E+03  0.76316670863E+02  0.21435843213E+03  0.76264755186E+03  0.00000000000E+00 0. -1.
         22    1    1    2    0    0  0.27388793531E+04 -0.34492842109E+03  0.25757815312E+03  0.27725046856E+04  0.00000000000E+00 0.  1.
<mgrwt>
<rscale>  0 0.55370691E+04</rscale>
<asrwt>0</asrwt>
<pdfrwt beam="1">  1        2 0.50272980E+00 0.55370691E+04</pdfrwt>
<pdfrwt beam="2">  1       -2 0.36085984E+00 0.55370691E+04</pdfrwt>
<totfact> 0.10833423E-02</totfact>
</mgrwt>
</event>
<event>
 6    1  0.2047711E-005  0.1129514E+04  0.7818608E-02  0.9176894E-01
          2   -1    0    0  501    0  0.00000000000E+00  0.00000000000E+00  0.11363389496E+04  0.11363389496E+04  0.00000000000E+00 0. -1.
         -2   -1    0    0    0  501 -0.00000000000E+00 -0.00000000000E+00 -0.28068249739E+03  0.28068249739E+03  0.00000000000E+00 0.  1.
         23    2    1    2    0    0  0.27079201368E+03 -0.21428998490E+03 -0.12467464441E+03  0.37764780325E+03  0.88462331179E+02 0.  0.
         13    1    3    3    0    0  0.13722241063E+03 -0.53333747019E+02 -0.47276317198E+02  0.15462706335E+03  0.00000000000E+00 0.  1.
        -13    1    3    3    0    0  0.13356960305E+03 -0.16095623788E+03 -0.77398327216E+02  0.22302073990E+03  0.00000000000E+00 0. -1.
         22    1    1    2    0    0 -0.27079201368E+03  0.21428998490E+03  0.98033109663E+03  0.10393736437E+04  0.00000000000E+00 0. -1.
<mgrwt>
<rscale>  0 0.11295140E+04</rscale>
<asrwt>0</asrwt>
<pdfrwt beam="1">  1        2 0.17482137E+00 0.11295140E+04</pdfrwt>
<pdfrwt beam="2">  1       -2 0.43181923E-01 0.11295140E+04</pdfrwt>
<totfact> 0.10423449E+02</totfact>
</mgrwt>
</event>
<event>
 6    1  0.2047711E-005  0.4836507E+04  0.7818608E-02  0.7854235E-01
         -2   -1    0    0    0  501 -0.00000000000E+00  0.00000000000E+00  0.23368348955E+04  0.23368348955E+04  0.00000000000E+00 0.  1.
          2   -1    0    0  501    0  0.00000000000E+00 -0.00000000000E+00 -0.25025090533E+04  0.25025090533E+04  0.00000000000E+00 0. -1.
         23    2    1    2    0    0 -0.12648788600E+04  0.97582641933E+03  0.17324793964E+04  0.23583879544E+04  0.91395587493E+02 0.  0.
         11    1    3    3    0    0 -0.80775135609E+03  0.63162015876E+03  0.10473261616E+04  0.14657074629E+04  0.00000000000E+00 0.  1.
        -11    1    3    3    0    0 -0.45712750391E+03  0.34420626057E+03  0.68515323481E+03  0.89268049144E+03  0.00000000000E+00 0. -1.
         22    1    1    2    0    0  0.12648788600E+04 -0.97582641933E+03 -0.18981535542E+04  0.24809559944E+04  0.00000000000E+00 0. -1.
<mgrwt>
<rscale>  0 0.48365072E+04</rscale>
<asrwt>0</asrwt>
<pdfrwt beam="1">  1        2 0.38500139E+00 0.48365072E+04</pdfrwt>
<pdfrwt beam="2">  1       -2 0.35951306E+00 0.48365072E+04</pdfrwt>
<totfact> 0.34659656E-02</totfact>
</mgrwt>
</event>
<event>
 6    1  0.2047711E-005  0.1546914E+04  0.7818608E-02  0.8853841E-01
          2   -1    0    0  501    0  0.00000000000E+00  0.00000000000E+00  0.82741373678E+03  0.82741373678E+03  0.00000000000E+00 0. -1.
         -2   -1    0    0    0  501 -0.00000000000E+00 -0.00000000000E+00 -0.72301865336E+03  0.72301865336E+03  0.00000000000E+00 0.  1.
         23    2    1    2    0    0  0.27128751039E+03 -0.40594928037E+03  0.65004456837E+03  0.81822675513E+03  0.92441064542E+02 0.  0.
         11    1    3    3    0    0  0.13258221329E+03 -0.22221185828E+03  0.41618088204E+03  0.49006395483E+03  0.00000000000E+00 0.  1.
        -11    1    3    3    0    0  0.13870529710E+03 -0.18373742209E+03  0.23386368632E+03  0.32816280030E+03  0.00000000000E+00 0. -1.
         22    1    1    2    0    0 -0.27128751039E+03  0.40594928037E+03 -0.54564948494E+03  0.73220563501E+03  0.00000000000E+00 0.  1.
<mgrwt>
<rscale>  0 0.15469138E+04</rscale>
<asrwt>0</asrwt>
<pdfrwt beam="1">  1        2 0.12729442E+00 0.15469138E+04</pdfrwt>
<pdfrwt beam="2">  1       -2 0.11123364E+00 0.15469138E+04</pdfrwt>
<totfact> 0.20271811E+01</totfact>
</mgrwt>
</event>
<event>
 6    1  0.2047711E-005  0.2412071E+04  0.7818608E-02  0.8434998E-01
          2   -1    0    0  501    0  0.00000000000E+00  0.00000000000E+00  0.29039550042E+04  0.29039550042E+04  0.00000000000E+00 0. -1.
         -2   -1    0    0    0  501 -0.00000000000E+00 -0.00000000000E+00 -0.50087598293E+03  0.50087598293E+03  0.00000000000E+00 0.  1.
         23    2    1    2    0    0 -0.96092270968E+03  0.57466868444E+03  0.57760019302E+03  0.12633386329E+04  0.93733491989E+02 0.  0.
         11    1    3    3    0    0 -0.22905902861E+03  0.14110201626E+03  0.18473011117E+03  0.32634802214E+03  0.00000000000E+00 0. -1.
        -11    1    3    3    0    0 -0.73186368107E+03  0.43356666819E+03  0.39287008185E+03  0.93699061075E+03  0.00000000000E+00 0.  1.
         22    1    1    2    0    0  0.96092270968E+03 -0.57466868444E+03  0.18254788282E+04  0.21414923542E+04  0.00000000000E+00 0.  1.
<mgrwt>
<rscale>  0 0.24120707E+04</rscale>
<asrwt>0</asrwt>
<pdfrwt beam="1">  1        2 0.44676229E+00 0.24120707E+04</pdfrwt>
<pdfrwt beam="2">  1       -2 0.77057846E-01 0.24120707E+04</pdfrwt>
<totfact> 0.26989486E+00</totfact>
</mgrwt>
</event>
<event>
 6    1  0.2047711E-005  0.5325850E+04  0.7818608E-02  0.7780118E-01
         -2   -1    0    0    0  501 -0.00000000000E+00  0.00000000000E+00  0.19869421830E+04  0.19869421830E+04  0.00000000000E+00 0.  1.
          2   -1    0    0  501    0  0.00000000000E+00 -0.00000000000E+00 -0.35688853513E+04  0.35688853513E+04  0.00000000000E+00 0. -1.
         23    2    1    2    0    0 -0.46095452483E+03 -0.65149771277E+03  0.18581682642E+04  0.20243554599E+04  0.91089990247E+02 0.  0.
         11    1    3    3    0    0 -0.40763998750E+03 -0.55955152521E+03  0.15282965973E+04  0.16777838830E+04  0.00000000000E+00 0. -1.
        -11    1    3    3    0    0 -0.53314537323E+02 -0.91946187557E+02  0.32987166689E+03  0.34657157690E+03  0.00000000000E+00 0.  1.
         22    1    1    2    0    0  0.46095452483E+03  0.65149771277E+03 -0.34401114325E+04  0.35314720743E+04  0.00000000000E+00 0. -1.
<mgrwt>
<rscale>  0 0.53258497E+04</rscale>
<asrwt>0</asrwt>
<pdfrwt beam="1">  1        2 0.54905928E+00 0.53258497E+04</pdfrwt>
<pdfrwt beam="2">  1       -2 0.30568341E+00 0.53258497E+04</pdfrwt>
<totfact> 0.15089161E-02</totfact>
</mgrwt>
</event>
<event>
 6    1  0.2047711E-005  0.1812357E+04  0.7818608E-02  0.8699756E-01
         -2   -1    0    0    0  501 -0.00000000000E+00  0.00000000000E+00  0.32188405434E+03  0.32188405434E+03  0.00000000000E+00 0.  1.
          2   -1    0    0  501    0  0.00000000000E+00 -0.00000000000E+00 -0.25511039044E+04  0.25511039044E+04  0.00000000000E+00 0. -1.
         23    2    1    2    0    0 -0.18792732060E+03  0.88304438216E+03 -0.11827581754E+04  0.14909003728E+04  0.93717455365E+02 0.  0.
         11    1    3    3    0    0 -0.89349520092E+02  0.58942048784E+03 -0.73326009442E+03  0.94502392260E+03  0.00000000000E+00 0. -1.
        -11    1    3    3    0    0 -0.98577800512E+02  0.29362389431E+03 -0.44949808101E+03  0.54587645022E+03  0.00000000000E+00 0.  1.
         22    1    1    2    0    0  0.18792732060E+03 -0.88304438216E+03 -0.10464616747E+04  0.13820875859E+04  0.00000000000E+00 0. -1.
<mgrwt>
<rscale>  0 0.18123572E+04</rscale>
<asrwt>0</asrwt>
<pdfrwt beam="1">  1        2 0.39247754E+00 0.18123572E+04</pdfrwt>
<pdfrwt beam="2">  1       -2 0.49520622E-01 0.18123572E+04</pdfrwt>
<totfact> 0.11848114E+01</totfact>
</mgrwt>
</event>
<event>
 6    1  0.2047711E-005  0.4821213E+04  0.7818608E-02  0.7856695E-01
         -2   -1    0    0    0  501 -0.00000000000E+00  0.00000000000E+00  0.20514225315E+04  0.20514225315E+04  0.00000000000E+00 0. -1.
          2   -1    0    0  501    0  0.00000000000E+00 -0.00000000000E+00 -0.28326798671E+04  0.28326798671E+04  0.00000000000E+00 0.  1.
         23    2    1    2    0    0  0.20573206526E+04  0.12488491874E+04 -0.51298559130E+03  0.24624991509E+04  0.92494817400E+02 0.  0.
         11    1    3    3    0    0  0.10063868994E+04  0.63657816718E+03 -0.29540089512E+03  0.12269099572E+04  0.00000000000E+00 0.  1.
        -11    1    3    3    0    0  0.10509337532E+04  0.61227102018E+03 -0.21758469619E+03  0.12355891938E+04  0.00000000000E+00 0. -1.
         22    1    1    2    0    0 -0.20573206526E+04 -0.12488491874E+04 -0.26827174433E+03  0.24216032477E+04  0.00000000000E+00 0. -1.
<mgrwt>
<rscale>  0 0.48212128E+04</rscale>
<asrwt>0</asrwt>
<pdfrwt beam="1">  1        2 0.43579690E+00 0.48212128E+04</pdfrwt>
<pdfrwt beam="2">  1       -2 0.31560347E+00 0.48212128E+04</pdfrwt>
<totfact> 0.41567736E-02</totfact>
</mgrwt>
</event>
<event>
 6    1  0.2047711E-005  0.1502053E+04  0.7818608E-02  0.8883089E-01
          2   -1    0    0  501    0  0.00000000000E+00  0.00000000000E+00  0.24269419580E+04  0.24269419580E+04  0.00000000000E+00 0. -1.
         -2   -1    0    0    0  501 -0.00000000000E+00 -0.00000000000E+00 -0.23240804443E+03  0.23240804443E+03  0.00000000000E+00 0.  1.
         23    2    1    2    0    0  0.22406290479E+03  0.71395906299E+03  0.11009588068E+04  0.13342657624E+04  0.90626164275E+02 0.  0.
         13    1    3    3    0    0  0.83606182273E+02  0.17515444604E+03  0.23565012149E+03  0.30528683797E+03  0.00000000000E+00 0.  1.
        -13    1    3    3    0    0  0.14045672252E+03  0.53880461695E+03  0.86530868529E+03  0.10289789245E+04  0.00000000000E+00 0. -1.
         22    1    1    2    0    0 -0.22406290479E+03 -0.71395906299E+03  0.10935751068E+04  0.13250842400E+04  0.00000000000E+00 0. -1.
<mgrwt>
<rscale>  0 0.15020530E+04</rscale>
<asrwt>0</asrwt>
<pdfrwt beam="1">  1        2 0.37337567E+00 0.15020530E+04</pdfrwt>
<pdfrwt beam="2">  1       -2 0.35755086E-01 0.15020530E+04</pdfrwt>
<totfact> 0.27314672E+01</totfact>
</mgrwt>
</event>
<event>
 6    1  0.2047711E-005  0.2046541E+04  0.7818608E-02  0.8585165E-01
         -1   -1    0    0    0  501 -0.00000000000E+00  0.00000000000E+00  0.20888070651E+04  0.20888070651E+04  0.00000000000E+00 0.  1.
          1   -1    0    0  501    0  0.00000000000E+00 -0.00000000000E+00 -0.50128258973E+03  0.50128258973E+03  0.00000000000E+00 0. -1.
         23    2    1    2    0    0 -0.91855646590E+03  0.26342135557E+03  0.12513258651E+04  0.15770909889E+04  0.90899807715E+02 0.  0.
         11    1    3    3    0    0 -0.48101148354E+02  0.31074900699E+02  0.54367328090E+02  0.78963132474E+02  0.00000000000E+00 0.  1.
        -11    1    3    3    0    0 -0.87045531754E+03  0.23234645487E+03  0.11969585370E+04  0.14981278564E+04  0.00000000000E+00 0. -1.
         22    1    1    2    0    0  0.91855646590E+03 -0.26342135557E+03  0.33619861029E+03  0.10129986659E+04  0.00000000000E+00 0.  1.
<mgrwt>
<rscale>  0 0.20465411E+04</rscale>
<asrwt>0</asrwt>
<pdfrwt beam="1">  1        1 0.77120400E-01 0.20465411E+04</pdfrwt>
<pdfrwt beam="2">  1       -1 0.32135493E+00 0.20465411E+04</pdfrwt>
<totfact> 0.97953951E-01</totfact>
</mgrwt>
</event>
<event>
 6    1  0.2047711E-005  0.2737568E+04  0.7818608E-02  0.8322918E-01
          1   -1    0    0  501    0  0.00000000000E+00  0.00000000000E+00  0.17824066305E+04  0.17824066305E+04  0.00000000000E+00 0. -1.
         -1   -1    0    0    0  501 -0.00000000000E+00 -0.00000000000E+00 -0.10511457238E+04  0.10511457238E+04  0.00000000000E+00 0.  1.
         23    2    1    2    0    0  0.13159717606E+04 -0.36080405903E+03  0.45553502893E+03  0.14414366970E+04  0.90919444199E+02 0.  0.
         13    1    3    3    0    0  0.80817353824E+03 -0.18685721483E+03  0.24573960329E+03  0.86512891483E+03  0.00000000000E+00 0.  1.
        -13    1    3    3    0    0  0.50779822234E+03 -0.17394684419E+03  0.20979542564E+03  0.57630778221E+03  0.00000000000E+00 0. -1.
         22    1    1    2    0    0 -0.13159717606E+04  0.36080405903E+03  0.27572587779E+03  0.13921156573E+04  0.00000000000E+00 0. -1.
<mgrwt>
<rscale>  0 0.27375676E+04</rscale>
<asrwt>0</asrwt>
<pdfrwt beam="1">  1        1 0.27421640E+00 0.27375676E+04</pdfrwt>
<pdfrwt beam="2">  1       -1 0.16171473E+00 0.27375676E+04</pdfrwt>
<totfact> 0.10338489E+00</totfact>
</mgrwt>
</event>
<event>
 6    1  0.2047711E-005  0.2832685E+04  0.7818608E-02  0.8293192E-01
         -2   -1    0    0    0  501 -0.00000000000E+00  0.00000000000E+00  0.10298453415E+04  0.10298453415E+04  0.00000000000E+00 0.  1.
          2   -1    0    0  501    0  0.00000000000E+00 -0.00000000000E+00 -0.19478900187E+04  0.19478900187E+04  0.00000000000E+00 0. -1.
         23    2    1    2    0    0 -0.66449907612E+03 -0.66089385357E+03 -0.15737167739E+04  0.18339497132E+04  0.91909510324E+02 0.  0.
         11    1    3    3    0    0 -0.56033007450E+03 -0.50620203489E+03 -0.12711815835E+04  0.14785509497E+04  0.00000000000E+00 0. -1.
        -11    1    3    3    0    0 -0.10416900162E+03 -0.15469181867E+03 -0.30253519042E+03  0.35539876351E+03  0.00000000000E+00 0.  1.
         22    1    1    2    0    0  0.66449907612E+03  0.66089385357E+03  0.65567209673E+03  0.11437856470E+04  0.00000000000E+00 0.  1.
<mgrwt>
<rscale>  0 0.28326846E+04</rscale>
<asrwt>0</asrwt>
<pdfrwt beam="1">  1        2 0.29967538E+00 0.28326846E+04</pdfrwt>
<pdfrwt beam="2">  1       -2 0.15843775E+00 0.28326846E+04</pdfrwt>
<totfact> 0.16037078E+00</totfact>
</mgrwt>
</event>
<event>
 6    1  0.2047711E-005  0.1209143E+04  0.7818608E-02  0.9104891E-01
         -2   -1    0    0    0  501 -0.00000000000E+00  0.00000000000E+00  0.11508138916E+03  0.11508138916E+03  0.00000000000E+00 0.  1.
          2   -1    0    0  501    0  0.00000000000E+00 -0.00000000000E+00 -0.31760709489E+04  0.31760709489E+04  0.00000000000E+00 0. -1.
         23    2    1    2    0    0 -0.25030261372E+03 -0.61211784346E+02 -0.30174579451E+04  0.30298225035E+04  0.91507766681E+02 0.  0.
         11    1    3    3    0    0 -0.74718239962E+02  0.16910510830E+02 -0.62961199684E+03  0.63425550634E+03  0.00000000000E+00 0. -1.
        -11    1    3    3    0    0 -0.17558437376E+03 -0.78122295175E+02 -0.23878459482E+04  0.23955669971E+04  0.00000000000E+00 0.  1.
         22    1    1    2    0    0  0.25030261372E+03  0.61211784346E+02 -0.43531614702E+02  0.26132983461E+03  0.00000000000E+00 0.  1.
<mgrwt>
<rscale>  0 0.12091429E+04</rscale>
<asrwt>0</asrwt>
<pdfrwt beam="1">  1        2 0.48862625E+00 0.12091429E+04</pdfrwt>
<pdfrwt beam="2">  1       -2 0.17704831E-01 0.12091429E+04</pdfrwt>
<totfact> 0.35673749E+01</totfact>
</mgrwt>
</event>
<event>
 6    1  0.2047711E-005  0.5135808E+03  0.7818608E-02  0.1010294E+00
         -2   -1    0    0    0  501 -0.00000000000E+00  0.00000000000E+00  0.24369476662E+03  0.24369476662E+03  0.00000000000E+00 0.  1.
          2   -1    0    0  501    0  0.00000000000E+00 -0.00000000000E+00 -0.27058973001E+03  0.27058973001E+03  0.00000000000E+00 0. -1.
         23    2    1    2    0    0  0.20367909150E+03  0.13667185753E+03 -0.55955930759E+02  0.26728468129E+03  0.90253341822E+02 0.  0.
         11    1    3    3    0    0  0.37694622709E+01  0.26460359619E+02  0.11724196379E+02  0.29185891415E+02  0.00000000000E+00 0.  1.
        -11    1    3    3    0    0  0.19990962923E+03  0.11021149791E+03 -0.67680127138E+02  0.23809878987E+03  0.00000000000E+00 0. -1.
         22    1    1    2    0    0 -0.20367909150E+03 -0.13667185753E+03  0.29060967370E+02  0.24699981534E+03  0.00000000000E+00 0. -1.
<mgrwt>
<rscale>  0 0.51358077E+03</rscale>
<asrwt>0</asrwt>
<pdfrwt beam="1">  1        2 0.41629189E-01 0.51358077E+03</pdfrwt>
<pdfrwt beam="2">  1       -2 0.37491503E-01 0.51358077E+03</pdfrwt>
<totfact> 0.82963411E+02</totfact>
</mgrwt>
</event>
<event>
 6    1  0.2047711E-005  0.6252896E+03  0.7818608E-02  0.9854284E-01
          2   -1    0    0  501    0  0.00000000000E+00  0.00000000000E+00  0.22176423155E+04  0.22176423155E+04  0.00000000000E+00 0. -1.
         -2   -1    0    0    0  501 -0.00000000000E+00 -0.00000000000E+00 -0.44076883549E+02  0.44076883549E+02  0.00000000000E+00 0.  1.
         23    2    1    2    0    0  0.21396896490E+03  0.15891820432E+03  0.56540320751E+03  0.63161998313E+03  0.90693453055E+02 0.  0.
         11    1    3    3    0    0  0.68116639958E+02  0.38459462045E+01  0.12276216447E+03  0.14044649147E+03  0.00000000000E+00 0. -1.
        -11    1    3    3    0    0  0.14585232494E+03  0.15507225812E+03  0.44264104304E+03  0.49117349166E+03  0.00000000000E+00 0.  1.
         22    1    1    2    0    0 -0.21396896490E+03 -0.15891820432E+03  0.16081622244E+04  0.16300992159E+04  0.00000000000E+00 0. -1.
<mgrwt>
<rscale>  0 0.62528957E+03</rscale>
<asrwt>0</asrwt>
<pdfrwt beam="1">  1        2 0.34117565E+00 0.62528957E+03</pdfrwt>
<pdfrwt beam="2">  1       -2 0.67810607E-02 0.62528957E+03</pdfrwt>
<totfact> 0.67124152E+02</totfact>
</mgrwt>
</event>
<event>
 6    1  0.2047711E-005  0.2585440E+04  0.7818608E-02  0.8373164E-01
         -2   -1    0    0    0  501 -0.00000000000E+00  0.00000000000E+00  0.75196391439E+03  0.75196391439E+03  0.00000000000E+00 0.  1.
          2   -1    0    0  501    0  0.00000000000E+00 -0.00000000000E+00 -0.22223477650E+04  0.22223477650E+04  0.00000000000E+00 0. -1.
         23    2    1    2    0    0  0.58413343511E+03 -0.77985846672E+03 -0.17106291522E+04  0.19707635226E+04  0.90915716970E+02 0.  0.
         11    1    3    3    0    0  0.39335311330E+03 -0.57817274428E+03 -0.11710830655E+04  0.13639816495E+04  0.00000000000E+00 0. -1.
        -11    1    3    3    0    0  0.19078032180E+03 -0.20168572244E+03 -0.53954608669E+03  0.60678187307E+03  0.00000000000E+00 0.  1.
         22    1    1    2    0    0 -0.58413343511E+03  0.77985846672E+03  0.24024530156E+03  0.10035481568E+04  0.00000000000E+00 0.  1.
<mgrwt>
<rscale>  0 0.25854403E+04</rscale>
<asrwt>0</asrwt>
<pdfrwt beam="1">  1        2 0.34189965E+00 0.25854403E+04</pdfrwt>
<pdfrwt beam="2">  1       -2 0.11568676E+00 0.25854403E+04</pdfrwt>
<totfact> 0.25813693E+00</totfact>
</mgrwt>
</event>
<event>
 6    1  0.2047711E-005  0.2806211E+04  0.7818608E-02  0.8301343E-01
          2   -1    0    0  501    0  0.00000000000E+00  0.00000000000E+00  0.19728605320E+04  0.19728605320E+04  0.00000000000E+00 0. -1.
         -2   -1    0    0    0  501 -0.00000000000E+00 -0.00000000000E+00 -0.99789401156E+03  0.99789401156E+03  0.00000000000E+00 0.  1.
         23    2    1    2    0    0  0.76729284587E+03 -0.88352893482E+03 -0.32873614719E+03  0.12188977185E+04  0.91008261395E+02 0.  0.
         13    1    3    3    0    0  0.72349138418E+02 -0.51432906267E+02 -0.37268745395E+02  0.96274093401E+02  0.00000000000E+00 0.  1.
        -13    1    3    3    0    0  0.69494370746E+03 -0.83209602855E+03 -0.29146740179E+03  0.11226236251E+04  0.00000000000E+00 0. -1.
         22    1    1    2    0    0 -0.76729284587E+03  0.88352893482E+03  0.13037026676E+04  0.17518568250E+04  0.00000000000E+00 0. -1.
<mgrwt>
<rscale>  0 0.28062115E+04</rscale>
<asrwt>0</asrwt>
<pdfrwt beam="1">  1        2 0.30351700E+00 0.28062115E+04</pdfrwt>
<pdfrwt beam="2">  1       -2 0.15352216E+00 0.28062115E+04</pdfrwt>
<totfact> 0.16946891E+00</totfact>
</mgrwt>
</event>
<event>
 6    1  0.2047711E-005  0.2339800E+04  0.7818608E-02  0.8462392E-01
          2   -1    0    0  501    0  0.00000000000E+00  0.00000000000E+00  0.19507975971E+04  0.19507975971E+04  0.00000000000E+00 0. -1.
         -2   -1    0    0    0  501 -0.00000000000E+00 -0.00000000000E+00 -0.70159294132E+03  0.70159294132E+03  0.00000000000E+00 0.  1.
         23    2    1    2    0    0  0.47001760750E+03  0.22708774708E+03 -0.55907075787E+03  0.77027859493E+03  0.91014313529E+02 0.  0.
         13    1    3    3    0    0  0.12241328359E+03  0.87261817148E+02 -0.20947607666E+03  0.25783689307E+03  0.00000000000E+00 0. -1.
        -13    1    3    3    0    0  0.34760432390E+03  0.13982592993E+03 -0.34959468120E+03  0.51244170186E+03  0.00000000000E+00 0.  1.
         22    1    1    2    0    0 -0.47001760750E+03 -0.22708774708E+03  0.18082754137E+04  0.18821119435E+04  0.00000000000E+00 0. -1.
<mgrwt>
<rscale>  0 0.23397998E+04</rscale>
<asrwt>0</asrwt>
<pdfrwt beam="1">  1        2 0.30012270E+00 0.23397998E+04</pdfrwt>
<pdfrwt beam="2">  1       -2 0.10793738E+00 0.23397998E+04</pdfrwt>
<totfact> 0.44227354E+00</totfact>
</mgrwt>
</event>
<event>
 6    1  0.2047711E-005  0.1901432E+04  0.7818608E-02  0.8654144E-01
          2   -1    0    0  501    0  0.00000000000E+00  0.00000000000E+00  0.23096474246E+04  0.23096474246E+04  0.00000000000E+00 0. -1.
         -2   -1    0    0    0  501 -0.00000000000E+00 -0.00000000000E+00 -0.39134146174E+03  0.39134146174E+03  0.00000000000E+00 0.  1.
         23    2    1    2    0    0 -0.35462906384E+03 -0.49833474744E+03  0.19911452672E+04  0.20850303993E+04  0.92698423587E+02 0.  0.
         11    1    3    3    0    0 -0.11621469155E+03 -0.15640470723E+03  0.49713170197E+03  0.53395525662E+03  0.00000000000E+00 0.  1.
        -11    1    3    3    0    0 -0.23841437228E+03 -0.34193004021E+03  0.14940135652E+04  0.15510751427E+04  0.00000000000E+00 0. -1.
         22    1    1    2    0    0  0.35462906384E+03  0.49833474744E+03 -0.72839304340E+02  0.61595848698E+03  0.00000000000E+00 0.  1.
<mgrwt>
<rscale>  0 0.19014319E+04</rscale>
<asrwt>0</asrwt>
<pdfrwt beam="1">  1        2 0.35533037E+00 0.19014319E+04</pdfrwt>
<pdfrwt beam="2">  1       -2 0.60206380E-01 0.19014319E+04</pdfrwt>
<totfact> 0.10782687E+01</totfact>
</mgrwt>
</event>
<event>
 6    1  0.2047711E-005  0.1454245E+04  0.7818608E-02  0.8915463E-01
         -2   -1    0    0    0  501 -0.00000000000E+00  0.00000000000E+00  0.27525308389E+03  0.27525308389E+03  0.00000000000E+00 0.  1.
          2   -1    0    0  501    0  0.00000000000E+00 -0.00000000000E+00 -0.19208034657E+04  0.19208034657E+04  0.00000000000E+00 0. -1.
         23    2    1    2    0    0 -0.30017904625E+03  0.48196502553E+03 -0.14649100936E+03  0.59306660958E+03  0.88716638382E+02 0.  0.
         11    1    3    3    0    0 -0.24788521205E+03  0.44551440291E+03 -0.14161691021E+03  0.52913657103E+03  0.00000000000E+00 0.  1.
        -11    1    3    3    0    0 -0.52293834201E+02  0.36450622628E+02 -0.48740991512E+01  0.63930038541E+02  0.00000000000E+00 0. -1.
         22    1    1    2    0    0  0.30017904625E+03 -0.48196502553E+03 -0.14990593725E+04  0.16029899400E+04  0.00000000000E+00 0. -1.
<mgrwt>
<rscale>  0 0.14542449E+04</rscale>
<asrwt>0</asrwt>
<pdfrwt beam="1">  1        2 0.29550823E+00 0.14542449E+04</pdfrwt>
<pdfrwt beam="2">  1       -2 0.42346627E-01 0.14542449E+04</pdfrwt>
<totfact> 0.37900412E+01</totfact>
</mgrwt>
</event>
<event>
 6    1  0.2047711E-005  0.3712854E+04  0.7818608E-02  0.8065119E-01
         -2   -1    0    0    0  501 -0.00000000000E+00  0.00000000000E+00  0.24245901444E+04  0.24245901444E+04  0.00000000000E+00 0.  1.
          2   -1    0    0  501    0  0.00000000000E+00 -0.00000000000E+00 -0.14214034399E+04  0.14214034399E+04  0.00000000000E+00 0. -1.
         23    2    1    2    0    0 -0.15231520777E+04 -0.75436700679E+03  0.12711836024E+04  0.21252715934E+04  0.10867272782E+03 0.  0.
         11    1    3    3    0    0 -0.69173126950E+03 -0.31740711461E+03  0.50794591336E+03  0.91501282860E+03  0.00000000000E+00 0. -1.
        -11    1    3    3    0    0 -0.83142080819E+03 -0.43695989218E+03  0.76323768907E+03  0.12102587648E+04  0.00000000000E+00 0.  1.
         22    1    1    2    0    0  0.15231520777E+04  0.75436700679E+03 -0.26799689799E+03  0.17207219909E+04  0.00000000000E+00 0. -1.
<mgrwt>
<rscale>  0 0.37128538E+04</rscale>
<asrwt>0</asrwt>
<pdfrwt beam="1">  1        2 0.21867745E+00 0.37128538E+04</pdfrwt>
<pdfrwt beam="2">  1       -2 0.37301387E+00 0.37128538E+04</pdfrwt>
<totfact> 0.12608736E-01</totfact>
</mgrwt>
</event>
<event>
 6    1  0.2047711E-005  0.5588232E+03  0.7818608E-02  0.9994721E-01
         -1   -1    0    0    0  501 -0.00000000000E+00  0.00000000000E+00  0.53887671338E+02  0.53887671338E+02  0.00000000000E+00 0.  1.
          1   -1    0    0  501    0  0.00000000000E+00 -0.00000000000E+00 -0.14487698969E+04  0.14487698969E+04  0.00000000000E+00 0. -1.
         23    2    1    2    0    0  0.11537539462E+03 -0.26033801440E+02 -0.13745660160E+04  0.13826492816E+04  0.91093704297E+02 0.  0.
         11    1    3    3    0    0  0.67724043306E+02 -0.23060333102E+01 -0.11445371969E+04  0.11465414336E+04  0.00000000000E+00 0.  1.
        -11    1    3    3    0    0  0.47651351310E+02 -0.23727768130E+02 -0.23002881915E+03  0.23610784803E+03  0.00000000000E+00 0. -1.
         22    1    1    2    0    0 -0.11537539462E+03  0.26033801440E+02 -0.20316209563E+02  0.12000828668E+03  0.00000000000E+00 0.  1.
<mgrwt>
<rscale>  0 0.55882318E+03</rscale>
<asrwt>0</asrwt>
<pdfrwt beam="1">  1        1 0.22288765E+00 0.55882318E+03</pdfrwt>
<pdfrwt beam="2">  1       -1 0.82904118E-02 0.55882318E+03</pdfrwt>
<totfact> 0.61822197E+02</totfact>
</mgrwt>
</event>
<event>
 6    1  0.2047711E-005  0.7752513E+03  0.7818608E-02  0.9596547E-01
         -2   -1    0    0    0  501 -0.00000000000E+00  0.00000000000E+00  0.61642243414E+03  0.61642243414E+03  0.00000000000E+00 0.  1.
          2   -1    0    0  501    0  0.00000000000E+00 -0.00000000000E+00 -0.24375109186E+03  0.24375109186E+03  0.00000000000E+00 0. -1.
         23    2    1    2    0    0  0.46877201305E+02 -0.66864775317E+02  0.60339133711E+03  0.61542858490E+03  0.89458745962E+02 0.  0.
         11    1    3    3    0    0 -0.74210268266E+01  0.87733166189E+01  0.24077550621E+03  0.24104955323E+03  0.00000000000E+00 0. -1.
        -11    1    3    3    0    0  0.54298228132E+02 -0.75638091936E+02  0.36261583090E+03  0.37437903167E+03  0.00000000000E+00 0.  1.
         22    1    1    2    0    0 -0.46877201305E+02  0.66864775317E+02 -0.23071999483E+03  0.24474494110E+03  0.00000000000E+00 0. -1.
<mgrwt>
<rscale>  0 0.77525129E+03</rscale>
<asrwt>0</asrwt>
<pdfrwt beam="1">  1        2 0.37500168E-01 0.77525129E+03</pdfrwt>
<pdfrwt beam="2">  1       -2 0.94834220E-01 0.77525129E+03</pdfrwt>
<totfact> 0.13060670E+02</totfact>
</mgrwt>
</event>
<event>
 6    1  0.2047711E-005  0.3270085E+04  0.7818608E-02  0.8170549E-01
         -2   -1    0    0    0  501 -0.00000000000E+00  0.00000000000E+00  0.11944883145E+04  0.11944883145E+04  0.00000000000E+00 0.  1.
          2   -1    0    0  501    0  0.00000000000E+00 -0.00000000000E+00 -0.22380834725E+04  0.22380834725E+04  0.00000000000E+00 0. -1.
         23    2    1    2    0    0  0.10570288317E+04  0.67488565591E+03  0.57693890854E+03  0.13834472762E+04  0.91034401874E+02 0.  0.
         13    1    3    3    0    0  0.48607141096E+03  0.34631230652E+03  0.31155675369E+03  0.67324976121E+03  0.00000000000E+00 0.  1.
        -13    1    3    3    0    0  0.57095742075E+03  0.32857334939E+03  0.26538215485E+03  0.71019751503E+03  0.00000000000E+00 0. -1.
         22    1    1    2    0    0 -0.10570288317E+04 -0.67488565591E+03 -0.16205340666E+04  0.20491245107E+04  0.00000000000E+00 0. -1.
<mgrwt>
<rscale>  0 0.32700854E+04</rscale>
<asrwt>0</asrwt>
<pdfrwt beam="1">  1        2 0.34432053E+00 0.32700854E+04</pdfrwt>
<pdfrwt beam="2">  1       -2 0.18376744E+00 0.32700854E+04</pdfrwt>
<totfact> 0.70292287E-01</totfact>
</mgrwt>
</event>
<event>
 6    1  0.2047711E-005  0.1183093E+04  0.7818608E-02  0.9127785E-01
          1   -1    0    0  501    0  0.00000000000E+00  0.00000000000E+00  0.38634895164E+04  0.38634895164E+04  0.00000000000E+00 0. -1.
         -1   -1    0    0    0  501 -0.00000000000E+00 -0.00000000000E+00 -0.90572905912E+02  0.90572905912E+02  0.00000000000E+00 0.  1.
         23    2    1    2    0    0  0.23664255541E+03  0.49258242617E+03  0.26262159701E+04  0.26838028015E+04  0.84557732666E+02 0.  0.
         11    1    3    3    0    0  0.18764703887E+03  0.29668932866E+03  0.16629133424E+04  0.16995636950E+04  0.00000000000E+00 0. -1.
        -11    1    3    3    0    0  0.48995516538E+02  0.19589309751E+03  0.96330262762E+03  0.98423910646E+03  0.00000000000E+00 0.  1.
         22    1    1    2    0    0 -0.23664255541E+03 -0.49258242617E+03  0.11467006405E+04  0.12702596209E+04  0.00000000000E+00 0. -1.
<mgrwt>
<rscale>  0 0.11830934E+04</rscale>
<asrwt>0</asrwt>
<pdfrwt beam="1">  1        1 0.59438287E+00 0.11830934E+04</pdfrwt>
<pdfrwt beam="2">  1       -1 0.13934296E-01 0.11830934E+04</pdfrwt>
<totfact> 0.47802690E+00</totfact>
</mgrwt>
</event>
<event>
 6    1  0.2047711E-005  0.1158867E+04  0.7818608E-02  0.9149642E-01
         -4   -1    0    0    0  501 -0.00000000000E+00  0.00000000000E+00  0.19225419381E+03  0.19225419381E+03  0.00000000000E+00 0.  1.
          4   -1    0    0  501    0  0.00000000000E+00 -0.00000000000E+00 -0.17463512685E+04  0.17463512685E+04  0.00000000000E+00 0. -1.
         23    2    1    2    0    0 -0.37978321713E+03  0.18110857793E+03 -0.12406052802E+03  0.44795455287E+03  0.90756034613E+02 0.  0.
         11    1    3    3    0    0 -0.35703361213E+03  0.14086530619E+03 -0.11652440971E+03  0.40111590935E+03  0.00000000000E+00 0. -1.
        -11    1    3    3    0    0 -0.22749604999E+02  0.40243271741E+02 -0.75361183117E+01  0.46838643524E+02  0.00000000000E+00 0.  1.
         22    1    1    2    0    0  0.37978321713E+03 -0.18110857793E+03 -0.14300365467E+04  0.14906509095E+04  0.00000000000E+00 0. -1.
<mgrwt>
<rscale>  0 0.11588673E+04</rscale>
<asrwt>0</asrwt>
<pdfrwt beam="1">  1        4 0.26866942E+00 0.11588673E+04</pdfrwt>
<pdfrwt beam="2">  1       -4 0.29577569E-01 0.11588673E+04</pdfrwt>
<totfact> 0.10654414E+00</totfact>
</mgrwt>
</event>
<event>
 6    1  0.2047711E-005  0.3799079E+03  0.7818608E-02  0.1050968E+00
          2   -1    0    0  501    0  0.00000000000E+00  0.00000000000E+00  0.37106428840E+04  0.37106428840E+04  0.00000000000E+00 0. -1.
         -2   -1    0    0    0  501 -0.00000000000E+00 -0.00000000000E+00 -0.97240592933E+01  0.97240592933E+01  0.00000000000E+00 0.  1.
         23    2    1    2    0    0  0.12167736258E+03 -0.64699491217E+02  0.30726564649E+04  0.30771679092E+04  0.93558459188E+02 0.  0.
         11    1    3    3    0    0  0.11179162700E+03 -0.15160622158E+02  0.18198577099E+04  0.18233511172E+04  0.00000000000E+00 0.  1.
        -11    1    3    3    0    0  0.98857355829E+01 -0.49538869059E+02  0.12527987550E+04  0.12538167920E+04  0.00000000000E+00 0. -1.
         22    1    1    2    0    0 -0.12167736258E+03  0.64699491217E+02  0.62826235977E+03  0.64319903407E+03  0.00000000000E+00 0.  1.
<mgrwt>
<rscale>  0 0.37990794E+03</rscale>
<asrwt>0</asrwt>
<pdfrwt beam="1">  1        2 0.57086701E+00 0.37990794E+03</pdfrwt>
<pdfrwt beam="2">  1       -2 0.14960121E-02 0.37990794E+03</pdfrwt>
<totfact> 0.84502101E+02</totfact>
</mgrwt>
</event>
<event>
 6    1  0.2047711E-005  0.5459261E+04  0.7818608E-02  0.7761320E-01
         -2   -1    0    0    0  501 -0.00000000000E+00  0.00000000000E+00  0.24688424332E+04  0.24688424332E+04  0.00000000000E+00 0.  1.
          2   -1    0    0  501    0  0.00000000000E+00 -0.00000000000E+00 -0.30179663717E+04  0.30179663717E+04  0.00000000000E+00 0. -1.
         23    2    1    2    0    0  0.14510166220E+04  0.22522304802E+04  0.24622534360E+03  0.26920687717E+04  0.92822296700E+02 0.  0.
         13    1    3    3    0    0  0.81446367342E+03  0.13470897513E+04  0.15314019167E+03  0.15815984925E+04  0.00000000000E+00 0.  1.
        -13    1    3    3    0    0  0.63655294854E+03  0.90514072890E+03  0.93085151938E+02  0.11104702792E+04  0.00000000000E+00 0. -1.
         22    1    1    2    0    0 -0.14510166220E+04 -0.22522304802E+04 -0.79534928211E+03  0.27947400333E+04  0.00000000000E+00 0. -1.
<mgrwt>
<rscale>  0 0.54592613E+04</rscale>
<asrwt>0</asrwt>
<pdfrwt beam="1">  1        2 0.46430252E+00 0.54592613E+04</pdfrwt>
<pdfrwt beam="2">  1       -2 0.37982191E+00 0.54592613E+04</pdfrwt>
<totfact> 0.11956435E-02</totfact>
</mgrwt>
</event>
<event>
 6    1  0.2047711E-005  0.6472137E+03  0.7818608E-02  0.9812022E-01
         -2   -1    0    0    0  501 -0.00000000000E+00  0.00000000000E+00  0.42670349807E+02  0.42670349807E+02  0.00000000000E+00 0.  1.
          2   -1    0    0  501    0  0.00000000000E+00 -0.00000000000E+00 -0.24541956342E+04  0.24541956342E+04  0.00000000000E+00 0. -1.
         23    2    1    2    0    0  0.21478577790E+02  0.30607439501E+03 -0.91319439691E+03  0.96744180708E+03  0.88751219449E+02 0.  0.
         11    1    3    3    0    0 -0.77439660876E+01  0.15090061010E+03 -0.56961939623E+03  0.58931928502E+03  0.00000000000E+00 0.  1.
        -11    1    3    3    0    0  0.29222543877E+02  0.15517378491E+03 -0.34357500068E+03  0.37812252205E+03  0.00000000000E+00 0. -1.
         22    1    1    2    0    0 -0.21478577790E+02 -0.30607439501E+03 -0.14983308875E+04  0.15294241770E+04  0.00000000000E+00 0. -1.
<mgrwt>
<rscale>  0 0.64721368E+03</rscale>
<asrwt>0</asrwt>
<pdfrwt beam="1">  1        2 0.37756857E+00 0.64721368E+03</pdfrwt>
<pdfrwt beam="2">  1       -2 0.65646690E-02 0.64721368E+03</pdfrwt>
<totfact> 0.52133868E+02</totfact>
</mgrwt>
</event>
<event>
 6    1  0.2047711E-005  0.1108114E+04  0.7818608E-02  0.9197319E-01
         -1   -1    0    0    0  501 -0.00000000000E+00  0.00000000000E+00  0.12527972438E+03  0.12527972438E+03  0.00000000000E+00 0.  1.
          1   -1    0    0  501    0  0.00000000000E+00 -0.00000000000E+00 -0.24503517104E+04  0.24503517104E+04  0.00000000000E+00 0. -1.
         23    2    1    2    0    0 -0.27954722174E+03  0.21094874380E+03 -0.21573382362E+04  0.21873266157E+04  0.87426749185E+02 0.  0.
         13    1    3    3    0    0 -0.21570569780E+03  0.18842753608E+03 -0.15512780535E+04  0.15774972215E+04  0.00000000000E+00 0. -1.
        -13    1    3    3    0    0 -0.63841523941E+02  0.22521207722E+02 -0.60606018271E+03  0.60982939421E+03  0.00000000000E+00 0.  1.
         22    1    1    2    0    0  0.27954722174E+03 -0.21094874380E+03 -0.16773374972E+03  0.38830481904E+03  0.00000000000E+00 0.  1.
<mgrwt>
<rscale>  0 0.11081144E+04</rscale>
<asrwt>0</asrwt>
<pdfrwt beam="1">  1        1 0.37697715E+00 0.11081144E+04</pdfrwt>
<pdfrwt beam="2">  1       -1 0.19273805E-01 0.11081144E+04</pdfrwt>
<totfact> 0.32035142E+01</totfact>
</mgrwt>
</event>
<event>
 6    1  0.2047711E-005  0.9765920E+03  0.7818608E-02  0.9334598E-01
          2   -1    0    0  501    0  0.00000000000E+00  0.00000000000E+00  0.17742681880E+04  0.17742681880E+04  0.00000000000E+00 0.  1.
         -2   -1    0    0    0  501 -0.00000000000E+00 -0.00000000000E+00 -0.13438384826E+03  0.13438384826E+03  0.00000000000E+00 0. -1.
         23    2    1    2    0    0  0.43644672620E+03  0.18300458347E+03  0.62285174024E+03  0.78689817252E+03  0.85369908115E+02 0.  0.
         11    1    3    3    0    0  0.38987199144E+03  0.18959715211E+03  0.57023559016E+03  0.71632107192E+03  0.00000000000E+00 0. -1.
        -11    1    3    3    0    0  0.46574734766E+02 -0.65925686357E+01  0.52616150086E+02  0.70577100603E+02  0.00000000000E+00 0.  1.
         22    1    1    2    0    0 -0.43644672620E+03 -0.18300458347E+03  0.10170325995E+04  0.11217538638E+04  0.00000000000E+00 0.  1.
<mgrwt>
<rscale>  0 0.97659201E+03</rscale>
<asrwt>0</asrwt>
<pdfrwt beam="1">  1        2 0.27296432E+00 0.97659201E+03</pdfrwt>
<pdfrwt beam="2">  1       -2 0.20674440E-01 0.97659201E+03</pdfrwt>
<totfact> 0.17995446E+02</totfact>
</mgrwt>
</event>
<event>
 6    1  0.2047711E-005  0.7193043E+03  0.7818608E-02  0.9684777E-01
          2   -1    0    0  501    0  0.00000000000E+00  0.00000000000E+00  0.11577166028E+04  0.11577166028E+04  0.00000000000E+00 0. -1.
         -2   -1    0    0    0  501 -0.00000000000E+00 -0.00000000000E+00 -0.11172826005E+03  0.11172826005E+03  0.00000000000E+00 0.  1.
         23    2    1    2    0    0 -0.21780177668E+03  0.61287617898E+02  0.52243798215E+02  0.25026774094E+03  0.93331354157E+02 0.  0.
         11    1    3    3    0    0 -0.15996835870E+03  0.79496655691E+02  0.15345289217E+02  0.17929046810E+03  0.00000000000E+00 0.  1.
        -11    1    3    3    0    0 -0.57833417981E+02 -0.18209037793E+02  0.36898508998E+02  0.70977272834E+02  0.00000000000E+00 0. -1.
         22    1    1    2    0    0  0.21780177668E+03 -0.61287617898E+02  0.99374454449E+03  0.10191771219E+04  0.00000000000E+00 0. -1.
<mgrwt>
<rscale>  0 0.71930428E+03</rscale>
<asrwt>0</asrwt>
<pdfrwt beam="1">  1        2 0.17811024E+00 0.71930428E+03</pdfrwt>
<pdfrwt beam="2">  1       -2 0.17188964E-01 0.71930428E+03</pdfrwt>
<totfact> 0.56230766E+02</totfact>
</mgrwt>
</event>
<event>
 6    1  0.2047711E-005  0.3879002E+04  0.7818608E-02  0.8029411E-01
         -2   -1    0    0    0  501 -0.00000000000E+00  0.00000000000E+00  0.23822311221E+04  0.23822311221E+04  0.00000000000E+00 0.  1.
          2   -1    0    0  501    0  0.00000000000E+00 -0.00000000000E+00 -0.15790508669E+04  0.15790508669E+04  0.00000000000E+00 0. -1.
         23    2    1    2    0    0 -0.11472565000E+04 -0.53095417004E+03  0.19023816604E+04  0.22860645296E+04  0.94473509435E+02 0.  0.
         13    1    3    3    0    0 -0.86580472240E+03 -0.36019459631E+03  0.13731347016E+04  0.16627858772E+04  0.00000000000E+00 0.  1.
        -13    1    3    3    0    0 -0.28145177762E+03 -0.17075957373E+03  0.52924695877E+03  0.62327865239E+03  0.00000000000E+00 0. -1.
         22    1    1    2    0    0  0.11472565000E+04  0.53095417004E+03 -0.10992014052E+04  0.16752174595E+04  0.00000000000E+00 0. -1.
<mgrwt>
<rscale>  0 0.38790020E+04</rscale>
<asrwt>0</asrwt>
<pdfrwt beam="1">  1        2 0.24293090E+00 0.38790020E+04</pdfrwt>
<pdfrwt beam="2">  1       -2 0.36649709E+00 0.38790020E+04</pdfrwt>
<totfact> 0.11153258E-01</totfact>
</mgrwt>
</event>
<event>
 6    1  0.2047711E-005  0.2153751E+04  0.7818608E-02  0.8537929E-01
         -2   -1    0    0    0  501 -0.00000000000E+00  0.00000000000E+00  0.83519265601E+03  0.83519265601E+03  0.00000000000E+00 0.  1.
          2   -1    0    0  501    0  0.00000000000E+00 -0.00000000000E+00 -0.13884944141E+04  0.13884944141E+04  0.00000000000E+00 0. -1.
         23    2    1    2    0    0 -0.19942399445E+03 -0.53079249516E+03 -0.12199823923E+04  0.13484878525E+04  0.92476204878E+02 0.  0.
         11    1    3    3    0    0 -0.11649985561E+03 -0.24727548412E+03 -0.68206786097E+03  0.73480197902E+03  0.00000000000E+00 0. -1.
        -11    1    3    3    0    0 -0.82924138841E+02 -0.28351701104E+03 -0.53791453131E+03  0.61368587351E+03  0.00000000000E+00 0.  1.
         22    1    1    2    0    0  0.19942399445E+03  0.53079249516E+03  0.66668063418E+03  0.87519921759E+03  0.00000000000E+00 0.  1.
<mgrwt>
<rscale>  0 0.21537505E+04</rscale>
<asrwt>0</asrwt>
<pdfrwt beam="1">  1        2 0.21361452E+00 0.21537505E+04</pdfrwt>
<pdfrwt beam="2">  1       -2 0.12849118E+00 0.21537505E+04</pdfrwt>
<totfact> 0.60311847E+00</totfact>
</mgrwt>
</event>
<event>
 6    1  0.2047711E-005  0.4821077E+04  0.7818608E-02  0.7856717E-01
          2   -1    0    0  501    0  0.00000000000E+00  0.00000000000E+00  0.21478459892E+04  0.21478459892E+04  0.00000000000E+00 0. -1.
         -2   -1    0    0    0  501 -0.00000000000E+00 -0.00000000000E+00 -0.27053591030E+04  0.27053591030E+04  0.00000000000E+00 0.  1.
         23    2    1    2    0    0 -0.63657834687E+03  0.16414114718E+04  0.13774466538E+04  0.22371903916E+04  0.90542546204E+02 0.  0.
         13    1    3    3    0    0 -0.26284589682E+03  0.63311146993E+03  0.58874863250E+03  0.90362771709E+03  0.00000000000E+00 0. -1.
        -13    1    3    3    0    0 -0.37373245005E+03  0.10083000019E+04  0.78869802132E+03  0.13335626745E+04  0.00000000000E+00 0.  1.
         22    1    1    2    0    0  0.63657834687E+03 -0.16414114718E+04 -0.19349597676E+04  0.26160147006E+04  0.00000000000E+00 0.  1.
<mgrwt>
<rscale>  0 0.48210765E+04</rscale>
<asrwt>0</asrwt>
<pdfrwt beam="1">  1        2 0.33043784E+00 0.48210765E+04</pdfrwt>
<pdfrwt beam="2">  1       -2 0.41620909E+00 0.48210765E+04</pdfrwt>
<totfact> 0.23714482E-02</totfact>
</mgrwt>
</event>
<event>
 6    1  0.2047711E-005  0.2479582E+04  0.7818608E-02  0.8410296E-01
          2   -1    0    0  501    0  0.00000000000E+00  0.00000000000E+00  0.30441051066E+04  0.30441051066E+04  0.00000000000E+00 0.  1.
         -2   -1    0    0    0  501 -0.00000000000E+00 -0.00000000000E+00 -0.50493717675E+03  0.50493717675E+03  0.00000000000E+00 0. -1.
         23    2    1    2    0    0 -0.13007824182E+03 -0.10284658897E+04  0.22400582531E+04  0.24700941687E+04  0.94030792269E+02 0.  0.
         11    1    3    3    0    0 -0.67060110774E+02 -0.32407041899E+03  0.63227970839E+03  0.71365000145E+03  0.00000000000E+00 0. -1.
        -11    1    3    3    0    0 -0.63018131048E+02 -0.70439547071E+03  0.16077785447E+04  0.17564441673E+04  0.00000000000E+00 0.  1.
         22    1    1    2    0    0  0.13007824182E+03  0.10284658897E+04  0.29910967675E+03  0.10789481146E+04  0.00000000000E+00 0. -1.
<mgrwt>
<rscale>  0 0.24795821E+04</rscale>
<asrwt>0</asrwt>
<pdfrwt beam="1">  1        2 0.46832385E+00 0.24795821E+04</pdfrwt>
<pdfrwt beam="2">  1       -2 0.77682644E-01 0.24795821E+04</pdfrwt>
<totfact> 0.21550658E+00</totfact>
</mgrwt>
</event>
<event>
 6    1  0.2047711E-005  0.2067738E+04  0.7818608E-02  0.8575590E-01
          1   -1    0    0  501    0  0.00000000000E+00  0.00000000000E+00  0.10123799579E+04  0.10123799579E+04  0.00000000000E+00 0. -1.
         -1   -1    0    0    0  501 -0.00000000000E+00 -0.00000000000E+00 -0.10558139209E+04  0.10558139209E+04  0.00000000000E+00 0.  1.
         23    2    1    2    0    0  0.48285863879E+03  0.88327358934E+03  0.20430812592E+03  0.10315160884E+04  0.94651632993E+02 0.  0.
         13    1    3    3    0    0  0.26085285564E+03  0.48109997249E+03  0.62933668347E+02  0.55087388977E+03  0.00000000000E+00 0.  1.
        -13    1    3    3    0    0  0.22200578315E+03  0.40217361685E+03  0.14137445758E+03  0.48064219862E+03  0.00000000000E+00 0. -1.
         22    1    1    2    0    0 -0.48285863879E+03 -0.88327358934E+03 -0.24774208890E+03  0.10366777905E+04  0.00000000000E+00 0.  1.
<mgrwt>
<rscale>  0 0.20677378E+04</rscale>
<asrwt>0</asrwt>
<pdfrwt beam="1">  1        1 0.15575076E+00 0.20677378E+04</pdfrwt>
<pdfrwt beam="2">  1       -1 0.16243291E+00 0.20677378E+04</pdfrwt>
<totfact> 0.38232177E+00</totfact>
</mgrwt>
</event>
<event>
 6    1  0.2047711E-005  0.2867123E+04  0.7818608E-02  0.8282727E-01
         -2   -1    0    0    0  501 -0.00000000000E+00  0.00000000000E+00  0.11620573148E+04  0.11620573148E+04  0.00000000000E+00 0.  1.
          2   -1    0    0  501    0  0.00000000000E+00 -0.00000000000E+00 -0.17685001102E+04  0.17685001102E+04  0.00000000000E+00 0. -1.
         23    2    1    2    0    0  0.12265002983E+04 -0.57712203449E+03  0.16980325220E+03  0.13685296561E+04  0.81654459761E+02 0.  0.
         11    1    3    3    0    0  0.59991282599E+03 -0.32337864410E+03  0.68253728973E+02  0.68492898739E+03  0.00000000000E+00 0.  1.
        -11    1    3    3    0    0  0.62658747229E+03 -0.25374339039E+03  0.10154952323E+03  0.68360066872E+03  0.00000000000E+00 0. -1.
         22    1    1    2    0    0 -0.12265002983E+04  0.57712203449E+03 -0.77624604757E+03  0.15620277689E+04  0.00000000000E+00 0. -1.
<mgrwt>
<rscale>  0 0.28671229E+04</rscale>
<asrwt>0</asrwt>
<pdfrwt beam="1">  1        2 0.27207694E+00 0.28671229E+04</pdfrwt>
<pdfrwt beam="2">  1       -2 0.17877805E+00 0.28671229E+04</pdfrwt>
<totfact> 0.14376293E+00</totfact>
</mgrwt>
</event>
<event>
 6    1  0.2047711E-005  0.2609521E+04  0.7818608E-02  0.8364974E-01
          2   -1    0    0  501    0  0.00000000000E+00  0.00000000000E+00  0.17230405158E+04  0.17230405158E+04  0.00000000000E+00 0. -1.
         -2   -1    0    0    0  501 -0.00000000000E+00 -0.00000000000E+00 -0.98802113760E+03  0.98802113760E+03  0.00000000000E+00 0.  1.
         23    2    1    2    0    0 -0.11630831964E+03  0.99823452876E+03 -0.49392283535E+03  0.11235167678E+04  0.91270808912E+02 0.  0.
         11    1    3    3    0    0 -0.31779642102E+02  0.52101972838E+03 -0.21664899678E+03  0.56516218099E+03  0.00000000000E+00 0. -1.
        -11    1    3    3    0    0 -0.84528677542E+02  0.47721480038E+03 -0.27727383857E+03  0.55835458678E+03  0.00000000000E+00 0.  1.
         22    1    1    2    0    0  0.11630831964E+03 -0.99823452876E+03  0.12289422135E+04  0.15875448856E+04  0.00000000000E+00 0. -1.
<mgrwt>
<rscale>  0 0.26095214E+04</rscale>
<asrwt>0</asrwt>
<pdfrwt beam="1">  1        2 0.26508316E+00 0.26095214E+04</pdfrwt>
<pdfrwt beam="2">  1       -2 0.15200325E+00 0.26095214E+04</pdfrwt>
<totfact> 0.24345103E+00</totfact>
</mgrwt>
</event>
<event>
 6    1  0.2047711E-005  0.1752477E+04  0.7818608E-02  0.8731988E-01
          2   -1    0    0  501    0  0.00000000000E+00  0.00000000000E+00  0.65137789376E+03  0.65137789376E+03  0.00000000000E+00 0. -1.
         -2   -1    0    0    0  501 -0.00000000000E+00 -0.00000000000E+00 -0.11787226454E+04  0.11787226454E+04  0.00000000000E+00 0.  1.
         23    2    1    2    0    0 -0.18369638824E+03 -0.50251784335E+03  0.45740260960E+03  0.70938830517E+03  0.88011785041E+02 0.  0.
         13    1    3    3    0    0 -0.12535153013E+03 -0.22193926166E+03  0.23407429481E+03  0.34606475906E+03  0.00000000000E+00 0. -1.
        -13    1    3    3    0    0 -0.58344858104E+02 -0.28057858169E+03  0.22332831480E+03  0.36332354612E+03  0.00000000000E+00 0.  1.
         22    1    1    2    0    0  0.18369638824E+03  0.50251784335E+03 -0.98474736120E+03  0.11207122340E+04  0.00000000000E+00 0.  1.
<mgrwt>
<rscale>  0 0.17524770E+04</rscale>
<asrwt>0</asrwt>
<pdfrwt beam="1">  1        2 0.10021198E+00 0.17524770E+04</pdfrwt>
<pdfrwt beam="2">  1       -2 0.18134194E+00 0.17524770E+04</pdfrwt>
<totfact> 0.75370103E+00</totfact>
</mgrwt>
</event>
<event>
 6    1  0.2047711E-005  0.3291086E+04  0.7818608E-02  0.8165167E-01
          2   -1    0    0  501    0  0.00000000000E+00  0.00000000000E+00  0.19384749147E+04  0.19384749147E+04  0.00000000000E+00 0. -1.
         -2   -1    0    0    0  501 -0.00000000000E+00 -0.00000000000E+00 -0.13968777944E+04  0.13968777944E+04  0.00000000000E+00 0.  1.
         23    2    1    2    0    0  0.50382737511E+03  0.91403439318E+03 -0.10168354866E+04  0.14597159942E+04  0.86691874929E+02 0.  0.
         13    1    3    3    0    0  0.21716356337E+03  0.35383418615E+03 -0.35214063057E+03  0.54439109861E+03  0.00000000000E+00 0. -1.
        -13    1    3    3    0    0  0.28666381174E+03  0.56020020703E+03 -0.66469485602E+03  0.91532489562E+03  0.00000000000E+00 0.  1.
         22    1    1    2    0    0 -0.50382737511E+03 -0.91403439318E+03  0.15584326070E+04  0.18756367149E+04  0.00000000000E+00 0. -1.
<mgrwt>
<rscale>  0 0.32910865E+04</rscale>
<asrwt>0</asrwt>
<pdfrwt beam="1">  1        2 0.29822691E+00 0.32910865E+04</pdfrwt>
<pdfrwt beam="2">  1       -2 0.21490428E+00 0.32910865E+04</pdfrwt>
<totfact> 0.64352585E-01</totfact>
</mgrwt>
</event>
<event>
 6    1  0.2047711E-005  0.3427826E+04  0.7818608E-02  0.8131111E-01
          2   -1    0    0  501    0  0.00000000000E+00  0.00000000000E+00  0.20070559508E+04  0.20070559508E+04  0.00000000000E+00 0. -1.
         -2   -1    0    0    0  501 -0.00000000000E+00 -0.00000000000E+00 -0.14635851422E+04  0.14635851422E+04  0.00000000000E+00 0.  1.
         23    2    1    2    0    0 -0.11098314130E+04 -0.38526802673E+03 -0.98992050757E+03  0.15389459446E+04  0.90855882794E+02 0.  0.
         11    1    3    3    0    0 -0.86052566476E+03 -0.31733102251E+03 -0.72755126141E+03  0.11706981829E+04  0.00000000000E+00 0.  1.
        -11    1    3    3    0    0 -0.24930574821E+03 -0.67937004216E+02 -0.26236924616E+03  0.36824776165E+03  0.00000000000E+00 0. -1.
         22    1    1    2    0    0  0.11098314130E+04  0.38526802673E+03  0.15333913162E+04  0.19316951484E+04  0.00000000000E+00 0. -1.
<mgrwt>
<rscale>  0 0.34278257E+04</rscale>
<asrwt>0</asrwt>
<pdfrwt beam="1">  1        2 0.30877784E+00 0.34278257E+04</pdfrwt>
<pdfrwt beam="2">  1       -2 0.22516695E+00 0.34278257E+04</pdfrwt>
<totfact> 0.50178249E-01</totfact>
</mgrwt>
</event>
<event>
 6    1  0.2991241E-005  0.3332274E+04  0.7818608E-02  0.8154732E-01
         -2   -1    0    0    0  501 -0.00000000000E+00  0.00000000000E+00  0.14836953679E+04  0.14836953679E+04  0.00000000000E+00 0.  1.
          2   -1    0    0  501    0  0.00000000000E+00 -0.00000000000E+00 -0.18710123733E+04  0.18710123733E+04  0.00000000000E+00 0. -1.
         23    2    1    2    0    0 -0.61754630963E+03  0.28455885036E+02 -0.17500708489E+04  0.18582882747E+04  0.91181981122E+02 0.  0.
         11    1    3    3    0    0 -0.46665876272E+02  0.20850859928E+02 -0.19961070559E+03  0.20605071258E+03  0.00000000000E+00 0.  1.
        -11    1    3    3    0    0 -0.57088043336E+03  0.76050251082E+01 -0.15504601433E+04  0.16522375621E+04  0.00000000000E+00 0. -1.
         22    1    1    2    0    0  0.61754630963E+03 -0.28455885036E+02  0.13627538435E+04  0.14964194666E+04  0.00000000000E+00 0.  1.
<mgrwt>
<rscale>  0 0.33322739E+04</rscale>
<asrwt>0</asrwt>
<pdfrwt beam="1">  1        2 0.28784806E+00 0.33322739E+04</pdfrwt>
<pdfrwt beam="2">  1       -2 0.22826083E+00 0.33322739E+04</pdfrwt>
<totfact> 0.57554550E-01</totfact>
</mgrwt>
</event>
<event>
 6    1  0.2047711E-005  0.2924265E+04  0.7818608E-02  0.8265694E-01
         -1   -1    0    0    0  501 -0.00000000000E+00  0.00000000000E+00  0.74228406875E+03  0.74228406875E+03  0.00000000000E+00 0.  1.
          1   -1    0    0  501    0  0.00000000000E+00 -0.00000000000E+00 -0.28800722841E+04  0.28800722841E+04  0.00000000000E+00 0. -1.
         23    2    1    2    0    0 -0.10024732575E+04  0.31358554900E+01  0.24616701603E+03  0.10361999363E+04  0.90275371362E+02 0.  0.
         13    1    3    3    0    0 -0.45679192436E+03  0.46367104433E+02  0.11381813489E+03  0.47303629709E+03  0.00000000000E+00 0.  1.
        -13    1    3    3    0    0 -0.54568133312E+03 -0.43231248943E+02  0.13234888114E+03  0.56316363922E+03  0.00000000000E+00 0. -1.
         22    1    1    2    0    0  0.10024732575E+04 -0.31358554900E+01 -0.23839552313E+04  0.25861564165E+04  0.00000000000E+00 0. -1.
<mgrwt>
<rscale>  0 0.29242652E+04</rscale>
<asrwt>0</asrwt>
<pdfrwt beam="1">  1        1 0.44308804E+00 0.29242652E+04</pdfrwt>
<pdfrwt beam="2">  1       -1 0.11419755E+00 0.29242652E+04</pdfrwt>
<totfact> 0.43634006E-01</totfact>
</mgrwt>
</event>
<event>
 6    1  0.2047711E-005  0.2680797E+04  0.7818608E-02  0.8341263E-01
         -2   -1    0    0    0  501 -0.00000000000E+00  0.00000000000E+00  0.10917816587E+04  0.10917816587E+04  0.00000000000E+00 0.  1.
          2   -1    0    0  501    0  0.00000000000E+00 -0.00000000000E+00 -0.16456294716E+04  0.16456294716E+04  0.00000000000E+00 0. -1.
         23    2    1    2    0    0  0.25674966452E+02  0.13385244881E+04 -0.25393035573E+03  0.13654572352E+04  0.87668845729E+02 0.  0.
         11    1    3    3    0    0  0.33451612833E+02  0.48122717455E+03 -0.12656432726E+03  0.49871548287E+03  0.00000000000E+00 0. -1.
        -11    1    3    3    0    0 -0.77766463804E+01  0.85729731351E+03 -0.12736602847E+03  0.86674175231E+03  0.00000000000E+00 0.  1.
         22    1    1    2    0    0 -0.25674966452E+02 -0.13385244881E+04 -0.29991745717E+03  0.13719538951E+04  0.00000000000E+00 0. -1.
<mgrwt>
<rscale>  0 0.26807970E+04</rscale>
<asrwt>0</asrwt>
<pdfrwt beam="1">  1        2 0.25317376E+00 0.26807970E+04</pdfrwt>
<pdfrwt beam="2">  1       -2 0.16796641E+00 0.26807970E+04</pdfrwt>
<totfact> 0.20366968E+00</totfact>
</mgrwt>
</event>
<event>
 6    1  0.2047711E-005  0.1771978E+04  0.7818608E-02  0.8721345E-01
         -2   -1    0    0    0  501 -0.00000000000E+00  0.00000000000E+00  0.75905680323E+03  0.75905680323E+03  0.00000000000E+00 0.  1.
          2   -1    0    0  501    0  0.00000000000E+00 -0.00000000000E+00 -0.10341471018E+04  0.10341471018E+04  0.00000000000E+00 0. -1.
         23    2    1    2    0    0  0.27602858851E+03  0.19104784125E+03  0.68918346999E+03  0.77216768625E+03  0.92617606676E+02 0.  0.
         13    1    3    3    0    0  0.17537271023E+03  0.17202025570E+03  0.49634252650E+03  0.55380724037E+03  0.00000000000E+00 0.  1.
        -13    1    3    3    0    0  0.10065587828E+03  0.19027585547E+02  0.19284094348E+03  0.21836044589E+03  0.00000000000E+00 0. -1.
         22    1    1    2    0    0 -0.27602858851E+03 -0.19104784125E+03 -0.96427376855E+03  0.10210362188E+04  0.00000000000E+00 0. -1.
<mgrwt>
<rscale>  0 0.17719779E+04</rscale>
<asrwt>0</asrwt>
<pdfrwt beam="1">  1        2 0.15909955E+00 0.17719779E+04</pdfrwt>
<pdfrwt beam="2">  1       -2 0.11677797E+00 0.17719779E+04</pdfrwt>
<totfact> 0.12873308E+01</totfact>
</mgrwt>
</event>
<event>
 6    1  0.2047711E-005  0.2361744E+04  0.7818608E-02  0.8453966E-01
         -2   -1    0    0    0  501 -0.00000000000E+00  0.00000000000E+00  0.96232198736E+03  0.96232198736E+03  0.00000000000E+00 0.  1.
          2   -1    0    0  501    0  0.00000000000E+00 -0.00000000000E+00 -0.14490567335E+04  0.14490567335E+04  0.00000000000E+00 0. -1.
         23    2    1    2    0    0 -0.79699762736E+03  0.83818854632E+03 -0.98422024521E+01  0.11603024820E+04  0.91867968532E+02 0.  0.
         13    1    3    3    0    0 -0.18035649608E+03  0.13891740191E+03  0.82503867081E+01  0.22780381716E+03  0.00000000000E+00 0.  1.
        -13    1    3    3    0    0 -0.61664113128E+03  0.69927114441E+03 -0.18092589160E+02  0.93249866486E+03  0.00000000000E+00 0. -1.
         22    1    1    2    0    0  0.79699762736E+03 -0.83818854632E+03 -0.47689254369E+03  0.12510762389E+04  0.00000000000E+00 0. -1.
<mgrwt>
<rscale>  0 0.23617444E+04</rscale>
<asrwt>0</asrwt>
<pdfrwt beam="1">  1        2 0.22293181E+00 0.23617444E+04</pdfrwt>
<pdfrwt beam="2">  1       -2 0.14804954E+00 0.23617444E+04</pdfrwt>
<totfact> 0.37967087E+00</totfact>
</mgrwt>
</event>
<event>
 6    1  0.2047711E-005  0.2817083E+04  0.7818608E-02  0.8297984E-01
          2   -1    0    0  501    0  0.00000000000E+00  0.00000000000E+00  0.41868804383E+03  0.41868804383E+03  0.00000000000E+00 0. -1.
         -2   -1    0    0    0  501 -0.00000000000E+00 -0.00000000000E+00 -0.47385844230E+04  0.47385844230E+04  0.00000000000E+00 0.  1.
         23    2    1    2    0    0 -0.44384867593E+03  0.12557025459E+04 -0.29925675165E+04  0.32769553551E+04  0.95841157787E+02 0.  0.
         13    1    3    3    0    0 -0.34195782600E+03  0.83290310926E+03 -0.20236876574E+04  0.22149434482E+04  0.00000000000E+00 0. -1.
        -13    1    3    3    0    0 -0.10189084993E+03  0.42279943667E+03 -0.96887985912E+03  0.10620119069E+04  0.00000000000E+00 0.  1.
         22    1    1    2    0    0  0.44384867593E+03 -0.12557025459E+04 -0.13273288627E+04  0.18803171117E+04  0.00000000000E+00 0. -1.
<mgrwt>
<rscale>  0 0.28170826E+04</rscale>
<asrwt>0</asrwt>
<pdfrwt beam="1">  1        2 0.64413548E-01 0.28170826E+04</pdfrwt>
<pdfrwt beam="2">  1       -2 0.72901296E+00 0.28170826E+04</pdfrwt>
<totfact> 0.11526768E-02</totfact>
</mgrwt>
</event>
<event>
 6    1  0.2047711E-005  0.7285038E+03  0.7818608E-02  0.9669691E-01
          2   -1    0    0  501    0  0.00000000000E+00  0.00000000000E+00  0.69310223871E+03  0.69310223871E+03  0.00000000000E+00 0. -1.
         -2   -1    0    0    0  501 -0.00000000000E+00 -0.00000000000E+00 -0.19142836591E+03  0.19142836591E+03  0.00000000000E+00 0.  1.
         23    2    1    2    0    0  0.42364584622E+02 -0.35367273947E+03  0.20271911902E+03  0.41950038034E+03  0.89478283483E+02 0.  0.
         11    1    3    3    0    0  0.17580793523E+02 -0.11934831188E+03  0.11896160106E+03  0.16942540062E+03  0.00000000000E+00 0. -1.
        -11    1    3    3    0    0  0.24783791100E+02 -0.23432442759E+03  0.83757517966E+02  0.25007497972E+03  0.00000000000E+00 0.  1.
         22    1    1    2    0    0 -0.42364584622E+02  0.35367273947E+03  0.29895475378E+03  0.46503022427E+03  0.00000000000E+00 0. -1.
<mgrwt>
<rscale>  0 0.72850375E+03</rscale>
<asrwt>0</asrwt>
<pdfrwt beam="1">  1        2 0.10663111E+00 0.72850375E+03</pdfrwt>
<pdfrwt beam="2">  1       -2 0.29450518E-01 0.72850375E+03</pdfrwt>
<totfact> 0.44285325E+02</totfact>
</mgrwt>
</event>
<event>
 6    1  0.2047711E-005  0.1255221E+04  0.7818608E-02  0.9065849E-01
         -1   -1    0    0    0  501 -0.00000000000E+00  0.00000000000E+00  0.29147531732E+03  0.29147531732E+03  0.00000000000E+00 0.  1.
          1   -1    0    0  501    0  0.00000000000E+00 -0.00000000000E+00 -0.13513825917E+04  0.13513825917E+04  0.00000000000E+00 0. -1.
         23    2    1    2    0    0 -0.15026807061E+02 -0.33737724996E+03 -0.12198775116E+04  0.12691739644E+04  0.93017174712E+02 0.  0.
         11    1    3    3    0    0  0.10115374937E+02 -0.22153303985E+03 -0.92829167335E+03  0.95441324350E+03  0.00000000000E+00 0.  1.
        -11    1    3    3    0    0 -0.25142181998E+02 -0.11584421011E+03 -0.29158583825E+03  0.31476072086E+03  0.00000000000E+00 0. -1.
         22    1    1    2    0    0  0.15026807061E+02  0.33737724996E+03  0.15997023720E+03  0.37368394468E+03  0.00000000000E+00 0.  1.
<mgrwt>
<rscale>  0 0.12552206E+04</rscale>
<asrwt>0</asrwt>
<pdfrwt beam="1">  1        1 0.20790502E+00 0.12552206E+04</pdfrwt>
<pdfrwt beam="2">  1       -1 0.44842356E-01 0.12552206E+04</pdfrwt>
<totfact> 0.40393648E+01</totfact>
</mgrwt>
</event>
<event>
 6    1  0.2047711E-005  0.1859940E+04  0.7818608E-02  0.8675058E-01
         -2   -1    0    0    0  501 -0.00000000000E+00  0.00000000000E+00  0.35364842254E+03  0.35364842254E+03  0.00000000000E+00 0.  1.
          2   -1    0    0  501    0  0.00000000000E+00 -0.00000000000E+00 -0.24454915121E+04  0.24454915121E+04  0.00000000000E+00 0. -1.
         23    2    1    2    0    0  0.94396691502E+02 -0.91157245167E+03 -0.83232234934E+03  0.12414918470E+04  0.93093731542E+02 0.  0.
         13    1    3    3    0    0  0.85538431454E+02 -0.88520498957E+03 -0.82418054545E+03  0.12125090797E+04  0.00000000000E+00 0. -1.
        -13    1    3    3    0    0  0.88582600480E+01 -0.26367462099E+02 -0.81418038934E+01  0.28982767281E+02  0.00000000000E+00 0.  1.
         22    1    1    2    0    0 -0.94396691502E+02  0.91157245167E+03 -0.12595207402E+04  0.15576480877E+04  0.00000000000E+00 0. -1.
<mgrwt>
<rscale>  0 0.18599400E+04</rscale>
<asrwt>0</asrwt>
<pdfrwt beam="1">  1        2 0.37622947E+00 0.18599400E+04</pdfrwt>
<pdfrwt beam="2">  1       -2 0.54407449E-01 0.18599400E+04</pdfrwt>
<totfact> 0.11191778E+01</totfact>
</mgrwt>
</event>
<event>
 6    1  0.2047711E-005  0.1166896E+04  0.7818608E-02  0.9142336E-01
          2   -1    0    0  501    0  0.00000000000E+00  0.00000000000E+00  0.43846268062E+03  0.43846268062E+03  0.00000000000E+00 0.  1.
         -2   -1    0    0    0  501 -0.00000000000E+00 -0.00000000000E+00 -0.77637522715E+03  0.77637522715E+03  0.00000000000E+00 0. -1.
         23    2    1    2    0    0  0.20046879572E+03 -0.49970815588E+03 -0.39427963656E+03  0.67347552642E+03  0.90646973277E+02 0.  0.
         11    1    3    3    0    0  0.20691957323E+03 -0.44322045191E+03 -0.35310644496E+03  0.60327791295E+03  0.00000000000E+00 0. -1.
        -11    1    3    3    0    0 -0.64507775089E+01 -0.56487703964E+02 -0.41173191600E+02  0.70197613465E+02  0.00000000000E+00 0.  1.
         22    1    1    2    0    0 -0.20046879572E+03  0.49970815588E+03  0.56367090028E+02  0.54136238136E+03  0.00000000000E+00 0.  1.
<mgrwt>
<rscale>  0 0.11668960E+04</rscale>
<asrwt>0</asrwt>
<pdfrwt beam="1">  1        2 0.67455797E-01 0.11668960E+04</pdfrwt>
<pdfrwt beam="2">  1       -2 0.11944234E+00 0.11668960E+04</pdfrwt>
<totfact> 0.38043735E+01</totfact>
</mgrwt>
</event>
<event>
 6    1  0.2047711E-005  0.6042780E+03  0.7818608E-02  0.9896570E-01
         -2   -1    0    0    0  501 -0.00000000000E+00  0.00000000000E+00  0.18542282719E+03  0.18542282719E+03  0.00000000000E+00 0.  1.
          2   -1    0    0  501    0  0.00000000000E+00 -0.00000000000E+00 -0.49232331941E+03  0.49232331941E+03  0.00000000000E+00 0. -1.
         23    2    1    2    0    0  0.14655218440E+03  0.22559181469E+03 -0.19135467505E+02  0.28381986028E+03  0.88421362618E+02 0.  0.
         11    1    3    3    0    0  0.13824765834E+02  0.83369664353E+02  0.16350049850E+02  0.86075253208E+02  0.00000000000E+00 0. -1.
        -11    1    3    3    0    0  0.13272741856E+03  0.14222215034E+03 -0.35485517355E+02  0.19774460707E+03  0.00000000000E+00 0.  1.
         22    1    1    2    0    0 -0.14655218440E+03 -0.22559181469E+03 -0.28776502472E+03  0.39392628632E+03  0.00000000000E+00 0. -1.
<mgrwt>
<rscale>  0 0.60427802E+03</rscale>
<asrwt>0</asrwt>
<pdfrwt beam="1">  1        2 0.75742048E-01 0.60427802E+03</pdfrwt>
<pdfrwt beam="2">  1       -2 0.28526589E-01 0.60427802E+03</pdfrwt>
<totfact> 0.70963570E+02</totfact>
</mgrwt>
</event>
<event>
 6    1  0.2047711E-005  0.2843034E+04  0.7818608E-02  0.8290031E-01
          2   -1    0    0  501    0  0.00000000000E+00  0.00000000000E+00  0.33112595150E+04  0.33112595150E+04  0.00000000000E+00 0. -1.
         -2   -1    0    0    0  501 -0.00000000000E+00 -0.00000000000E+00 -0.61025446148E+03  0.61025446148E+03  0.00000000000E+00 0.  1.
         23    2    1    2    0    0 -0.74108067877E+03  0.81447000168E+02 -0.31516544204E+03  0.81456714003E+03  0.91412162602E+02 0.  0.
         11    1    3    3    0    0 -0.26560092323E+03  0.31807594354E+02 -0.16122951922E+03  0.31233080435E+03  0.00000000000E+00 0. -1.
        -11    1    3    3    0    0 -0.47547975554E+03  0.49639405814E+02 -0.15393592282E+03  0.50223633568E+03  0.00000000000E+00 0.  1.
         22    1    1    2    0    0  0.74108067877E+03 -0.81447000168E+02  0.30161704955E+04  0.31069468364E+04  0.00000000000E+00 0. -1.
<mgrwt>
<rscale>  0 0.28430342E+04</rscale>
<asrwt>0</asrwt>
<pdfrwt beam="1">  1        2 0.50942453E+00 0.28430342E+04</pdfrwt>
<pdfrwt beam="2">  1       -2 0.93885304E-01 0.28430342E+04</pdfrwt>
<totfact> 0.90902474E-01</totfact>
</mgrwt>
</event>
<event>
 6    1  0.2047711E-005  0.2199394E+04  0.7818608E-02  0.8518681E-01
         -2   -1    0    0    0  501 -0.00000000000E+00  0.00000000000E+00  0.49662261375E+03  0.49662261375E+03  0.00000000000E+00 0.  1.
          2   -1    0    0  501    0  0.00000000000E+00 -0.00000000000E+00 -0.24351148911E+04  0.24351148911E+04  0.00000000000E+00 0. -1.
         23    2    1    2    0    0 -0.38747079621E+03 -0.10126031604E+04 -0.11988031519E+04  0.16192441598E+04  0.96560206935E+02 0.  0.
         11    1    3    3    0    0 -0.35588337806E+03 -0.83975942133E+03 -0.98275586390E+03  0.13407676728E+04  0.00000000000E+00 0. -1.
        -11    1    3    3    0    0 -0.31587418147E+02 -0.17284373912E+03 -0.21604728798E+03  0.27847648694E+03  0.00000000000E+00 0.  1.
         22    1    1    2    0    0  0.38747079621E+03  0.10126031604E+04 -0.73968912542E+03  0.13124933450E+04  0.00000000000E+00 0. -1.
<mgrwt>
<rscale>  0 0.21993937E+04</rscale>
<asrwt>0</asrwt>
<pdfrwt beam="1">  1        2 0.37463306E+00 0.21993937E+04</pdfrwt>
<pdfrwt beam="2">  1       -2 0.76403480E-01 0.21993937E+04</pdfrwt>
<totfact> 0.53156765E+00</totfact>
</mgrwt>
</event>
<event>
 6    1  0.2047711E-005  0.7801504E+03  0.7818608E-02  0.9589201E-01
          4   -1    0    0  501    0  0.00000000000E+00  0.00000000000E+00  0.92323577232E+02  0.92323577232E+02  0.00000000000E+00 0.  1.
         -4   -1    0    0    0  501 -0.00000000000E+00 -0.00000000000E+00 -0.16481019586E+04  0.16481019586E+04  0.00000000000E+00 0. -1.
         23    2    1    2    0    0 -0.12978171751E+03 -0.32930997338E+03 -0.45268369545E+03  0.58193244613E+03  0.91839484822E+02 0.  0.
         13    1    3    3    0    0 -0.74760328492E+02 -0.25755865794E+03 -0.38401393805E+03  0.46839328946E+03  0.00000000000E+00 0. -1.
        -13    1    3    3    0    0 -0.55021389017E+02 -0.71751315446E+02 -0.68669757398E+02  0.11353915668E+03  0.00000000000E+00 0.  1.
         22    1    1    2    0    0  0.12978171751E+03  0.32930997338E+03 -0.11030946859E+04  0.11584930897E+04  0.00000000000E+00 0. -1.
<mgrwt>
<rscale>  0 0.78015042E+03</rscale>
<asrwt>0</asrwt>
<pdfrwt beam="1">  1        4 0.14203628E-01 0.78015042E+03</pdfrwt>
<pdfrwt beam="2">  1       -4 0.25355414E+00 0.78015042E+03</pdfrwt>
<totfact> 0.52315529E+00</totfact>
</mgrwt>
</event>
<event>
 6    1  0.2047711E-005  0.1978506E+04  0.7818608E-02  0.8616736E-01
          2   -1    0    0  501    0  0.00000000000E+00  0.00000000000E+00  0.17354465849E+04  0.17354465849E+04  0.00000000000E+00 0. -1.
         -2   -1    0    0    0  501 -0.00000000000E+00 -0.00000000000E+00 -0.56390180152E+03  0.56390180152E+03  0.00000000000E+00 0.  1.
         23    2    1    2    0    0 -0.46655393608E+03 -0.69228527000E+02 -0.42171985707E+03  0.63773550168E+03  0.79961040730E+02 0.  0.
         13    1    3    3    0    0 -0.27846548305E+03 -0.41733580159E+01 -0.22682724913E+03  0.35918107288E+03  0.00000000000E+00 0. -1.
        -13    1    3    3    0    0 -0.18808845303E+03 -0.65055168985E+02 -0.19489260794E+03  0.27855442880E+03  0.00000000000E+00 0.  1.
         22    1    1    2    0    0  0.46655393608E+03  0.69228527000E+02  0.15932646405E+04  0.16616128848E+04  0.00000000000E+00 0. -1.
<mgrwt>
<rscale>  0 0.19785060E+04</rscale>
<asrwt>0</asrwt>
<pdfrwt beam="1">  1        2 0.26699178E+00 0.19785060E+04</pdfrwt>
<pdfrwt beam="2">  1       -2 0.86754124E-01 0.19785060E+04</pdfrwt>
<totfact> 0.10029513E+01</totfact>
</mgrwt>
</event>
<event>
 6    1  0.2047711E-005  0.6580940E+03  0.7818608E-02  0.9791709E-01
          2   -1    0    0  501    0  0.00000000000E+00  0.00000000000E+00  0.10826097205E+04  0.10826097205E+04  0.00000000000E+00 0. -1.
         -2   -1    0    0    0  501 -0.00000000000E+00 -0.00000000000E+00 -0.10001013161E+03  0.10001013161E+03  0.00000000000E+00 0.  1.
         23    2    1    2    0    0  0.11898514242E+02 -0.24936339552E+03  0.13429233150E+03  0.29834111743E+03  0.93001690196E+02 0.  0.
         13    1    3    3    0    0 -0.32463938529E+02 -0.14356427518E+03  0.48107407761E+02  0.15485131932E+03  0.00000000000E+00 0. -1.
        -13    1    3    3    0    0  0.44362452771E+02 -0.10579912034E+03  0.86184923740E+02  0.14348979811E+03  0.00000000000E+00 0.  1.
         22    1    1    2    0    0 -0.11898514242E+02  0.24936339552E+03  0.84830725741E+03  0.88427873470E+03  0.00000000000E+00 0. -1.
<mgrwt>
<rscale>  0 0.65809404E+03</rscale>
<asrwt>0</asrwt>
<pdfrwt beam="1">  1        2 0.16655533E+00 0.65809404E+03</pdfrwt>
<pdfrwt beam="2">  1       -2 0.15386175E-01 0.65809404E+03</pdfrwt>
<totfact> 0.75599314E+02</totfact>
</mgrwt>
</event>
<event>
 6    1  0.2047711E-005  0.2896186E+04  0.7818608E-02  0.8274013E-01
          1   -1    0    0  501    0  0.00000000000E+00  0.00000000000E+00  0.31866494197E+04  0.31866494197E+04  0.00000000000E+00 0. -1.
         -1   -1    0    0    0  501 -0.00000000000E+00 -0.00000000000E+00 -0.65804974796E+03  0.65804974796E+03  0.00000000000E+00 0.  1.
         23    2    1    2    0    0 -0.52341665648E+03  0.10936524944E+04  0.21716433472E+03  0.12345700345E+04  0.83438881627E+02 0.  0.
         11    1    3    3    0    0 -0.28209131411E+03  0.63939419635E+03  0.16073263472E+03  0.71710210409E+03  0.00000000000E+00 0. -1.
        -11    1    3    3    0    0 -0.24132534237E+03  0.45425829802E+03  0.56431699998E+02  0.51746793036E+03  0.00000000000E+00 0.  1.
         22    1    1    2    0    0  0.52341665648E+03 -0.10936524944E+04  0.23114353370E+04  0.26101291332E+04  0.00000000000E+00 0. -1.
<mgrwt>
<rscale>  0 0.28961864E+04</rscale>
<asrwt>0</asrwt>
<pdfrwt beam="1">  1        1 0.49025375E+00 0.28961864E+04</pdfrwt>
<pdfrwt beam="2">  1       -1 0.10123842E+00 0.28961864E+04</pdfrwt>
<totfact> 0.34581559E-01</totfact>
</mgrwt>
</event>
<event>
 6    1  0.2047711E-005  0.9685752E+03  0.7818608E-02  0.9343699E-01
          2   -1    0    0  501    0  0.00000000000E+00  0.00000000000E+00  0.83850204527E+03  0.83850204527E+03  0.00000000000E+00 0. -1.
         -2   -1    0    0    0  501 -0.00000000000E+00 -0.00000000000E+00 -0.27970653189E+03  0.27970653189E+03  0.00000000000E+00 0.  1.
         23    2    1    2    0    0  0.27601631681E+03  0.38956140550E+03  0.22211687426E+03  0.53400347461E+03  0.88773359002E+02 0.  0.
         11    1    3    3    0    0  0.15575624769E+03  0.14913014998E+03  0.11716504043E+03  0.24541282979E+03  0.00000000000E+00 0. -1.
        -11    1    3    3    0    0  0.12026006913E+03  0.24043125551E+03  0.10495183383E+03  0.28859064482E+03  0.00000000000E+00 0.  1.
         22    1    1    2    0    0 -0.27601631681E+03 -0.38956140550E+03  0.33667863911E+03  0.58420510254E+03  0.00000000000E+00 0. -1.
<mgrwt>
<rscale>  0 0.96857524E+03</rscale>
<asrwt>0</asrwt>
<pdfrwt beam="1">  1        2 0.12900031E+00 0.96857524E+03</pdfrwt>
<pdfrwt beam="2">  1       -2 0.43031775E-01 0.96857524E+03</pdfrwt>
<totfact> 0.16545892E+02</totfact>
</mgrwt>
</event>
<event>
 6    1  0.2047711E-005  0.2422569E+04  0.7818608E-02  0.8431102E-01
          1   -1    0    0  501    0  0.00000000000E+00  0.00000000000E+00  0.14371449997E+04  0.14371449997E+04  0.00000000000E+00 0. -1.
         -1   -1    0    0    0  501 -0.00000000000E+00 -0.00000000000E+00 -0.10209201182E+04  0.10209201182E+04  0.00000000000E+00 0.  1.
         23    2    1    2    0    0 -0.11392218377E+04  0.37588930195E+03  0.36605536226E+03  0.12573835849E+04  0.88869503809E+02 0.  0.
         11    1    3    3    0    0 -0.62964335998E+03  0.16472218255E+03  0.21595534473E+03  0.68572652647E+03  0.00000000000E+00 0. -1.
        -11    1    3    3    0    0 -0.50957847769E+03  0.21116711939E+03  0.15010001754E+03  0.57165705848E+03  0.00000000000E+00 0.  1.
         22    1    1    2    0    0  0.11392218377E+04 -0.37588930195E+03  0.50169519257E+02  0.12006815329E+04  0.00000000000E+00 0. -1.
<mgrwt>
<rscale>  0 0.24225691E+04</rscale>
<asrwt>0</asrwt>
<pdfrwt beam="1">  1        1 0.22109923E+00 0.24225691E+04</pdfrwt>
<pdfrwt beam="2">  1       -1 0.15706463E+00 0.24225691E+04</pdfrwt>
<totfact> 0.19912410E+00</totfact>
</mgrwt>
</event>
<event>
 6    1  0.2047711E-005  0.8313504E+03  0.7818608E-02  0.9515715E-01
          1   -1    0    0  501    0  0.00000000000E+00  0.00000000000E+00  0.74402527395E+03  0.74402527395E+03  0.00000000000E+00 0. -1.
         -1   -1    0    0    0  501 -0.00000000000E+00 -0.00000000000E+00 -0.23223115922E+03  0.23223115922E+03  0.00000000000E+00 0.  1.
         23    2    1    2    0    0 -0.74248212716E+02 -0.13476307610E+03 -0.18807806993E+03  0.25967080770E+03  0.91551538545E+02 0.  0.
         11    1    3    3    0    0 -0.50748544895E+02 -0.49922680133E+02 -0.27058611023E+02  0.76156793729E+02  0.00000000000E+00 0.  1.
        -11    1    3    3    0    0 -0.23499667821E+02 -0.84840395968E+02 -0.16101945891E+03  0.18351401397E+03  0.00000000000E+00 0. -1.
         22    1    1    2    0    0  0.74248212716E+02  0.13476307610E+03  0.69987218466E+03  0.71658562547E+03  0.00000000000E+00 0. -1.
<mgrwt>
<rscale>  0 0.83135035E+03</rscale>
<asrwt>0</asrwt>
<pdfrwt beam="1">  1        1 0.11446543E+00 0.83135035E+03</pdfrwt>
<pdfrwt beam="2">  1       -1 0.35727871E-01 0.83135035E+03</pdfrwt>
<totfact> 0.18715127E+02</totfact>
</mgrwt>
</event>
<event>
 6    1  0.2047711E-005  0.1691100E+04  0.7818608E-02  0.8766457E-01
          2   -1    0    0  501    0  0.00000000000E+00  0.00000000000E+00  0.25766035673E+04  0.25766035673E+04  0.00000000000E+00 0. -1.
         -2   -1    0    0    0  501 -0.00000000000E+00 -0.00000000000E+00 -0.27747964789E+03  0.27747964789E+03  0.00000000000E+00 0.  1.
         23    2    1    2    0    0  0.29168313922E+03 -0.40096253657E+03  0.23036703249E+04  0.23582297295E+04  0.92198059130E+02 0.  0.
         13    1    3    3    0    0  0.52965456736E+02 -0.14463958325E+03  0.69153451937E+03  0.70848143245E+03  0.00000000000E+00 0. -1.
        -13    1    3    3    0    0  0.23871768248E+03 -0.25632295332E+03  0.16121358055E+04  0.16497482971E+04  0.00000000000E+00 0.  1.
         22    1    1    2    0    0 -0.29168313922E+03  0.40096253657E+03 -0.45464054559E+01  0.49585348566E+03  0.00000000000E+00 0.  1.
<mgrwt>
<rscale>  0 0.16911003E+04</rscale>
<asrwt>0</asrwt>
<pdfrwt beam="1">  1        2 0.39640053E+00 0.16911003E+04</pdfrwt>
<pdfrwt beam="2">  1       -2 0.42689178E-01 0.16911003E+04</pdfrwt>
<totfact> 0.15590802E+01</totfact>
</mgrwt>
</event>
<event>
 6    1  0.2047711E-005  0.1198353E+04  0.7818608E-02  0.9114300E-01
         -2   -1    0    0    0  501 -0.00000000000E+00  0.00000000000E+00  0.29344739608E+03  0.29344739608E+03  0.00000000000E+00 0.  1.
          2   -1    0    0  501    0  0.00000000000E+00 -0.00000000000E+00 -0.12234299184E+04  0.12234299184E+04  0.00000000000E+00 0. -1.
         23    2    1    2    0    0  0.17879123320E+03 -0.36824010736E+02 -0.11854938292E+04  0.12028576642E+04  0.90269753219E+02 0.  0.
         13    1    3    3    0    0  0.35378466478E+02 -0.27386196856E+02 -0.12698041456E+03  0.13463159120E+03  0.00000000000E+00 0. -1.
        -13    1    3    3    0    0  0.14341276672E+03 -0.94378138792E+01 -0.10585134147E+04  0.10682260730E+04  0.00000000000E+00 0.  1.
         22    1    1    2    0    0 -0.17879123320E+03  0.36824010736E+02  0.25551130688E+03  0.31401965031E+03  0.00000000000E+00 0.  1.
<mgrwt>
<rscale>  0 0.11983527E+04</rscale>
<asrwt>0</asrwt>
<pdfrwt beam="1">  1        2 0.18821999E+00 0.11983527E+04</pdfrwt>
<pdfrwt beam="2">  1       -2 0.45145753E-01 0.11983527E+04</pdfrwt>
<totfact> 0.84177465E+01</totfact>
</mgrwt>
</event>
<event>
 6    1  0.2047711E-005  0.3440820E+04  0.7818608E-02  0.8127960E-01
         -2   -1    0    0    0  501 -0.00000000000E+00  0.00000000000E+00  0.15606882916E+04  0.15606882916E+04  0.00000000000E+00 0.  1.
          2   -1    0    0  501    0  0.00000000000E+00 -0.00000000000E+00 -0.18964781020E+04  0.18964781020E+04  0.00000000000E+00 0. -1.
         23    2    1    2    0    0  0.48639749822E+03 -0.24885762990E+03  0.14698177772E+04  0.15707063737E+04  0.90783081601E+02 0.  0.
         11    1    3    3    0    0  0.20630058558E+03 -0.12835443651E+03  0.53936831252E+03  0.59156822898E+03  0.00000000000E+00 0.  1.
        -11    1    3    3    0    0  0.28009691264E+03 -0.12050319339E+03  0.93044946471E+03  0.97913814473E+03  0.00000000000E+00 0. -1.
         22    1    1    2    0    0 -0.48639749822E+03  0.24885762990E+03 -0.18056075876E+04  0.18864600199E+04  0.00000000000E+00 0. -1.
<mgrwt>
<rscale>  0 0.34408203E+04</rscale>
<asrwt>0</asrwt>
<pdfrwt beam="1">  1        2 0.29176586E+00 0.34408203E+04</pdfrwt>
<pdfrwt beam="2">  1       -2 0.24010589E+00 0.34408203E+04</pdfrwt>
<totfact> 0.46586078E-01</totfact>
</mgrwt>
</event>
<event>
 6    1  0.2047711E-005  0.9087044E+03  0.7818608E-02  0.9414766E-01
          1   -1    0    0  501    0  0.00000000000E+00  0.00000000000E+00  0.13582509091E+04  0.13582509091E+04  0.00000000000E+00 0. -1.
         -1   -1    0    0    0  501 -0.00000000000E+00 -0.00000000000E+00 -0.15198657315E+03  0.15198657315E+03  0.00000000000E+00 0.  1.
         23    2    1    2    0    0 -0.21672609423E+03  0.22647299510E+03  0.11449891753E+04  0.11908398262E+04  0.94016288537E+02 0.  0.
         11    1    3    3    0    0 -0.80097675520E+02  0.13280125456E+03  0.67255871667E+03  0.69020796735E+03  0.00000000000E+00 0. -1.
        -11    1    3    3    0    0 -0.13662841871E+03  0.93671740540E+02  0.47243045866E+03  0.50063185880E+03  0.00000000000E+00 0.  1.
         22    1    1    2    0    0  0.21672609423E+03 -0.22647299510E+03  0.61275160662E+02  0.31939765613E+03  0.00000000000E+00 0.  1.
<mgrwt>
<rscale>  0 0.90870435E+03</rscale>
<asrwt>0</asrwt>
<pdfrwt beam="1">  1        1 0.20896167E+00 0.90870435E+03</pdfrwt>
<pdfrwt beam="2">  1       -1 0.23382551E-01 0.90870435E+03</pdfrwt>
<totfact> 0.13004465E+02</totfact>
</mgrwt>
</event>
<event>
 6    1  0.2047711E-005  0.3257155E+04  0.7818608E-02  0.8173884E-01
          2   -1    0    0  501    0  0.00000000000E+00  0.00000000000E+00  0.23302686612E+04  0.23302686612E+04  0.00000000000E+00 0. -1.
         -2   -1    0    0    0  501 -0.00000000000E+00 -0.00000000000E+00 -0.11381797082E+04  0.11381797082E+04  0.00000000000E+00 0.  1.
         23    2    1    2    0    0 -0.78856152428E+03  0.12095155128E+03 -0.91376525162E+03  0.12165424020E+04  0.92465806848E+02 0.  0.
         13    1    3    3    0    0 -0.47257777775E+03  0.47007227885E+02 -0.48480145257E+03  0.67865446577E+03  0.00000000000E+00 0.  1.
        -13    1    3    3    0    0 -0.31598374653E+03  0.73944323394E+02 -0.42896379905E+03  0.53788793622E+03  0.00000000000E+00 0. -1.
         22    1    1    2    0    0  0.78856152428E+03 -0.12095155128E+03  0.21058542046E+04  0.22519059675E+04  0.00000000000E+00 0. -1.
<mgrwt>
<rscale>  0 0.32571549E+04</rscale>
<asrwt>0</asrwt>
<pdfrwt beam="1">  1        2 0.35850287E+00 0.32571549E+04</pdfrwt>
<pdfrwt beam="2">  1       -2 0.17510457E+00 0.32571549E+04</pdfrwt>
<totfact> 0.71630430E-01</totfact>
</mgrwt>
</event>
<event>
 6    1  0.2047711E-005  0.1222002E+03  0.7818608E-02  0.1239511E+00
         -1   -1    0    0    0  501 -0.00000000000E+00  0.00000000000E+00  0.24465454182E+03  0.24465454182E+03  0.00000000000E+00 0.  1.
          1   -1    0    0  501    0  0.00000000000E+00 -0.00000000000E+00 -0.15259148134E+02  0.15259148134E+02  0.00000000000E+00 0. -1.
         23    2    1    2    0    0 -0.98782923367E+01  0.24943704690E+02  0.18945407144E+03  0.21179842953E+03  0.90807271196E+02 0.  0.
         11    1    3    3    0    0  0.30313673569E+02  0.10163354436E+02  0.15066229503E+03  0.15401733579E+03  0.00000000000E+00 0.  1.
        -11    1    3    3    0    0 -0.40191965906E+02  0.14780350254E+02  0.38791776408E+02  0.57781093741E+02  0.00000000000E+00 0. -1.
         22    1    1    2    0    0  0.98782923367E+01 -0.24943704690E+02  0.39941322249E+02  0.48115260429E+02  0.00000000000E+00 0.  1.
<mgrwt>
<rscale>  0 0.12220016E+03</rscale>
<asrwt>0</asrwt>
<pdfrwt beam="1">  1        1 0.23475614E-02 0.12220016E+03</pdfrwt>
<pdfrwt beam="2">  1       -1 0.37639157E-01 0.12220016E+03</pdfrwt>
<totfact> 0.30166183E+04</totfact>
</mgrwt>
</event>
<event>
 6    1  0.2047711E-005  0.4346733E+04  0.7818608E-02  0.7938033E-01
         -2   -1    0    0    0  501 -0.00000000000E+00  0.00000000000E+00  0.17525398766E+04  0.17525398766E+04  0.00000000000E+00 0.  1.
          2   -1    0    0  501    0  0.00000000000E+00 -0.00000000000E+00 -0.26952433388E+04  0.26952433388E+04  0.00000000000E+00 0. -1.
         23    2    1    2    0    0  0.18116348205E+04 -0.18149193727E+02  0.75502663521E+03  0.19649143910E+04  0.92050138688E+02 0.  0.
         13    1    3    3    0    0  0.54292713543E+03  0.33335619774E+02  0.20853437841E+03  0.58255276577E+03  0.00000000000E+00 0. -1.
        -13    1    3    3    0    0  0.12687076850E+04 -0.51484813501E+02  0.54649225680E+03  0.13823616252E+04  0.00000000000E+00 0.  1.
         22    1    1    2    0    0 -0.18116348205E+04  0.18149193727E+02 -0.16977300974E+04  0.24828688245E+04  0.00000000000E+00 0. -1.
<mgrwt>
<rscale>  0 0.43467328E+04</rscale>
<asrwt>0</asrwt>
<pdfrwt beam="1">  1        2 0.41465282E+00 0.43467328E+04</pdfrwt>
<pdfrwt beam="2">  1       -2 0.26962152E+00 0.43467328E+04</pdfrwt>
<totfact> 0.99899037E-02</totfact>
</mgrwt>
</event>
<event>
 6    1  0.2047711E-005  0.1565015E+04  0.7818608E-02  0.8842334E-01
          2   -1    0    0  501    0  0.00000000000E+00  0.00000000000E+00  0.20176753066E+04  0.20176753066E+04  0.00000000000E+00 0. -1.
         -2   -1    0    0    0  501 -0.00000000000E+00 -0.00000000000E+00 -0.30347702088E+03  0.30347702088E+03  0.00000000000E+00 0.  1.
         23    2    1    2    0    0 -0.68698792429E+03 -0.10947587752E+03  0.13825615318E+04  0.15504900717E+04  0.92766897709E+02 0.  0.
         11    1    3    3    0    0 -0.28431226160E+03 -0.64314251611E+02  0.48787910399E+03  0.56832719904E+03  0.00000000000E+00 0.  1.
        -11    1    3    3    0    0 -0.40267566268E+03 -0.45161625907E+02  0.89468242785E+03  0.98216287268E+03  0.00000000000E+00 0. -1.
         22    1    1    2    0    0  0.68698792429E+03  0.10947587752E+03  0.33163675384E+03  0.77066225571E+03  0.00000000000E+00 0.  1.
<mgrwt>
<rscale>  0 0.15650151E+04</rscale>
<asrwt>0</asrwt>
<pdfrwt beam="1">  1        2 0.31041158E+00 0.15650151E+04</pdfrwt>
<pdfrwt beam="2">  1       -2 0.46688774E-01 0.15650151E+04</pdfrwt>
<totfact> 0.27319712E+01</totfact>
</mgrwt>
</event>
<event>
 6    1  0.2047711E-005  0.3167024E+04  0.7818608E-02  0.8197581E-01
         -1   -1    0    0    0  501 -0.00000000000E+00  0.00000000000E+00  0.19792936902E+04  0.19792936902E+04  0.00000000000E+00 0.  1.
          1   -1    0    0  501    0  0.00000000000E+00 -0.00000000000E+00 -0.12668712323E+04  0.12668712323E+04  0.00000000000E+00 0. -1.
         23    2    1    2    0    0  0.87750763109E+03 -0.11908639517E+04 -0.21828314282E+03  0.14984837418E+04  0.98129504864E+02 0.  0.
         11    1    3    3    0    0  0.31388503266E+03 -0.37732685017E+03 -0.10892800897E+03  0.50275707527E+03  0.00000000000E+00 0. -1.
        -11    1    3    3    0    0  0.56362259843E+03 -0.81353710155E+03 -0.10935513385E+03  0.99572666649E+03  0.00000000000E+00 0.  1.
         22    1    1    2    0    0 -0.87750763109E+03  0.11908639517E+04  0.93070560076E+03  0.17476811807E+04  0.00000000000E+00 0. -1.
<mgrwt>
<rscale>  0 0.31670240E+04</rscale>
<asrwt>0</asrwt>
<pdfrwt beam="1">  1        1 0.19490326E+00 0.31670240E+04</pdfrwt>
<pdfrwt beam="2">  1       -1 0.30450672E+00 0.31670240E+04</pdfrwt>
<totfact> 0.24746802E-01</totfact>
</mgrwt>
</event>
<event>
 6    1  0.2047711E-005  0.3040517E+04  0.7818608E-02  0.8232255E-01
         -1   -1    0    0    0  501 -0.00000000000E+00  0.00000000000E+00  0.10637855131E+04  0.10637855131E+04  0.00000000000E+00 0.  1.
          1   -1    0    0  501    0  0.00000000000E+00 -0.00000000000E+00 -0.21726054837E+04  0.21726054837E+04  0.00000000000E+00 0. -1.
         23    2    1    2    0    0  0.10523967040E+04  0.39584505529E+02  0.61013344628E+03  0.12204776542E+04  0.90537983856E+02 0.  0.
         13    1    3    3    0    0  0.77800410749E+03  0.33339509266E+02  0.40437354669E+03  0.87745078461E+03  0.00000000000E+00 0.  1.
        -13    1    3    3    0    0  0.27439259651E+03  0.62449962633E+01  0.20575989959E+03  0.34302686961E+03  0.00000000000E+00 0. -1.
         22    1    1    2    0    0 -0.10523967040E+04 -0.39584505529E+02 -0.17189534168E+04  0.20159133426E+04  0.00000000000E+00 0. -1.
<mgrwt>
<rscale>  0 0.30405172E+04</rscale>
<asrwt>0</asrwt>
<pdfrwt beam="1">  1        1 0.33424699E+00 0.30405172E+04</pdfrwt>
<pdfrwt beam="2">  1       -1 0.16365931E+00 0.30405172E+04</pdfrwt>
<totfact> 0.52893088E-01</totfact>
</mgrwt>
</event>
<event>
 6    1  0.2047711E-005  0.7892100E+03  0.7818608E-02  0.9575768E-01
          2   -1    0    0  501    0  0.00000000000E+00  0.00000000000E+00  0.94303297177E+03  0.94303297177E+03  0.00000000000E+00 0. -1.
         -2   -1    0    0    0  501 -0.00000000000E+00 -0.00000000000E+00 -0.16511945293E+03  0.16511945293E+03  0.00000000000E+00 0.  1.
         23    2    1    2    0    0 -0.36431524637E+02 -0.28398974165E+03  0.76460596800E+03  0.82152632634E+03  0.91136102666E+02 0.  0.
         13    1    3    3    0    0 -0.14221351672E+02 -0.27070146727E+03  0.72683341432E+03  0.77573729020E+03  0.00000000000E+00 0.  1.
        -13    1    3    3    0    0 -0.22210172965E+02 -0.13288274381E+02  0.37772553679E+02  0.45789036139E+02  0.00000000000E+00 0. -1.
         22    1    1    2    0    0  0.36431524637E+02  0.28398974165E+03  0.13307550839E+02  0.28662609836E+03  0.00000000000E+00 0.  1.
<mgrwt>
<rscale>  0 0.78920996E+03</rscale>
<asrwt>0</asrwt>
<pdfrwt beam="1">  1        2 0.14508199E+00 0.78920996E+03</pdfrwt>
<pdfrwt beam="2">  1       -2 0.25402993E-01 0.78920996E+03</pdfrwt>
<totfact> 0.38389623E+02</totfact>
</mgrwt>
</event>
<event>
 6    1  0.2047711E-005  0.2085065E+04  0.7818608E-02  0.8567851E-01
         -1   -1    0    0    0  501 -0.00000000000E+00  0.00000000000E+00  0.13394841478E+04  0.13394841478E+04  0.00000000000E+00 0.  1.
          1   -1    0    0  501    0  0.00000000000E+00 -0.00000000000E+00 -0.81141259738E+03  0.81141259738E+03  0.00000000000E+00 0. -1.
         23    2    1    2    0    0  0.60552109182E+03 -0.63870492704E+03 -0.30799935440E+03  0.93697156858E+03  0.91936617014E+02 0.  0.
         11    1    3    3    0    0  0.14362742394E+03 -0.20445096356E+03 -0.66475580006E+02  0.25854987168E+03  0.00000000000E+00 0. -1.
        -11    1    3    3    0    0  0.46189366788E+03 -0.43425396349E+03 -0.24152377439E+03  0.67842169690E+03  0.00000000000E+00 0.  1.
         22    1    1    2    0    0 -0.60552109182E+03  0.63870492704E+03  0.83607090480E+03  0.12139251766E+04  0.00000000000E+00 0.  1.
<mgrwt>
<rscale>  0 0.20850653E+04</rscale>
<asrwt>0</asrwt>
<pdfrwt beam="1">  1        1 0.12483271E+00 0.20850653E+04</pdfrwt>
<pdfrwt beam="2">  1       -1 0.20607448E+00 0.20850653E+04</pdfrwt>
<totfact> 0.27204211E+00</totfact>
</mgrwt>
</event>
<event>
 6    1  0.2047711E-005  0.3450664E+04  0.7818608E-02  0.8125582E-01
          2   -1    0    0  501    0  0.00000000000E+00  0.00000000000E+00  0.18265735032E+04  0.18265735032E+04  0.00000000000E+00 0. -1.
         -2   -1    0    0    0  501 -0.00000000000E+00 -0.00000000000E+00 -0.16297019169E+04  0.16297019169E+04  0.00000000000E+00 0.  1.
         23    2    1    2    0    0  0.10834185904E+04  0.13140002772E+04 -0.17095166034E+03  0.17139532594E+04  0.89547388920E+02 0.  0.
         13    1    3    3    0    0  0.80397638775E+03  0.10331466934E+04 -0.13929387226E+03  0.13165002487E+04  0.00000000000E+00 0. -1.
        -13    1    3    3    0    0  0.27944220262E+03  0.28085358387E+03 -0.31657788080E+02  0.39745301071E+03  0.00000000000E+00 0.  1.
         22    1    1    2    0    0 -0.10834185904E+04 -0.13140002772E+04  0.36782324662E+03  0.17423221606E+04  0.00000000000E+00 0. -1.
<mgrwt>
<rscale>  0 0.34506639E+04</rscale>
<asrwt>0</asrwt>
<pdfrwt beam="1">  1        2 0.28101131E+00 0.34506639E+04</pdfrwt>
<pdfrwt beam="2">  1       -2 0.25072337E+00 0.34506639E+04</pdfrwt>
<totfact> 0.43771125E-01</totfact>
</mgrwt>
</event>
<event>
 6    1  0.2047711E-005  0.1824189E+04  0.7818608E-02  0.8693541E-01
         -2   -1    0    0    0  501 -0.00000000000E+00  0.00000000000E+00  0.11929342954E+04  0.11929342954E+04  0.00000000000E+00 0.  1.
          2   -1    0    0  501    0  0.00000000000E+00 -0.00000000000E+00 -0.69736945555E+03  0.69736945555E+03  0.00000000000E+00 0. -1.
         23    2    1    2    0    0 -0.21135733071E+03 -0.66808270866E+03  0.84952351819E+03  0.11052603300E+04  0.94359749116E+02 0.  0.
         13    1    3    3    0    0 -0.88738843090E+02 -0.38968689327E+03  0.53370469333E+03  0.66676169412E+03  0.00000000000E+00 0.  1.
        -13    1    3    3    0    0 -0.12261848762E+03 -0.27839581539E+03  0.31581882486E+03  0.43849863588E+03  0.00000000000E+00 0. -1.
         22    1    1    2    0    0  0.21135733071E+03  0.66808270866E+03 -0.35395867831E+03  0.78504342097E+03  0.00000000000E+00 0. -1.
<mgrwt>
<rscale>  0 0.18241885E+04</rscale>
<asrwt>0</asrwt>
<pdfrwt beam="1">  1        2 0.10728761E+00 0.18241885E+04</pdfrwt>
<pdfrwt beam="2">  1       -2 0.18352835E+00 0.18241885E+04</pdfrwt>
<totfact> 0.66468743E+00</totfact>
</mgrwt>
</event>
<event>
 6    1  0.2047711E-005  0.4433729E+04  0.7818608E-02  0.7922343E-01
          2   -1    0    0  501    0  0.00000000000E+00  0.00000000000E+00  0.20133029114E+04  0.20133029114E+04  0.00000000000E+00 0. -1.
         -2   -1    0    0    0  501 -0.00000000000E+00 -0.00000000000E+00 -0.24410074320E+04  0.24410074320E+04  0.00000000000E+00 0.  1.
         23    2    1    2    0    0  0.74197772869E+03  0.19689890078E+04  0.48419255579E+03  0.21610582987E+04  0.91004818216E+02 0.  0.
         13    1    3    3    0    0  0.12771461131E+03  0.25247195745E+03  0.70866191060E+02  0.29167641022E+03  0.00000000000E+00 0. -1.
        -13    1    3    3    0    0  0.61426311737E+03  0.17165170503E+04  0.41332636473E+03  0.18693818885E+04  0.00000000000E+00 0.  1.
         22    1    1    2    0    0 -0.74197772869E+03 -0.19689890078E+04 -0.91189707640E+03  0.22932520447E+04  0.00000000000E+00 0.  1.
<mgrwt>
<rscale>  0 0.44337286E+04</rscale>
<asrwt>0</asrwt>
<pdfrwt beam="1">  1        2 0.30973891E+00 0.44337286E+04</pdfrwt>
<pdfrwt beam="2">  1       -2 0.37553960E+00 0.44337286E+04</pdfrwt>
<totfact> 0.53520756E-02</totfact>
</mgrwt>
</event>
<event>
 6    1  0.2047711E-005  0.5628825E+03  0.7818608E-02  0.9985553E-01
          2   -1    0    0  501    0  0.00000000000E+00  0.00000000000E+00  0.95011309651E+03  0.95011309651E+03  0.00000000000E+00 0. -1.
         -2   -1    0    0    0  501 -0.00000000000E+00 -0.00000000000E+00 -0.83368169520E+02  0.83368169520E+02  0.00000000000E+00 0.  1.
         23    2    1    2    0    0  0.17585674668E+03 -0.18383662686E+03  0.25812267391E+03  0.37382791186E+03  0.91643287653E+02 0.  0.
         11    1    3    3    0    0  0.53607297241E+02 -0.10826713330E+03  0.79755440546E+02  0.14476340963E+03  0.00000000000E+00 0.  1.
        -11    1    3    3    0    0  0.12224944943E+03 -0.75569493558E+02  0.17836723337E+03  0.22906450223E+03  0.00000000000E+00 0. -1.
         22    1    1    2    0    0 -0.17585674668E+03  0.18383662686E+03  0.60862225308E+03  0.65965335417E+03  0.00000000000E+00 0. -1.
<mgrwt>
<rscale>  0 0.56288254E+03</rscale>
<asrwt>0</asrwt>
<pdfrwt beam="1">  1        2 0.14617124E+00 0.56288254E+03</pdfrwt>
<pdfrwt beam="2">  1       -2 0.12825873E-01 0.56288254E+03</pdfrwt>
<totfact> 0.12456223E+03</totfact>
</mgrwt>
</event>
<event>
 6    1  0.2047711E-005  0.9168918E+03  0.7818608E-02  0.9404709E-01
         -2   -1    0    0    0  501 -0.00000000000E+00  0.00000000000E+00  0.13038257793E+03  0.13038257793E+03  0.00000000000E+00 0. -1.
          2   -1    0    0  501    0  0.00000000000E+00 -0.00000000000E+00 -0.16119686583E+04  0.16119686583E+04  0.00000000000E+00 0.  1.
         23    2    1    2    0    0  0.34056413411E+03 -0.17762144740E+03 -0.12076511892E+04  0.12705741357E+04  0.91672959369E+02 0.  0.
         13    1    3    3    0    0  0.21836276479E+03 -0.15448540376E+03 -0.89421119464E+03  0.93336043287E+03  0.00000000000E+00 0. -1.
        -13    1    3    3    0    0  0.12220136932E+03 -0.23136043645E+02 -0.31343999452E+03  0.33721370278E+03  0.00000000000E+00 0.  1.
         22    1    1    2    0    0 -0.34056413411E+03  0.17762144740E+03 -0.27393489121E+03  0.47177710059E+03  0.00000000000E+00 0. -1.
<mgrwt>
<rscale>  0 0.91689177E+03</rscale>
<asrwt>0</asrwt>
<pdfrwt beam="1">  1        2 0.24799516E+00 0.91689177E+03</pdfrwt>
<pdfrwt beam="2">  1       -2 0.20058860E-01 0.91689177E+03</pdfrwt>
<totfact> 0.23416297E+02</totfact>
</mgrwt>
</event>
<event>
 6    1  0.2047711E-005  0.3877778E+04  0.7818608E-02  0.8029667E-01
          2   -1    0    0  501    0  0.00000000000E+00  0.00000000000E+00  0.17814077307E+04  0.17814077307E+04  0.00000000000E+00 0. -1.
         -2   -1    0    0    0  501 -0.00000000000E+00 -0.00000000000E+00 -0.21102915614E+04  0.21102915614E+04  0.00000000000E+00 0.  1.
         23    2    1    2    0    0  0.25193713620E+03 -0.14864285863E+04  0.10573009001E+04  0.18436635574E+04  0.90927755883E+02 0.  0.
         13    1    3    3    0    0  0.26037958441E+02 -0.88835213964E+02  0.89382745816E+02  0.12868156733E+03  0.00000000000E+00 0. -1.
        -13    1    3    3    0    0  0.22589917776E+03 -0.13975933723E+04  0.96791815428E+03  0.17149819900E+04  0.00000000000E+00 0.  1.
         22    1    1    2    0    0 -0.25193713620E+03  0.14864285863E+04 -0.13861847308E+04  0.20480357347E+04  0.00000000000E+00 0.  1.
<mgrwt>
<rscale>  0 0.38777776E+04</rscale>
<asrwt>0</asrwt>
<pdfrwt beam="1">  1        2 0.27406273E+00 0.38777776E+04</pdfrwt>
<pdfrwt beam="2">  1       -2 0.32466024E+00 0.38777776E+04</pdfrwt>
<totfact> 0.15771598E-01</totfact>
</mgrwt>
</event>
<event>
 6    1  0.2047711E-005  0.3715796E+04  0.7818608E-02  0.8064470E-01
          2   -1    0    0  501    0  0.00000000000E+00  0.00000000000E+00  0.28813724128E+04  0.28813724128E+04  0.00000000000E+00 0. -1.
         -2   -1    0    0    0  501 -0.00000000000E+00 -0.00000000000E+00 -0.11979656697E+04  0.11979656697E+04  0.00000000000E+00 0.  1.
         23    2    1    2    0    0  0.60119365547E+03 -0.11234226333E+04 -0.64047998260E+03  0.14290622971E+04  0.92153223136E+02 0.  0.
         11    1    3    3    0    0  0.25401741114E+03 -0.38122405383E+03 -0.23290973903E+03  0.51391008058E+03  0.00000000000E+00 0. -1.
        -11    1    3    3    0    0  0.34717624433E+03 -0.74219857948E+03 -0.40757024357E+03  0.91515221654E+03  0.00000000000E+00 0.  1.
         22    1    1    2    0    0 -0.60119365547E+03  0.11234226333E+04  0.23238867257E+04  0.26502757853E+04  0.00000000000E+00 0. -1.
<mgrwt>
<rscale>  0 0.37157961E+04</rscale>
<asrwt>0</asrwt>
<pdfrwt beam="1">  1        2 0.44328806E+00 0.37157961E+04</pdfrwt>
<pdfrwt beam="2">  1       -2 0.18430241E+00 0.37157961E+04</pdfrwt>
<totfact> 0.28197734E-01</totfact>
</mgrwt>
</event>
<event>
 6    1  0.2047711E-005  0.2404082E+04  0.7818608E-02  0.8437977E-01
         -2   -1    0    0    0  501 -0.00000000000E+00  0.00000000000E+00  0.14321471690E+04  0.14321471690E+04  0.00000000000E+00 0.  1.
          2   -1    0    0  501    0  0.00000000000E+00 -0.00000000000E+00 -0.10089068174E+04  0.10089068174E+04  0.00000000000E+00 0. -1.
         23    2    1    2    0    0  0.86888196024E+03  0.66128235986E+03  0.71796522249E+03  0.13100752202E+04  0.92589424369E+02 0.  0.
         13    1    3    3    0    0  0.43935425663E+03  0.33201822256E+03  0.30678099001E+03  0.63038308889E+03  0.00000000000E+00 0.  1.
        -13    1    3    3    0    0  0.42952770361E+03  0.32926413730E+03  0.41118423247E+03  0.67969213128E+03  0.00000000000E+00 0. -1.
         22    1    1    2    0    0 -0.86888196024E+03 -0.66128235986E+03 -0.29472487088E+03  0.11309787663E+04  0.00000000000E+00 0. -1.
<mgrwt>
<rscale>  0 0.24040824E+04</rscale>
<asrwt>0</asrwt>
<pdfrwt beam="1">  1        2 0.15521643E+00 0.24040824E+04</pdfrwt>
<pdfrwt beam="2">  1       -2 0.22033034E+00 0.24040824E+04</pdfrwt>
<totfact> 0.21975625E+00</totfact>
</mgrwt>
</event>
<event>
 6    1  0.2047711E-005  0.1448888E+04  0.7818608E-02  0.8919172E-01
          2   -1    0    0  501    0  0.00000000000E+00  0.00000000000E+00  0.25070036843E+04  0.25070036843E+04  0.00000000000E+00 0. -1.
         -2   -1    0    0    0  501 -0.00000000000E+00 -0.00000000000E+00 -0.20934118154E+03  0.20934118154E+03  0.00000000000E+00 0.  1.
         23    2    1    2    0    0 -0.71462347863E+03 -0.16116927557E+01  0.96780206161E+03  0.12066369117E+04  0.92965006951E+02 0.  0.
         13    1    3    3    0    0 -0.62816919421E+03 -0.32015000958E+02  0.84187605850E+03  0.10508933318E+04  0.00000000000E+00 0. -1.
        -13    1    3    3    0    0 -0.86454284425E+02  0.30403308203E+02  0.12592600311E+03  0.15574357997E+03  0.00000000000E+00 0.  1.
         22    1    1    2    0    0  0.71462347863E+03  0.16116927557E+01  0.13298604411E+04  0.15097079541E+04  0.00000000000E+00 0.  1.
<mgrwt>
<rscale>  0 0.14488880E+04</rscale>
<asrwt>0</asrwt>
<pdfrwt beam="1">  1        2 0.38569285E+00 0.14488880E+04</pdfrwt>
<pdfrwt beam="2">  1       -2 0.32206337E-01 0.14488880E+04</pdfrwt>
<totfact> 0.30115687E+01</totfact>
</mgrwt>
</event>
<event>
 6    1  0.2047711E-005  0.2491677E+04  0.7818608E-02  0.8405956E-01
         -1   -1    0    0    0  501 -0.00000000000E+00  0.00000000000E+00  0.46316448663E+03  0.46316448663E+03  0.00000000000E+00 0.  1.
          1   -1    0    0  501    0  0.00000000000E+00 -0.00000000000E+00 -0.33511079344E+04  0.33511079344E+04  0.00000000000E+00 0. -1.
         23    2    1    2    0    0  0.99350830392E+03 -0.54556903192E+03 -0.66006960272E+03  0.13146472115E+04  0.88888085675E+02 0.  0.
         13    1    3    3    0    0  0.26434106289E+03 -0.15216880524E+03 -0.13345904252E+03  0.33293071178E+03  0.00000000000E+00 0. -1.
        -13    1    3    3    0    0  0.72916724103E+03 -0.39340022669E+03 -0.52661056020E+03  0.98171649974E+03  0.00000000000E+00 0.  1.
         22    1    1    2    0    0 -0.99350830392E+03  0.54556903192E+03 -0.22278738451E+04  0.24996252095E+04  0.00000000000E+00 0. -1.
<mgrwt>
<rscale>  0 0.24916775E+04</rscale>
<asrwt>0</asrwt>
<pdfrwt beam="1">  1        1 0.51555506E+00 0.24916775E+04</pdfrwt>
<pdfrwt beam="2">  1       -1 0.71256076E-01 0.24916775E+04</pdfrwt>
<totfact> 0.57743317E-01</totfact>
</mgrwt>
</event>
<event>
 6    1  0.2285299E-005  0.2091336E+04  0.7818608E-02  0.8565070E-01
          1   -1    0    0  501    0  0.00000000000E+00  0.00000000000E+00  0.99730993051E+03  0.99730993051E+03  0.00000000000E+00 0. -1.
         -1   -1    0    0    0  501 -0.00000000000E+00 -0.00000000000E+00 -0.10963705939E+04  0.10963705939E+04  0.00000000000E+00 0.  1.
         23    2    1    2    0    0 -0.10020215194E+04  0.14881602513E+03  0.20512107187E+03  0.10359849809E+04  0.70688696362E+02 0.  0.
         11    1    3    3    0    0 -0.60424159445E+03  0.11583702013E+03  0.14776311722E+03  0.63274011925E+03  0.00000000000E+00 0.  1.
        -11    1    3    3    0    0 -0.39777992498E+03  0.32979004995E+02  0.57357954650E+02  0.40324486165E+03  0.00000000000E+00 0. -1.
         22    1    1    2    0    0  0.10020215194E+04 -0.14881602513E+03 -0.30418173528E+03  0.10576955435E+04  0.00000000000E+00 0. -1.
<mgrwt>
<rscale>  0 0.20913357E+04</rscale>
<asrwt>0</asrwt>
<pdfrwt beam="1">  1        1 0.15343230E+00 0.20913357E+04</pdfrwt>
<pdfrwt beam="2">  1       -1 0.16867240E+00 0.20913357E+04</pdfrwt>
<totfact> 0.35219856E+00</totfact>
</mgrwt>
</event>
<event>
 6    1  0.2047711E-005  0.3887552E+04  0.7818608E-02  0.8027623E-01
          2   -1    0    0  501    0  0.00000000000E+00  0.00000000000E+00  0.26844320918E+04  0.26844320918E+04  0.00000000000E+00 0. -1.
         -2   -1    0    0    0  501 -0.00000000000E+00 -0.00000000000E+00 -0.14074727693E+04  0.14074727693E+04  0.00000000000E+00 0.  1.
         23    2    1    2    0    0 -0.16552650526E+04 -0.18779370332E+03 -0.41300460175E+03  0.17189010822E+04  0.94229824519E+02 0.  0.
         13    1    3    3    0    0 -0.43277338148E+03 -0.88887807925E+02 -0.96193386077E+02  0.45215816883E+03  0.00000000000E+00 0. -1.
        -13    1    3    3    0    0 -0.12224916711E+04 -0.98905895396E+02 -0.31681121567E+03  0.12667429133E+04  0.00000000000E+00 0.  1.
         22    1    1    2    0    0  0.16552650526E+04  0.18779370332E+03  0.16899639242E+04  0.23730037789E+04  0.00000000000E+00 0. -1.
<mgrwt>
<rscale>  0 0.38875520E+04</rscale>
<asrwt>0</asrwt>
<pdfrwt beam="1">  1        2 0.41298955E+00 0.38875520E+04</pdfrwt>
<pdfrwt beam="2">  1       -2 0.21653427E+00 0.38875520E+04</pdfrwt>
<totfact> 0.22451767E-01</totfact>
</mgrwt>
</event>
<event>
 6    1  0.2047711E-005  0.9623781E+03  0.7818608E-02  0.9350798E-01
         -1   -1    0    0    0  501 -0.00000000000E+00  0.00000000000E+00  0.38417108268E+03  0.38417108268E+03  0.00000000000E+00 0.  1.
          1   -1    0    0  501    0  0.00000000000E+00 -0.00000000000E+00 -0.60270773288E+03  0.60270773288E+03  0.00000000000E+00 0. -1.
         23    2    1    2    0    0  0.91850109710E+02  0.29228855749E+03 -0.48456222088E+03  0.58112193300E+03  0.95042683140E+02 0.  0.
         11    1    3    3    0    0  0.14729543086E+02  0.18414510216E+03 -0.32164779792E+03  0.37092274667E+03  0.00000000000E+00 0. -1.
        -11    1    3    3    0    0  0.77120566624E+02  0.10814345532E+03 -0.16291442296E+03  0.21019918633E+03  0.00000000000E+00 0.  1.
         22    1    1    2    0    0 -0.91850109710E+02 -0.29228855749E+03  0.26602557067E+03  0.40575688256E+03  0.00000000000E+00 0.  1.
<mgrwt>
<rscale>  0 0.96237806E+03</rscale>
<asrwt>0</asrwt>
<pdfrwt beam="1">  1        1 0.92724265E-01 0.96237806E+03</pdfrwt>
<pdfrwt beam="2">  1       -1 0.59103244E-01 0.96237806E+03</pdfrwt>
<totfact> 0.99212533E+01</totfact>
</mgrwt>
</event>
<event>
 6    1  0.2047711E-005  0.2715202E+04  0.7818608E-02  0.8330089E-01
          2   -1    0    0  501    0  0.00000000000E+00  0.00000000000E+00  0.17985091904E+04  0.17985091904E+04  0.00000000000E+00 0. -1.
         -2   -1    0    0    0  501 -0.00000000000E+00 -0.00000000000E+00 -0.10247824579E+04  0.10247824579E+04  0.00000000000E+00 0.  1.
         23    2    1    2    0    0 -0.16092665547E+03 -0.12234779153E+04 -0.19740399253E+03  0.12529762395E+04  0.90473878766E+02 0.  0.
         11    1    3    3    0    0 -0.64769347148E+00 -0.10806798014E+03  0.45043221581E+01  0.10816374974E+03  0.00000000000E+00 0. -1.
        -11    1    3    3    0    0 -0.16027896199E+03 -0.11154099352E+04 -0.20190831469E+03  0.11448124898E+04  0.00000000000E+00 0.  1.
         22    1    1    2    0    0  0.16092665547E+03  0.12234779153E+04  0.97113072508E+03  0.15703154088E+04  0.00000000000E+00 0. -1.
<mgrwt>
<rscale>  0 0.27152021E+04</rscale>
<asrwt>0</asrwt>
<pdfrwt beam="1">  1        2 0.27669372E+00 0.27152021E+04</pdfrwt>
<pdfrwt beam="2">  1       -2 0.15765884E+00 0.27152021E+04</pdfrwt>
<totfact> 0.19863984E+00</totfact>
</mgrwt>
</event>
<event>
 6    1  0.2047711E-005  0.2883646E+04  0.7818608E-02  0.8277760E-01
         -2   -1    0    0    0  501 -0.00000000000E+00  0.00000000000E+00  0.65278557388E+03  0.65278557388E+03  0.00000000000E+00 0.  1.
          2   -1    0    0  501    0  0.00000000000E+00 -0.00000000000E+00 -0.31845878910E+04  0.31845878910E+04  0.00000000000E+00 0. -1.
         23    2    1    2    0    0  0.18788319695E+03  0.87980608612E+03  0.22985753011E+03  0.93287282678E+03  0.89768490701E+02 0.  0.
         13    1    3    3    0    0  0.97253782982E+02  0.48955702396E+03  0.81943532173E+02  0.50580541760E+03  0.00000000000E+00 0. -1.
        -13    1    3    3    0    0  0.90629413968E+02  0.39024906216E+03  0.14791399794E+03  0.42706740918E+03  0.00000000000E+00 0.  1.
         22    1    1    2    0    0 -0.18788319695E+03 -0.87980608612E+03 -0.27616598472E+04  0.29045006381E+04  0.00000000000E+00 0. -1.
<mgrwt>
<rscale>  0 0.28836456E+04</rscale>
<asrwt>0</asrwt>
<pdfrwt beam="1">  1        2 0.48993660E+00 0.28836456E+04</pdfrwt>
<pdfrwt beam="2">  1       -2 0.10042855E+00 0.28836456E+04</pdfrwt>
<totfact> 0.93729473E-01</totfact>
</mgrwt>
</event>
<event>
 6    1  0.2047711E-005  0.3214486E+04  0.7818608E-02  0.8185002E-01
          1   -1    0    0  501    0  0.00000000000E+00  0.00000000000E+00  0.90946878531E+03  0.90946878531E+03  0.00000000000E+00 0. -1.
         -1   -1    0    0    0  501 -0.00000000000E+00 -0.00000000000E+00 -0.28403720757E+04  0.28403720757E+04  0.00000000000E+00 0.  1.
         23    2    1    2    0    0 -0.87235946152E+03  0.21599671918E+03  0.58633809391E+03  0.10769828776E+04  0.91837603549E+02 0.  0.
         13    1    3    3    0    0 -0.43459523908E+03  0.15488120751E+03  0.30101371972E+03  0.55088153875E+03  0.00000000000E+00 0.  1.
        -13    1    3    3    0    0 -0.43776422243E+03  0.61115511675E+02  0.28532437419E+03  0.52610133883E+03  0.00000000000E+00 0. -1.
         22    1    1    2    0    0  0.87235946152E+03 -0.21599671918E+03 -0.25172413843E+04  0.26728579834E+04  0.00000000000E+00 0.  1.
<mgrwt>
<rscale>  0 0.32144858E+04</rscale>
<asrwt>0</asrwt>
<pdfrwt beam="1">  1        1 0.13991828E+00 0.32144858E+04</pdfrwt>
<pdfrwt beam="2">  1       -1 0.43698031E+00 0.32144858E+04</pdfrwt>
<totfact> 0.59384118E-02</totfact>
</mgrwt>
</event>
<event>
 6    1  0.2047711E-005  0.2151550E+04  0.7818608E-02  0.8538869E-01
         -2   -1    0    0    0  501 -0.00000000000E+00  0.00000000000E+00  0.79480384210E+03  0.79480384210E+03  0.00000000000E+00 0.  1.
          2   -1    0    0  501    0  0.00000000000E+00 -0.00000000000E+00 -0.14560722012E+04  0.14560722012E+04  0.00000000000E+00 0. -1.
         23    2    1    2    0    0 -0.62548055691E+03  0.86147744521E+03 -0.18459824453E+03  0.10844354260E+04  0.92489813002E+02 0.  0.
         13    1    3    3    0    0 -0.39807479506E+03  0.53261654476E+03 -0.15960910637E+03  0.68382672736E+03  0.00000000000E+00 0. -1.
        -13    1    3    3    0    0 -0.22740576185E+03  0.32886090045E+03 -0.24989138168E+02  0.40060869860E+03  0.00000000000E+00 0.  1.
         22    1    1    2    0    0  0.62548055691E+03 -0.86147744521E+03 -0.47667011458E+03  0.11664406174E+04  0.00000000000E+00 0. -1.
<mgrwt>
<rscale>  0 0.21515499E+04</rscale>
<asrwt>0</asrwt>
<pdfrwt beam="1">  1        2 0.22401111E+00 0.21515499E+04</pdfrwt>
<pdfrwt beam="2">  1       -2 0.12227752E+00 0.21515499E+04</pdfrwt>
<totfact> 0.62515989E+00</totfact>
</mgrwt>
</event>
<event>
 6    1  0.2047711E-005  0.3805322E+04  0.7818608E-02  0.8045014E-01
         -2   -1    0    0    0  501 -0.00000000000E+00  0.00000000000E+00  0.14107137678E+04  0.14107137678E+04  0.00000000000E+00 0.  1.
          2   -1    0    0  501    0  0.00000000000E+00 -0.00000000000E+00 -0.25661606814E+04  0.25661606814E+04  0.00000000000E+00 0. -1.
         23    2    1    2    0    0 -0.17875659804E+04 -0.59920664584E+03 -0.31890355291E+03  0.19142922004E+04  0.91511821770E+02 0.  0.
         11    1    3    3    0    0 -0.72229942700E+03 -0.21173303636E+03 -0.16211174986E+03  0.76995295985E+03  0.00000000000E+00 0. -1.
        -11    1    3    3    0    0 -0.10652665534E+04 -0.38747360947E+03 -0.15679180305E+03  0.11443392405E+04  0.00000000000E+00 0.  1.
         22    1    1    2    0    0  0.17875659804E+04  0.59920664584E+03 -0.83654336075E+03  0.20625822488E+04  0.00000000000E+00 0. -1.
<mgrwt>
<rscale>  0 0.38053216E+04</rscale>
<asrwt>0</asrwt>
<pdfrwt beam="1">  1        2 0.39479394E+00 0.38053216E+04</pdfrwt>
<pdfrwt beam="2">  1       -2 0.21703289E+00 0.38053216E+04</pdfrwt>
<totfact> 0.26350746E-01</totfact>
</mgrwt>
</event>
<event>
 6    1  0.2047711E-005  0.2711359E+04  0.7818608E-02  0.8331329E-01
          2   -1    0    0  501    0  0.00000000000E+00  0.00000000000E+00  0.36518030206E+04  0.36518030206E+04  0.00000000000E+00 0. -1.
         -2   -1    0    0    0  501 -0.00000000000E+00 -0.00000000000E+00 -0.50327660223E+03  0.50327660223E+03  0.00000000000E+00 0.  1.
         23    2    1    2    0    0  0.10883003916E+04 -0.67415099656E+03  0.22525073370E+04  0.25924768253E+04  0.90936669745E+02 0.  0.
         13    1    3    3    0    0  0.76755307200E+03 -0.47986103286E+03  0.15070749785E+04  0.17580327983E+04  0.00000000000E+00 0. -1.
        -13    1    3    3    0    0  0.32074731963E+03 -0.19428996370E+03  0.74543235852E+03  0.83444402698E+03  0.00000000000E+00 0.  1.
         22    1    1    2    0    0 -0.10883003916E+04  0.67415099656E+03  0.89601908134E+03  0.15626027975E+04  0.00000000000E+00 0.  1.
<mgrwt>
<rscale>  0 0.27113591E+04</rscale>
<asrwt>0</asrwt>
<pdfrwt beam="1">  1        2 0.56181583E+00 0.27113591E+04</pdfrwt>
<pdfrwt beam="2">  1       -2 0.77427172E-01 0.27113591E+04</pdfrwt>
<totfact> 0.82597006E-01</totfact>
</mgrwt>
</event>
<event>
 6    1  0.2047711E-005  0.1411007E+04  0.7818608E-02  0.8945889E-01
         -2   -1    0    0    0  501 -0.00000000000E+00  0.00000000000E+00  0.31879397782E+03  0.31879397782E+03  0.00000000000E+00 0.  1.
          2   -1    0    0  501    0  0.00000000000E+00 -0.00000000000E+00 -0.15613071854E+04  0.15613071854E+04  0.00000000000E+00 0. -1.
         23    2    1    2    0    0 -0.64247901503E+03 -0.41055181939E+02 -0.24906158556E+03  0.69628912661E+03  0.91225334853E+02 0.  0.
         13    1    3    3    0    0 -0.16848340085E+03  0.28954679484E+02 -0.71632887608E+02  0.18535452629E+03  0.00000000000E+00 0. -1.
        -13    1    3    3    0    0 -0.47399561418E+03 -0.70009861423E+02 -0.17742869795E+03  0.51093460033E+03  0.00000000000E+00 0.  1.
         22    1    1    2    0    0  0.64247901503E+03  0.41055181939E+02 -0.99345162200E+03  0.11838120366E+04  0.00000000000E+00 0. -1.
<mgrwt>
<rscale>  0 0.14110072E+04</rscale>
<asrwt>0</asrwt>
<pdfrwt beam="1">  1        2 0.24020110E+00 0.14110072E+04</pdfrwt>
<pdfrwt beam="2">  1       -2 0.49045228E-01 0.14110072E+04</pdfrwt>
<totfact> 0.44866056E+01</totfact>
</mgrwt>
</event>
<event>
 6    1  0.2047711E-005  0.2305484E+04  0.7818608E-02  0.8475762E-01
         -1   -1    0    0    0  501 -0.00000000000E+00  0.00000000000E+00  0.99521462797E+03  0.99521462797E+03  0.00000000000E+00 0.  1.
          1   -1    0    0  501    0  0.00000000000E+00 -0.00000000000E+00 -0.13352033017E+04  0.13352033017E+04  0.00000000000E+00 0. -1.
         23    2    1    2    0    0 -0.98727977930E+03 -0.43849225525E+03 -0.57172344935E+03  0.12255659818E+04  0.90263241683E+02 0.  0.
         11    1    3    3    0    0 -0.36130864435E+03 -0.20846693857E+03 -0.21773222683E+03  0.47054194665E+03  0.00000000000E+00 0. -1.
        -11    1    3    3    0    0 -0.62597113494E+03 -0.23002531668E+03 -0.35399122251E+03  0.75502403519E+03  0.00000000000E+00 0.  1.
         22    1    1    2    0    0  0.98727977930E+03  0.43849225525E+03  0.23173477557E+03  0.11048519479E+04  0.00000000000E+00 0. -1.
<mgrwt>
<rscale>  0 0.23054838E+04</rscale>
<asrwt>0</asrwt>
<pdfrwt beam="1">  1        1 0.20541589E+00 0.23054838E+04</pdfrwt>
<pdfrwt beam="2">  1       -1 0.15310994E+00 0.23054838E+04</pdfrwt>
<totfact> 0.25456286E+00</totfact>
</mgrwt>
</event>
<event>
 6    1  0.2047711E-005  0.2285180E+04  0.7818608E-02  0.8483788E-01
          2   -1    0    0  501    0  0.00000000000E+00  0.00000000000E+00  0.13020792737E+04  0.13020792737E+04  0.00000000000E+00 0. -1.
         -2   -1    0    0    0  501 -0.00000000000E+00 -0.00000000000E+00 -0.10026359951E+04  0.10026359951E+04  0.00000000000E+00 0.  1.
         23    2    1    2    0    0 -0.18739304913E+03 -0.66039533068E+03  0.10689017483E+04  0.12735487041E+04  0.90206466014E+02 0.  0.
         11    1    3    3    0    0  0.69696947258E+01 -0.78457490393E+02  0.12724218001E+03  0.14964867797E+03  0.00000000000E+00 0.  1.
        -11    1    3    3    0    0 -0.19436274385E+03 -0.58193784029E+03  0.94165956829E+03  0.11239000261E+04  0.00000000000E+00 0. -1.
         22    1    1    2    0    0  0.18739304913E+03  0.66039533068E+03 -0.76945846965E+03  0.10311665647E+04  0.00000000000E+00 0.  1.
<mgrwt>
<rscale>  0 0.22851797E+04</rscale>
<asrwt>0</asrwt>
<pdfrwt beam="1">  1        2 0.20031989E+00 0.22851797E+04</pdfrwt>
<pdfrwt beam="2">  1       -2 0.15425169E+00 0.22851797E+04</pdfrwt>
<totfact> 0.41620750E+00</totfact>
</mgrwt>
</event>
<event>
 6    1  0.2047711E-005  0.1833233E+04  0.7818608E-02  0.8688823E-01
         -2   -1    0    0    0  501 -0.00000000000E+00  0.00000000000E+00  0.63570210090E+03  0.63570210090E+03  0.00000000000E+00 0.  1.
          2   -1    0    0  501    0  0.00000000000E+00 -0.00000000000E+00 -0.13216662088E+04  0.13216662088E+04  0.00000000000E+00 0. -1.
         23    2    1    2    0    0  0.42778430604E+02 -0.54482340668E+03  0.43902150529E+03  0.70666643936E+03  0.89303056034E+02 0.  0.
         13    1    3    3    0    0  0.54210418958E+02 -0.46079864921E+03  0.40290391579E+03  0.61449632220E+03  0.00000000000E+00 0.  1.
        -13    1    3    3    0    0 -0.11431988354E+02 -0.84024757479E+02  0.36117589500E+02  0.92170117166E+02  0.00000000000E+00 0. -1.
         22    1    1    2    0    0 -0.42778430604E+02  0.54482340668E+03 -0.11249856132E+04  0.12507018704E+04  0.00000000000E+00 0. -1.
<mgrwt>
<rscale>  0 0.18332332E+04</rscale>
<asrwt>0</asrwt>
<pdfrwt beam="1">  1        2 0.20333326E+00 0.18332332E+04</pdfrwt>
<pdfrwt beam="2">  1       -2 0.97800322E-01 0.18332332E+04</pdfrwt>
<totfact> 0.13164553E+01</totfact>
</mgrwt>
</event>
<event>
 6    1  0.2047711E-005  0.1874657E+04  0.7818608E-02  0.8667575E-01
         -2   -1    0    0    0  501 -0.00000000000E+00  0.00000000000E+00  0.10956753432E+04  0.10956753432E+04  0.00000000000E+00 0.  1.
          2   -1    0    0  501    0  0.00000000000E+00 -0.00000000000E+00 -0.80186566259E+03  0.80186566259E+03  0.00000000000E+00 0. -1.
         23    2    1    2    0    0 -0.22300095346E+03  0.58988679390E+03  0.84611280955E+03  0.10592483355E+04  0.91674942118E+02 0.  0.
         11    1    3    3    0    0 -0.36170005725E+02  0.20472154814E+03  0.24567169457E+03  0.32182877917E+03  0.00000000000E+00 0. -1.
        -11    1    3    3    0    0 -0.18683094773E+03  0.38516524576E+03  0.60044111498E+03  0.73741955638E+03  0.00000000000E+00 0.  1.
         22    1    1    2    0    0  0.22300095346E+03 -0.58988679390E+03 -0.55230312890E+03  0.83829267028E+03  0.00000000000E+00 0. -1.
<mgrwt>
<rscale>  0 0.18746567E+04</rscale>
<asrwt>0</asrwt>
<pdfrwt beam="1">  1        2 0.12336395E+00 0.18746567E+04</pdfrwt>
<pdfrwt beam="2">  1       -2 0.16856544E+00 0.18746567E+04</pdfrwt>
<totfact> 0.70289164E+00</totfact>
</mgrwt>
</event>
<event>
 6    1  0.2903581E-005  0.4628097E+04  0.7818608E-02  0.7888587E-01
         -2   -1    0    0    0  501 -0.00000000000E+00  0.00000000000E+00  0.17320402327E+04  0.17320402327E+04  0.00000000000E+00 0.  1.
          2   -1    0    0  501    0  0.00000000000E+00 -0.00000000000E+00 -0.30916262106E+04  0.30916262106E+04  0.00000000000E+00 0. -1.
         23    2    1    2    0    0  0.27670283799E+03  0.22803370210E+04 -0.96395441980E+03  0.24927812639E+04  0.90823545281E+02 0.  0.
         11    1    3    3    0    0  0.89687631802E+02  0.69437535222E+03 -0.24913520185E+03  0.74314826910E+03  0.00000000000E+00 0.  1.
        -11    1    3    3    0    0  0.18701520619E+03  0.15859616688E+04 -0.71481921795E+03  0.17496329948E+04  0.00000000000E+00 0. -1.
         22    1    1    2    0    0 -0.27670283799E+03 -0.22803370210E+04 -0.39563155813E+03  0.23308851794E+04  0.00000000000E+00 0.  1.
<mgrwt>
<rscale>  0 0.46280972E+04</rscale>
<asrwt>0</asrwt>
<pdfrwt beam="1">  1        2 0.47563480E+00 0.46280972E+04</pdfrwt>
<pdfrwt beam="2">  1       -2 0.26646773E+00 0.46280972E+04</pdfrwt>
<totfact> 0.58154139E-02</totfact>
</mgrwt>
</event>
<event>
 6    1  0.2047711E-005  0.2005305E+04  0.7818608E-02  0.8604144E-01
          2   -1    0    0  501    0  0.00000000000E+00  0.00000000000E+00  0.35850251057E+04  0.35850251057E+04  0.00000000000E+00 0. -1.
         -2   -1    0    0    0  501 -0.00000000000E+00 -0.00000000000E+00 -0.28041985251E+03  0.28041985251E+03  0.00000000000E+00 0.  1.
         23    2    1    2    0    0 -0.22881035218E+03 -0.70126085084E+03  0.35260724755E+03  0.82268088858E+03  0.91383889339E+02 0.  0.
         11    1    3    3    0    0 -0.10099069280E+03 -0.45066030067E+03  0.21161010120E+03  0.50800852509E+03  0.00000000000E+00 0.  1.
        -11    1    3    3    0    0 -0.12781965938E+03 -0.25060055017E+03  0.14099714635E+03  0.31467236350E+03  0.00000000000E+00 0. -1.
         22    1    1    2    0    0  0.22881035218E+03  0.70126085084E+03  0.29519980057E+04  0.30427640697E+04  0.00000000000E+00 0. -1.
<mgrwt>
<rscale>  0 0.20053052E+04</rscale>
<asrwt>0</asrwt>
<pdfrwt beam="1">  1        2 0.55154229E+00 0.20053052E+04</pdfrwt>
<pdfrwt beam="2">  1       -2 0.43141518E-01 0.20053052E+04</pdfrwt>
<totfact> 0.33691612E+00</totfact>
</mgrwt>
</event>
<event>
 6    1  0.2047711E-005  0.6966536E+04  0.7818608E-02  0.7580896E-01
          2   -1    0    0  501    0  0.00000000000E+00  0.00000000000E+00  0.42335171377E+04  0.42335171377E+04  0.00000000000E+00 0. -1.
         -2   -1    0    0    0  501 -0.00000000000E+00 -0.00000000000E+00 -0.28659754467E+04  0.28659754467E+04  0.00000000000E+00 0.  1.
         23    2    1    2    0    0 -0.31895478845E+04  0.13240443203E+04  0.11424561316E+04  0.36387162872E+04  0.93494042840E+02 0.  0.
         13    1    3    3    0    0 -0.21445183069E+04  0.84762325042E+03  0.78342776550E+03  0.24354020217E+04  0.00000000000E+00 0. -1.
        -13    1    3    3    0    0 -0.10450295776E+04  0.47642106986E+03  0.35902836613E+03  0.12033142655E+04  0.00000000000E+00 0.  1.
         22    1    1    2    0    0  0.31895478845E+04 -0.13240443203E+04  0.22508555940E+03  0.34607762971E+04  0.00000000000E+00 0. -1.
<mgrwt>
<rscale>  0 0.69665361E+04</rscale>
<asrwt>0</asrwt>
<pdfrwt beam="1">  1        2 0.65131033E+00 0.69665361E+04</pdfrwt>
<pdfrwt beam="2">  1       -2 0.44091930E+00 0.69665361E+04</pdfrwt>
<totfact> 0.53965830E-04</totfact>
</mgrwt>
</event>
<event>
 6    1  0.2047711E-005  0.1416654E+04  0.7818608E-02  0.8941851E-01
          2   -1    0    0  501    0  0.00000000000E+00  0.00000000000E+00  0.11426950052E+04  0.11426950052E+04  0.00000000000E+00 0. -1.
         -2   -1    0    0    0  501 -0.00000000000E+00 -0.00000000000E+00 -0.43907374619E+03  0.43907374619E+03  0.00000000000E+00 0.  1.
         23    2    1    2    0    0  0.14878839986E+03  0.56764977046E+03  0.79035973486E+03  0.98856742549E+03  0.90734747551E+02 0.  0.
         13    1    3    3    0    0  0.23698093616E+02  0.21516284250E+03  0.24065720531E+03  0.32368586454E+03  0.00000000000E+00 0. -1.
        -13    1    3    3    0    0  0.12509030625E+03  0.35248692796E+03  0.54970252955E+03  0.66488156095E+03  0.00000000000E+00 0.  1.
         22    1    1    2    0    0 -0.14878839986E+03 -0.56764977046E+03 -0.86738475859E+02  0.59320132589E+03  0.00000000000E+00 0.  1.
<mgrwt>
<rscale>  0 0.14166543E+04</rscale>
<asrwt>0</asrwt>
<pdfrwt beam="1">  1        2 0.17579923E+00 0.14166543E+04</pdfrwt>
<pdfrwt beam="2">  1       -2 0.67549808E-01 0.14166543E+04</pdfrwt>
<totfact> 0.40062122E+01</totfact>
</mgrwt>
</event>
<event>
 6    1  0.2047711E-005  0.2379249E+04  0.7818608E-02  0.8447313E-01
          2   -1    0    0  501    0  0.00000000000E+00  0.00000000000E+00  0.24716356620E+04  0.24716356620E+04  0.00000000000E+00 0. -1.
         -2   -1    0    0    0  501 -0.00000000000E+00 -0.00000000000E+00 -0.57257905845E+03  0.57257905845E+03  0.00000000000E+00 0.  1.
         23    2    1    2    0    0  0.52811457874E+02  0.45785241588E+03 -0.44993861322E+03  0.65043185369E+03  0.90548085687E+02 0.  0.
         11    1    3    3    0    0  0.20960074301E+01  0.11272503120E+03 -0.61792936656E+02  0.12856785340E+03  0.00000000000E+00 0. -1.
        -11    1    3    3    0    0  0.50715450444E+02  0.34512738468E+03 -0.38814567656E+03  0.52186400029E+03  0.00000000000E+00 0.  1.
         22    1    1    2    0    0 -0.52811457874E+02 -0.45785241588E+03  0.23489952167E+04  0.23937828667E+04  0.00000000000E+00 0. -1.
<mgrwt>
<rscale>  0 0.23792493E+04</rscale>
<asrwt>0</asrwt>
<pdfrwt beam="1">  1        2 0.38025163E+00 0.23792493E+04</pdfrwt>
<pdfrwt beam="2">  1       -2 0.88089087E-01 0.23792493E+04</pdfrwt>
<totfact> 0.36155772E+00</totfact>
</mgrwt>
</event>
<event>
 6    1  0.2047711E-005  0.3744739E+04  0.7818608E-02  0.8058119E-01
         -2   -1    0    0    0  501 -0.00000000000E+00  0.00000000000E+00  0.14239517227E+04  0.14239517227E+04  0.00000000000E+00 0.  1.
          2   -1    0    0  501    0  0.00000000000E+00 -0.00000000000E+00 -0.24619991833E+04  0.24619991833E+04  0.00000000000E+00 0. -1.
         23    2    1    2    0    0 -0.38511344761E+03  0.17035035075E+04  0.17763971137E+03  0.17580101484E+04  0.93846934889E+02 0.  0.
         13    1    3    3    0    0 -0.16952654987E+03  0.92974111763E+03  0.12093332362E+03  0.95277629362E+03  0.00000000000E+00 0. -1.
        -13    1    3    3    0    0 -0.21558689774E+03  0.77376238991E+03  0.56706387744E+02  0.80523385481E+03  0.00000000000E+00 0.  1.
         22    1    1    2    0    0  0.38511344761E+03 -0.17035035075E+04 -0.12156871720E+04  0.21279407576E+04  0.00000000000E+00 0. -1.
<mgrwt>
<rscale>  0 0.37447392E+04</rscale>
<asrwt>0</asrwt>
<pdfrwt beam="1">  1        2 0.37876910E+00 0.37447392E+04</pdfrwt>
<pdfrwt beam="2">  1       -2 0.21906950E+00 0.37447392E+04</pdfrwt>
<totfact> 0.29549771E-01</totfact>
</mgrwt>
</event>
<event>
 6    1  0.2047711E-005  0.3628631E+04  0.7818608E-02  0.8083965E-01
         -2   -1    0    0    0  501 -0.00000000000E+00  0.00000000000E+00  0.12324597979E+04  0.12324597979E+04  0.00000000000E+00 0.  1.
          2   -1    0    0  501    0  0.00000000000E+00 -0.00000000000E+00 -0.26708706427E+04  0.26708706427E+04  0.00000000000E+00 0. -1.
         23    2    1    2    0    0  0.10300512553E+04 -0.14244569590E+04 -0.24249395087E+03  0.17772306232E+04  0.98296262815E+02 0.  0.
         13    1    3    3    0    0  0.78142643318E+03 -0.11401226701E+04 -0.16990023971E+03  0.13926137529E+04  0.00000000000E+00 0.  1.
        -13    1    3    3    0    0  0.24862482210E+03 -0.28433428888E+03 -0.72593711166E+02  0.38461687028E+03  0.00000000000E+00 0. -1.
         22    1    1    2    0    0 -0.10300512553E+04  0.14244569590E+04 -0.11959168939E+04  0.21260998174E+04  0.00000000000E+00 0. -1.
<mgrwt>
<rscale>  0 0.36286310E+04</rscale>
<asrwt>0</asrwt>
<pdfrwt beam="1">  1        2 0.41090317E+00 0.36286310E+04</pdfrwt>
<pdfrwt beam="2">  1       -2 0.18960920E+00 0.36286310E+04</pdfrwt>
<totfact> 0.35034449E-01</totfact>
</mgrwt>
</event>
<event>
 6    1  0.2047711E-005  0.2562591E+04  0.7818608E-02  0.8381020E-01
          1   -1    0    0  501    0  0.00000000000E+00  0.00000000000E+00  0.10229166782E+04  0.10229166782E+04  0.00000000000E+00 0. -1.
         -1   -1    0    0    0  501 -0.00000000000E+00 -0.00000000000E+00 -0.16049383001E+04  0.16049383001E+04  0.00000000000E+00 0.  1.
         23    2    1    2    0    0  0.68513733913E+03  0.10766036961E+04 -0.38921605951E+03  0.13372494318E+04  0.90874693872E+02 0.  0.
         11    1    3    3    0    0  0.33652632270E+03  0.60796440322E+03 -0.22774712351E+03  0.73125880078E+03  0.00000000000E+00 0. -1.
        -11    1    3    3    0    0  0.34861101643E+03  0.46863929284E+03 -0.16146893600E+03  0.60599063100E+03  0.00000000000E+00 0.  1.
         22    1    1    2    0    0 -0.68513733913E+03 -0.10766036961E+04 -0.19280556238E+03  0.12906055465E+04  0.00000000000E+00 0.  1.
<mgrwt>
<rscale>  0 0.25625910E+04</rscale>
<asrwt>0</asrwt>
<pdfrwt beam="1">  1        1 0.15737180E+00 0.25625910E+04</pdfrwt>
<pdfrwt beam="2">  1       -1 0.24691359E+00 0.25625910E+04</pdfrwt>
<totfact> 0.93711358E-01</totfact>
</mgrwt>
</event>
<event>
 6    1  0.2047711E-005  0.1909367E+04  0.7818608E-02  0.8650208E-01
         -1   -1    0    0    0  501 -0.00000000000E+00  0.00000000000E+00  0.10826440230E+04  0.10826440230E+04  0.00000000000E+00 0.  1.
          1   -1    0    0  501    0  0.00000000000E+00 -0.00000000000E+00 -0.84184657169E+03  0.84184657169E+03  0.00000000000E+00 0. -1.
         23    2    1    2    0    0  0.22426139328E+03  0.13780416697E+03 -0.80193816691E+03  0.84904616075E+03  0.92148785023E+02 0.  0.
         13    1    3    3    0    0  0.81867873581E+02  0.49244163635E+02 -0.16758955758E+03  0.19290825847E+03  0.00000000000E+00 0.  1.
        -13    1    3    3    0    0  0.14239351970E+03  0.88560003337E+02 -0.63434860933E+03  0.65613790228E+03  0.00000000000E+00 0. -1.
         22    1    1    2    0    0 -0.22426139328E+03 -0.13780416697E+03  0.10427356182E+04  0.10754444339E+04  0.00000000000E+00 0.  1.
<mgrwt>
<rscale>  0 0.19093666E+04</rscale>
<asrwt>0</asrwt>
<pdfrwt beam="1">  1        1 0.12951486E+00 0.19093666E+04</pdfrwt>
<pdfrwt beam="2">  1       -1 0.16656062E+00 0.19093666E+04</pdfrwt>
<totfact> 0.49634102E+00</totfact>
</mgrwt>
</event>
<event>
 6    1  0.2047711E-005  0.2533766E+04  0.7818608E-02  0.8391054E-01
         -1   -1    0    0    0  501 -0.00000000000E+00  0.00000000000E+00  0.62356602084E+03  0.62356602084E+03  0.00000000000E+00 0.  1.
          1   -1    0    0  501    0  0.00000000000E+00 -0.00000000000E+00 -0.25738936014E+04  0.25738936014E+04  0.00000000000E+00 0. -1.
         23    2    1    2    0    0 -0.79563091401E+03 -0.80854227670E+03 -0.16835365621E+04  0.20321499586E+04  0.92568536362E+02 0.  0.
         11    1    3    3    0    0 -0.26851143351E+03 -0.28173445076E+03 -0.65699409392E+03  0.76361896920E+03  0.00000000000E+00 0. -1.
        -11    1    3    3    0    0 -0.52711948051E+03 -0.52680782595E+03 -0.10265424682E+04  0.12685309894E+04  0.00000000000E+00 0.  1.
         22    1    1    2    0    0  0.79563091401E+03  0.80854227670E+03 -0.26679101845E+03  0.11653096636E+04  0.00000000000E+00 0.  1.
<mgrwt>
<rscale>  0 0.25337660E+04</rscale>
<asrwt>0</asrwt>
<pdfrwt beam="1">  1        1 0.39598363E+00 0.25337660E+04</pdfrwt>
<pdfrwt beam="2">  1       -1 0.95933234E-01 0.25337660E+04</pdfrwt>
<totfact> 0.11161479E+00</totfact>
</mgrwt>
</event>
<event>
 6    1  0.2047711E-005  0.6552725E+03  0.7818608E-02  0.9796936E-01
         -2   -1    0    0    0  501 -0.00000000000E+00  0.00000000000E+00  0.27471307816E+03  0.27471307816E+03  0.00000000000E+00 0.  1.
          2   -1    0    0  501    0  0.00000000000E+00 -0.00000000000E+00 -0.39075497844E+03  0.39075497844E+03  0.00000000000E+00 0. -1.
         23    2    1    2    0    0  0.23128797153E+03 -0.56382012849E+02 -0.27821602761E+03  0.37741683767E+03  0.91467230144E+02 0.  0.
         13    1    3    3    0    0  0.15580354989E+03 -0.66422676809E+02 -0.14054897672E+03  0.22009255556E+03  0.00000000000E+00 0.  1.
        -13    1    3    3    0    0  0.75484421640E+02  0.10040663960E+02 -0.13766705088E+03  0.15732428211E+03  0.00000000000E+00 0. -1.
         22    1    1    2    0    0 -0.23128797153E+03  0.56382012849E+02  0.16217412733E+03  0.28805121893E+03  0.00000000000E+00 0.  1.
<mgrwt>
<rscale>  0 0.65527247E+03</rscale>
<asrwt>0</asrwt>
<pdfrwt beam="1">  1        2 0.60116150E-01 0.65527247E+03</pdfrwt>
<pdfrwt beam="2">  1       -2 0.42263551E-01 0.65527247E+03</pdfrwt>
<totfact> 0.43692752E+02</totfact>
</mgrwt>
</event>
<event>
 6    1  0.2270443E-005  0.4223806E+04  0.7818608E-02  0.7960859E-01
         -2   -1    0    0    0  501 -0.00000000000E+00  0.00000000000E+00  0.26214473167E+04  0.26214473167E+04  0.00000000000E+00 0.  1.
          2   -1    0    0  501    0  0.00000000000E+00 -0.00000000000E+00 -0.17014013324E+04  0.17014013324E+04  0.00000000000E+00 0. -1.
         23    2    1    2    0    0  0.21091541248E+04  0.82569202054E+02  0.43431541061E+03  0.21569116728E+04  0.91045555852E+02 0.  0.
         11    1    3    3    0    0  0.14511827826E+04  0.18244931841E+02  0.28077310178E+03  0.14782076582E+04  0.00000000000E+00 0. -1.
        -11    1    3    3    0    0  0.65797134215E+03  0.64324270213E+02  0.15354230883E+03  0.67870401459E+03  0.00000000000E+00 0.  1.
         22    1    1    2    0    0 -0.21091541248E+04 -0.82569202054E+02  0.48573057361E+03  0.21659369763E+04  0.00000000000E+00 0. -1.
<mgrwt>
<rscale>  0 0.42238058E+04</rscale>
<asrwt>0</asrwt>
<pdfrwt beam="1">  1        2 0.26175405E+00 0.42238058E+04</pdfrwt>
<pdfrwt beam="2">  1       -2 0.40329959E+00 0.42238058E+04</pdfrwt>
<totfact> 0.53551902E-02</totfact>
</mgrwt>
</event>
<event>
 6    1  0.2047711E-005  0.2048549E+04  0.7818608E-02  0.8584253E-01
         -1   -1    0    0    0  501 -0.00000000000E+00  0.00000000000E+00  0.38203380329E+03  0.38203380329E+03  0.00000000000E+00 0.  1.
          1   -1    0    0  501    0  0.00000000000E+00 -0.00000000000E+00 -0.27461918593E+04  0.27461918593E+04  0.00000000000E+00 0. -1.
         23    2    1    2    0    0 -0.87146431707E+03 -0.43847594951E+02 -0.37178428309E+03  0.95315648702E+03  0.94398453824E+02 0.  0.
         11    1    3    3    0    0 -0.37123998634E+03 -0.65329757447E+02 -0.15589709085E+03  0.40791053872E+03  0.00000000000E+00 0. -1.
        -11    1    3    3    0    0 -0.50022433073E+03  0.21482162497E+02 -0.21588719224E+03  0.54524594830E+03  0.00000000000E+00 0.  1.
         22    1    1    2    0    0  0.87146431707E+03  0.43847594951E+02 -0.19923737730E+04  0.21750691756E+04  0.00000000000E+00 0. -1.
<mgrwt>
<rscale>  0 0.20485489E+04</rscale>
<asrwt>0</asrwt>
<pdfrwt beam="1">  1        1 0.42249105E+00 0.20485489E+04</pdfrwt>
<pdfrwt beam="2">  1       -1 0.58774432E-01 0.20485489E+04</pdfrwt>
<totfact> 0.24690377E+00</totfact>
</mgrwt>
</event>
<event>
 6    1  0.2047711E-005  0.2896387E+04  0.7818608E-02  0.8273953E-01
         -2   -1    0    0    0  501 -0.00000000000E+00  0.00000000000E+00  0.17346104502E+04  0.17346104502E+04  0.00000000000E+00 0. -1.
          2   -1    0    0  501    0  0.00000000000E+00 -0.00000000000E+00 -0.12090691452E+04  0.12090691452E+04  0.00000000000E+00 0.  1.
         23    2    1    2    0    0 -0.31316465038E+03  0.73446982977E+03  0.14893098207E+04  0.16921334393E+04  0.88055693900E+02 0.  0.
         11    1    3    3    0    0 -0.20517554749E+03  0.42118039218E+03  0.94797785758E+03  0.10574270407E+04  0.00000000000E+00 0. -1.
        -11    1    3    3    0    0 -0.10798910289E+03  0.31328943759E+03  0.54133196310E+03  0.63470639852E+03  0.00000000000E+00 0.  1.
         22    1    1    2    0    0  0.31316465038E+03 -0.73446982977E+03 -0.96376851571E+03  0.12515461561E+04  0.00000000000E+00 0.  1.
<mgrwt>
<rscale>  0 0.28963867E+04</rscale>
<asrwt>0</asrwt>
<pdfrwt beam="1">  1        2 0.18601064E+00 0.28963867E+04</pdfrwt>
<pdfrwt beam="2">  1       -2 0.26686315E+00 0.28963867E+04</pdfrwt>
<totfact> 0.81800171E-01</totfact>
</mgrwt>
</event>
<event>
 6    1  0.2047711E-005  0.2045570E+04  0.7818608E-02  0.8585607E-01
          2   -1    0    0  501    0  0.00000000000E+00  0.00000000000E+00  0.23952170721E+04  0.23952170721E+04  0.00000000000E+00 0. -1.
         -2   -1    0    0    0  501 -0.00000000000E+00 -0.00000000000E+00 -0.43674071206E+03  0.43674071206E+03  0.00000000000E+00 0.  1.
         23    2    1    2    0    0 -0.10746698452E+03 -0.47923553532E+03 -0.25768098941E+03  0.56203063806E+03  0.90901566162E+02 0.  0.
         11    1    3    3    0    0 -0.87838844722E+02 -0.37086913176E+03 -0.24024319718E+03  0.45052898833E+03  0.00000000000E+00 0. -1.
        -11    1    3    3    0    0 -0.19628139801E+02 -0.10836640356E+03 -0.17437792225E+02  0.11150164972E+03  0.00000000000E+00 0.  1.
         22    1    1    2    0    0  0.10746698452E+03  0.47923553532E+03  0.22161573494E+04  0.22699271461E+04  0.00000000000E+00 0. -1.
<mgrwt>
<rscale>  0 0.20455697E+04</rscale>
<asrwt>0</asrwt>
<pdfrwt beam="1">  1        2 0.36849493E+00 0.20455697E+04</pdfrwt>
<pdfrwt beam="2">  1       -2 0.67190880E-01 0.20455697E+04</pdfrwt>
<totfact> 0.75276700E+00</totfact>
</mgrwt>
</event>
<event>
 6    1  0.2047711E-005  0.2361883E+04  0.7818608E-02  0.8453914E-01
          2   -1    0    0  501    0  0.00000000000E+00  0.00000000000E+00  0.11707308395E+04  0.11707308395E+04  0.00000000000E+00 0. -1.
         -2   -1    0    0    0  501 -0.00000000000E+00 -0.00000000000E+00 -0.11912409227E+04  0.11912409227E+04  0.00000000000E+00 0.  1.
         23    2    1    2    0    0  0.10569542430E+04 -0.14058842028E+03 -0.51370255408E+03  0.11871712732E+04  0.92563179569E+02 0.  0.
         13    1    3    3    0    0  0.50624088030E+03 -0.81277668728E+02 -0.19804903475E+03  0.54964471114E+03  0.00000000000E+00 0.  1.
        -13    1    3    3    0    0  0.55071336265E+03 -0.59310751557E+02 -0.31565351933E+03  0.63752656205E+03  0.00000000000E+00 0. -1.
         22    1    1    2    0    0 -0.10569542430E+04  0.14058842028E+03  0.49319247091E+03  0.11748004890E+04  0.00000000000E+00 0.  1.
<mgrwt>
<rscale>  0 0.23618827E+04</rscale>
<asrwt>0</asrwt>
<pdfrwt beam="1">  1        2 0.18011244E+00 0.23618827E+04</pdfrwt>
<pdfrwt beam="2">  1       -2 0.18326783E+00 0.23618827E+04</pdfrwt>
<totfact> 0.30632675E+00</totfact>
</mgrwt>
</event>
<event>
 6    1  0.2047711E-005  0.3789665E+04  0.7818608E-02  0.8048376E-01
         -2   -1    0    0    0  501 -0.00000000000E+00  0.00000000000E+00  0.21447474568E+04  0.21447474568E+04  0.00000000000E+00 0.  1.
          2   -1    0    0  501    0  0.00000000000E+00 -0.00000000000E+00 -0.16740385798E+04  0.16740385798E+04  0.00000000000E+00 0. -1.
         23    2    1    2    0    0 -0.30361318849E+03  0.17516785335E+04 -0.42171467299E+03  0.18295705014E+04  0.94479104709E+02 0.  0.
         11    1    3    3    0    0 -0.27348449793E+02  0.31486777231E+03 -0.50248824662E+02  0.32002280564E+03  0.00000000000E+00 0.  1.
        -11    1    3    3    0    0 -0.27626473870E+03  0.14368107612E+04 -0.37146584833E+03  0.15095476958E+04  0.00000000000E+00 0. -1.
         22    1    1    2    0    0  0.30361318849E+03 -0.17516785335E+04  0.89242354994E+03  0.19892155352E+04  0.00000000000E+00 0.  1.
<mgrwt>
<rscale>  0 0.37896649E+04</rscale>
<asrwt>0</asrwt>
<pdfrwt beam="1">  1        2 0.25754440E+00 0.37896649E+04</pdfrwt>
<pdfrwt beam="2">  1       -2 0.32996115E+00 0.37896649E+04</pdfrwt>
<totfact> 0.16896101E-01</totfact>
</mgrwt>
</event>
<event>
 6    1  0.2047711E-005  0.3884419E+04  0.7818608E-02  0.8028278E-01
          2   -1    0    0  501    0  0.00000000000E+00  0.00000000000E+00  0.24115707344E+04  0.24115707344E+04  0.00000000000E+00 0.  1.
         -2   -1    0    0    0  501 -0.00000000000E+00 -0.00000000000E+00 -0.15641991931E+04  0.15641991931E+04  0.00000000000E+00 0. -1.
         23    2    1    2    0    0 -0.10418100953E+04  0.16274672327E+04  0.23505087319E+03  0.19487143118E+04  0.90668008537E+02 0.  0.
         11    1    3    3    0    0 -0.81577823114E+03  0.12041715548E+04  0.16665670240E+03  0.14640005848E+04  0.00000000000E+00 0. -1.
        -11    1    3    3    0    0 -0.22603186420E+03  0.42329567791E+03  0.68394170791E+02  0.48471372702E+03  0.00000000000E+00 0.  1.
         22    1    1    2    0    0  0.10418100953E+04 -0.16274672327E+04  0.61232066808E+03  0.20270556156E+04  0.00000000000E+00 0.  1.
<mgrwt>
<rscale>  0 0.38844186E+04</rscale>
<asrwt>0</asrwt>
<pdfrwt beam="1">  1        2 0.37101088E+00 0.38844186E+04</pdfrwt>
<pdfrwt beam="2">  1       -2 0.24064603E+00 0.38844186E+04</pdfrwt>
<totfact> 0.22882785E-01</totfact>
</mgrwt>
</event>
<event>
 6    1  0.2047711E-005  0.2513965E+04  0.7818608E-02  0.8398027E-01
         -2   -1    0    0    0  501 -0.00000000000E+00  0.00000000000E+00  0.10677997681E+04  0.10677997681E+04  0.00000000000E+00 0.  1.
          2   -1    0    0  501    0  0.00000000000E+00 -0.00000000000E+00 -0.14796833931E+04  0.14796833931E+04  0.00000000000E+00 0. -1.
         23    2    1    2    0    0  0.41578334847E+03  0.62175169223E+02  0.99238452497E+03  0.10816350854E+04  0.91465119337E+02 0.  0.
         11    1    3    3    0    0  0.37976791892E+03  0.74226613350E+02  0.84415695717E+03  0.92861952958E+03  0.00000000000E+00 0. -1.
        -11    1    3    3    0    0  0.36015429548E+02 -0.12051444126E+02  0.14822756779E+03  0.15301555583E+03  0.00000000000E+00 0.  1.
         22    1    1    2    0    0 -0.41578334847E+03 -0.62175169223E+02 -0.14042681500E+04  0.14658480759E+04  0.00000000000E+00 0. -1.
<mgrwt>
<rscale>  0 0.25139655E+04</rscale>
<asrwt>0</asrwt>
<pdfrwt beam="1">  1        2 0.22764360E+00 0.25139655E+04</pdfrwt>
<pdfrwt beam="2">  1       -2 0.16427689E+00 0.25139655E+04</pdfrwt>
<totfact> 0.27214594E+00</totfact>
</mgrwt>
</event>
<event>
 6    1  0.2047711E-005  0.8279813E+03  0.7818608E-02  0.9520376E-01
         -2   -1    0    0    0  501 -0.00000000000E+00  0.00000000000E+00  0.19159449634E+03  0.19159449634E+03  0.00000000000E+00 0.  1.
          2   -1    0    0  501    0  0.00000000000E+00 -0.00000000000E+00 -0.89453636185E+03  0.89453636185E+03  0.00000000000E+00 0. -1.
         23    2    1    2    0    0 -0.98323883789E+02 -0.12588018581E+03 -0.84923222829E+03  0.86953381862E+03  0.96851829419E+02 0.  0.
         11    1    3    3    0    0 -0.64636541526E+02 -0.61844514346E+02 -0.24198509850E+03  0.25799111293E+03  0.00000000000E+00 0. -1.
        -11    1    3    3    0    0 -0.33687342263E+02 -0.64035671464E+02 -0.60724712979E+03  0.61154270570E+03  0.00000000000E+00 0.  1.
         22    1    1    2    0    0  0.98323883789E+02  0.12588018581E+03  0.14629036279E+03  0.21659703956E+03  0.00000000000E+00 0.  1.
<mgrwt>
<rscale>  0 0.82798126E+03</rscale>
<asrwt>0</asrwt>
<pdfrwt beam="1">  1        2 0.13762098E+00 0.82798126E+03</pdfrwt>
<pdfrwt beam="2">  1       -2 0.29476076E-01 0.82798126E+03</pdfrwt>
<totfact> 0.31447280E+02</totfact>
</mgrwt>
</event>
<event>
 6    1  0.2047711E-005  0.2611779E+04  0.7818608E-02  0.8364211E-01
         -2   -1    0    0    0  501 -0.00000000000E+00  0.00000000000E+00  0.14090296207E+04  0.14090296207E+04  0.00000000000E+00 0. -1.
          2   -1    0    0  501    0  0.00000000000E+00 -0.00000000000E+00 -0.12102990889E+04  0.12102990889E+04  0.00000000000E+00 0.  1.
         23    2    1    2    0    0  0.10378455512E+04 -0.47571065138E+02  0.89039424495E+03  0.13712160999E+04  0.89695522510E+02 0.  0.
         11    1    3    3    0    0  0.54235713146E+03 -0.68374923164E+02  0.45262977754E+03  0.70971832700E+03  0.00000000000E+00 0.  1.
        -11    1    3    3    0    0  0.49548841977E+03  0.20803858026E+02  0.43776446741E+03  0.66149777291E+03  0.00000000000E+00 0. -1.
         22    1    1    2    0    0 -0.10378455512E+04  0.47571065138E+02 -0.69166371308E+03  0.12481126097E+04  0.00000000000E+00 0.  1.
<mgrwt>
<rscale>  0 0.26117789E+04</rscale>
<asrwt>0</asrwt>
<pdfrwt beam="1">  1        2 0.18619986E+00 0.26117789E+04</pdfrwt>
<pdfrwt beam="2">  1       -2 0.21677379E+00 0.26117789E+04</pdfrwt>
<totfact> 0.17098453E+00</totfact>
</mgrwt>
</event>
<event>
 6    1  0.2047711E-005  0.2886109E+04  0.7818608E-02  0.8277022E-01
          2   -1    0    0  501    0  0.00000000000E+00  0.00000000000E+00  0.12500216447E+04  0.12500216447E+04  0.00000000000E+00 0. -1.
         -2   -1    0    0    0  501 -0.00000000000E+00 -0.00000000000E+00 -0.16658962601E+04  0.16658962601E+04  0.00000000000E+00 0.  1.
         23    2    1    2    0    0  0.10893577528E+04  0.59528780520E+03  0.53221326202E+03  0.13538876529E+04  0.93235915825E+02 0.  0.
         11    1    3    3    0    0  0.64965493965E+03  0.40662506381E+03  0.32529615199E+03  0.83259418063E+03  0.00000000000E+00 0.  1.
        -11    1    3    3    0    0  0.43970281310E+03  0.18866274140E+03  0.20691711003E+03  0.52129347231E+03  0.00000000000E+00 0. -1.
         22    1    1    2    0    0 -0.10893577528E+04 -0.59528780520E+03 -0.94808787746E+03  0.15620302519E+04  0.00000000000E+00 0.  1.
<mgrwt>
<rscale>  0 0.28861091E+04</rscale>
<asrwt>0</asrwt>
<pdfrwt beam="1">  1        2 0.19231102E+00 0.28861091E+04</pdfrwt>
<pdfrwt beam="2">  1       -2 0.25629173E+00 0.28861091E+04</pdfrwt>
<totfact> 0.89843901E-01</totfact>
</mgrwt>
</event>
<event>
 6    1  0.2047711E-005  0.3655599E+04  0.7818608E-02  0.8077874E-01
          2   -1    0    0  501    0  0.00000000000E+00  0.00000000000E+00  0.16205263497E+04  0.16205263497E+04  0.00000000000E+00 0. -1.
         -2   -1    0    0    0  501 -0.00000000000E+00 -0.00000000000E+00 -0.20615835426E+04  0.20615835426E+04  0.00000000000E+00 0.  1.
         23    2    1    2    0    0 -0.16330792588E+03 -0.64133314718E+03  0.14941402675E+04  0.16368796131E+04  0.94562383326E+02 0.  0.
         11    1    3    3    0    0 -0.30770888353E+02 -0.28849025424E+03  0.59633328029E+03  0.66316427493E+03  0.00000000000E+00 0. -1.
        -11    1    3    3    0    0 -0.13253703752E+03 -0.35284289293E+03  0.89780698725E+03  0.97371533815E+03  0.00000000000E+00 0.  1.
         22    1    1    2    0    0  0.16330792588E+03  0.64133314718E+03 -0.19351974604E+04  0.20452302793E+04  0.00000000000E+00 0.  1.
<mgrwt>
<rscale>  0 0.36555987E+04</rscale>
<asrwt>0</asrwt>
<pdfrwt beam="1">  1        2 0.24931175E+00 0.36555987E+04</pdfrwt>
<pdfrwt beam="2">  1       -2 0.31716670E+00 0.36555987E+04</pdfrwt>
<totfact> 0.21962926E-01</totfact>
</mgrwt>
</event>
<event>
 6    1  0.2047711E-005  0.1114195E+04  0.7818608E-02  0.9191466E-01
         -2   -1    0    0    0  501 -0.00000000000E+00  0.00000000000E+00  0.14987257113E+03  0.14987257113E+03  0.00000000000E+00 0.  1.
          2   -1    0    0  501    0  0.00000000000E+00 -0.00000000000E+00 -0.20708086761E+04  0.20708086761E+04  0.00000000000E+00 0. -1.
         23    2    1    2    0    0  0.16657639542E+03  0.51375086094E+03 -0.12093034141E+04  0.13273119343E+04  0.87490461738E+02 0.  0.
         11    1    3    3    0    0  0.36078113604E+02  0.13415755285E+03 -0.22666762164E+03  0.26585351223E+03  0.00000000000E+00 0.  1.
        -11    1    3    3    0    0  0.13049828181E+03  0.37959330810E+03 -0.98263579244E+03  0.10614584220E+04  0.00000000000E+00 0. -1.
         22    1    1    2    0    0 -0.16657639542E+03 -0.51375086094E+03 -0.71163269090E+03  0.89336931299E+03  0.00000000000E+00 0. -1.
<mgrwt>
<rscale>  0 0.11141946E+04</rscale>
<asrwt>0</asrwt>
<pdfrwt beam="1">  1        2 0.31858591E+00 0.11141946E+04</pdfrwt>
<pdfrwt beam="2">  1       -2 0.23057321E-01 0.11141946E+04</pdfrwt>
<totfact> 0.10074835E+02</totfact>
</mgrwt>
</event>
<event>
 6    1  0.2047711E-005  0.7734669E+03  0.7818608E-02  0.9599237E-01
         -1   -1    0    0    0  501 -0.00000000000E+00  0.00000000000E+00  0.86710750391E+03  0.86710750391E+03  0.00000000000E+00 0.  1.
          1   -1    0    0  501    0  0.00000000000E+00 -0.00000000000E+00 -0.17248469539E+03  0.17248469539E+03  0.00000000000E+00 0. -1.
         23    2    1    2    0    0 -0.15807249687E+03  0.44790268789E+02  0.81485683550E+03  0.83600117866E+03  0.88956314668E+02 0.  0.
         13    1    3    3    0    0 -0.65232194107E+02  0.22808930283E+02  0.55307640586E+03  0.55737688970E+03  0.00000000000E+00 0.  1.
        -13    1    3    3    0    0 -0.92840302759E+02  0.21981338507E+02  0.26178042964E+03  0.27862428896E+03  0.00000000000E+00 0. -1.
         22    1    1    2    0    0  0.15807249687E+03 -0.44790268789E+02 -0.12023402698E+03  0.20359102064E+03  0.00000000000E+00 0. -1.
<mgrwt>
<rscale>  0 0.77346693E+03</rscale>
<asrwt>0</asrwt>
<pdfrwt beam="1">  1        1 0.26536107E-01 0.77346693E+03</pdfrwt>
<pdfrwt beam="2">  1       -1 0.13340115E+00 0.77346693E+03</pdfrwt>
<totfact> 0.87031679E+01</totfact>
</mgrwt>
</event>
<event>
 6    1  0.3005276E-005  0.2097828E+04  0.7818608E-02  0.8562201E-01
          1   -1    0    0  501    0  0.00000000000E+00  0.00000000000E+00  0.84486109455E+03  0.84486109455E+03  0.00000000000E+00 0. -1.
         -1   -1    0    0    0  501 -0.00000000000E+00 -0.00000000000E+00 -0.13022497013E+04  0.13022497013E+04  0.00000000000E+00 0.  1.
         23    2    1    2    0    0 -0.77679320069E+03 -0.90823929584E+02  0.48366462407E+03  0.92349408868E+03  0.85165723332E+02 0.  0.
         11    1    3    3    0    0 -0.33415153472E+03 -0.15859529075E+01  0.22886958317E+03  0.40501981372E+03  0.00000000000E+00 0.  1.
        -11    1    3    3    0    0 -0.44264166597E+03 -0.89237976677E+02  0.25479504090E+03  0.51847427497E+03  0.00000000000E+00 0. -1.
         22    1    1    2    0    0  0.77679320069E+03  0.90823929584E+02 -0.94105323085E+03  0.12236167072E+04  0.00000000000E+00 0.  1.
<mgrwt>
<rscale>  0 0.20978276E+04</rscale>
<asrwt>0</asrwt>
<pdfrwt beam="1">  1        1 0.12997863E+00 0.20978276E+04</pdfrwt>
<pdfrwt beam="2">  1       -1 0.20034611E+00 0.20978276E+04</pdfrwt>
<totfact> 0.27849876E+00</totfact>
</mgrwt>
</event>
<event>
 6    1  0.2047711E-005  0.1658724E+04  0.7818608E-02  0.8785262E-01
         -2   -1    0    0    0  501 -0.00000000000E+00  0.00000000000E+00  0.95917898240E+03  0.95917898240E+03  0.00000000000E+00 0.  1.
          2   -1    0    0  501    0  0.00000000000E+00 -0.00000000000E+00 -0.71711469186E+03  0.71711469186E+03  0.00000000000E+00 0. -1.
         23    2    1    2    0    0  0.36448134358E+03  0.28279855159E+03 -0.57187008729E+03  0.74071319027E+03  0.93802787249E+02 0.  0.
         13    1    3    3    0    0  0.11853431408E+03  0.13105658552E+03 -0.16584823418E+03  0.24234654733E+03  0.00000000000E+00 0.  1.
        -13    1    3    3    0    0  0.24594702950E+03  0.15174196607E+03 -0.40602185311E+03  0.49836664294E+03  0.00000000000E+00 0. -1.
         22    1    1    2    0    0 -0.36448134358E+03 -0.28279855159E+03  0.81393437783E+03  0.93558048399E+03  0.00000000000E+00 0.  1.
<mgrwt>
<rscale>  0 0.16587240E+04</rscale>
<asrwt>0</asrwt>
<pdfrwt beam="1">  1        2 0.11032534E+00 0.16587240E+04</pdfrwt>
<pdfrwt beam="2">  1       -2 0.14756600E+00 0.16587240E+04</pdfrwt>
<totfact> 0.11860965E+01</totfact>
</mgrwt>
</event>
<event>
 6    1  0.2047711E-005  0.1748606E+04  0.7818608E-02  0.8734118E-01
         -2   -1    0    0    0  501 -0.00000000000E+00  0.00000000000E+00  0.10043885960E+04  0.10043885960E+04  0.00000000000E+00 0.  1.
          2   -1    0    0  501    0  0.00000000000E+00 -0.00000000000E+00 -0.76106574065E+03  0.76106574065E+03  0.00000000000E+00 0. -1.
         23    2    1    2    0    0  0.11609131963E+03 -0.25812889818E+03 -0.71060714131E+03  0.77042159291E+03  0.92082566058E+02 0.  0.
         13    1    3    3    0    0  0.89160372172E+01 -0.12729404146E+03 -0.27621932938E+03  0.30427025263E+03  0.00000000000E+00 0. -1.
        -13    1    3    3    0    0  0.10717528241E+03 -0.13083485672E+03 -0.43438781193E+03  0.46615134028E+03  0.00000000000E+00 0.  1.
         22    1    1    2    0    0 -0.11609131963E+03  0.25812889818E+03  0.95392999663E+03  0.99503274371E+03  0.00000000000E+00 0.  1.
<mgrwt>
<rscale>  0 0.17486060E+04</rscale>
<asrwt>0</asrwt>
<pdfrwt beam="1">  1        2 0.11708704E+00 0.17486060E+04</pdfrwt>
<pdfrwt beam="2">  1       -2 0.15452132E+00 0.17486060E+04</pdfrwt>
<totfact> 0.96489936E+00</totfact>
</mgrwt>
</event>
<event>
 6    1  0.2047711E-005  0.5299319E+04  0.7818608E-02  0.7783923E-01
          2   -1    0    0  501    0  0.00000000000E+00  0.00000000000E+00  0.39514034214E+04  0.39514034214E+04  0.00000000000E+00 0. -1.
         -2   -1    0    0    0  501 -0.00000000000E+00 -0.00000000000E+00 -0.17767599049E+04  0.17767599049E+04  0.00000000000E+00 0.  1.
         23    2    1    2    0    0 -0.87990737273E+03 -0.92666369666E+03 -0.14204003962E+04  0.19127625183E+04  0.90446528446E+02 0.  0.
         13    1    3    3    0    0 -0.27174707788E+03 -0.25711711521E+03 -0.36301020620E+03  0.52127928702E+03  0.00000000000E+00 0. -1.
        -13    1    3    3    0    0 -0.60816029485E+03 -0.66954658145E+03 -0.10573901900E+04  0.13914832312E+04  0.00000000000E+00 0.  1.
         22    1    1    2    0    0  0.87990737273E+03  0.92666369666E+03  0.35950439127E+04  0.38154008080E+04  0.00000000000E+00 0. -1.
<mgrwt>
<rscale>  0 0.52993189E+04</rscale>
<asrwt>0</asrwt>
<pdfrwt beam="1">  1        2 0.60790822E+00 0.52993189E+04</pdfrwt>
<pdfrwt beam="2">  1       -2 0.27334768E+00 0.52993189E+04</pdfrwt>
<totfact> 0.12249878E-02</totfact>
</mgrwt>
</event>
<event>
 6    1  0.2047711E-005  0.1248036E+04  0.7818608E-02  0.9071819E-01
          2   -1    0    0  501    0  0.00000000000E+00  0.00000000000E+00  0.14664699465E+04  0.14664699465E+04  0.00000000000E+00 0. -1.
         -2   -1    0    0    0  501 -0.00000000000E+00 -0.00000000000E+00 -0.26553471501E+03  0.26553471501E+03  0.00000000000E+00 0.  1.
         23    2    1    2    0    0  0.59401826176E+03  0.52706871021E+02  0.36426684908E+03  0.70455651603E+03  0.89854534526E+02 0.  0.
         13    1    3    3    0    0  0.71330907969E+02  0.35992014935E+02  0.41753066121E+02  0.90148999446E+02  0.00000000000E+00 0. -1.
        -13    1    3    3    0    0  0.52268735379E+03  0.16714856086E+02  0.32251378296E+03  0.61440751658E+03  0.00000000000E+00 0.  1.
         22    1    1    2    0    0 -0.59401826176E+03 -0.52706871021E+02  0.83666838244E+03  0.10274481455E+04  0.00000000000E+00 0. -1.
<mgrwt>
<rscale>  0 0.12480363E+04</rscale>
<asrwt>0</asrwt>
<pdfrwt beam="1">  1        2 0.22561076E+00 0.12480363E+04</pdfrwt>
<pdfrwt beam="2">  1       -2 0.40851495E-01 0.12480363E+04</pdfrwt>
<totfact> 0.73983662E+01</totfact>
</mgrwt>
</event>
<event>
 6    1  0.2047711E-005  0.4066535E+04  0.7818608E-02  0.7991257E-01
          2   -1    0    0  501    0  0.00000000000E+00  0.00000000000E+00  0.22975764247E+04  0.22975764247E+04  0.00000000000E+00 0. -1.
         -2   -1    0    0    0  501 -0.00000000000E+00 -0.00000000000E+00 -0.17993639418E+04  0.17993639418E+04  0.00000000000E+00 0.  1.
         23    2    1    2    0    0  0.91614147306E+03  0.15617276645E+04  0.11790629739E+04  0.21625500523E+04  0.90137316096E+02 0.  0.
         13    1    3    3    0    0  0.85142933219E+02  0.16840479096E+03  0.94052545064E+02  0.21084443063E+03  0.00000000000E+00 0.  1.
        -13    1    3    3    0    0  0.83099853984E+03  0.13933228735E+04  0.10850104288E+04  0.19517056217E+04  0.00000000000E+00 0. -1.
         22    1    1    2    0    0 -0.91614147306E+03 -0.15617276645E+04 -0.68085049090E+03  0.19343903142E+04  0.00000000000E+00 0.  1.
<mgrwt>
<rscale>  0 0.40665347E+04</rscale>
<asrwt>0</asrwt>
<pdfrwt beam="1">  1        2 0.35347330E+00 0.40665347E+04</pdfrwt>
<pdfrwt beam="2">  1       -2 0.27682522E+00 0.40665347E+04</pdfrwt>
<totfact> 0.15714769E-01</totfact>
</mgrwt>
</event>
<event>
 6    1  0.2176156E-005  0.2411114E+04  0.7818608E-02  0.8435355E-01
          2   -1    0    0  501    0  0.00000000000E+00  0.00000000000E+00  0.96119897198E+03  0.96119897198E+03  0.00000000000E+00 0. -1.
         -2   -1    0    0    0  501 -0.00000000000E+00 -0.00000000000E+00 -0.15120356389E+04  0.15120356389E+04  0.00000000000E+00 0.  1.
         23    2    1    2    0    0 -0.88773064556E+03  0.45969367932E+03 -0.96410843890E+03  0.13914871656E+04  0.85717397857E+02 0.  0.
         11    1    3    3    0    0 -0.63533902839E+03  0.36870702116E+03 -0.72529309193E+03  0.10323035492E+04  0.00000000000E+00 0.  1.
        -11    1    3    3    0    0 -0.25239161717E+03  0.90986658155E+02 -0.23881534697E+03  0.35918361646E+03  0.00000000000E+00 0. -1.
         22    1    1    2    0    0  0.88773064556E+03 -0.45969367932E+03  0.41327177194E+03  0.10817474453E+04  0.00000000000E+00 0. -1.
<mgrwt>
<rscale>  0 0.24111135E+04</rscale>
<asrwt>0</asrwt>
<pdfrwt beam="1">  1        2 0.14787677E+00 0.24111135E+04</pdfrwt>
<pdfrwt beam="2">  1       -2 0.23262087E+00 0.24111135E+04</pdfrwt>
<totfact> 0.19740795E+00</totfact>
</mgrwt>
</event>
<event>
 6    1  0.2047711E-005  0.2515276E+04  0.7818608E-02  0.8397563E-01
          2   -1    0    0  501    0  0.00000000000E+00  0.00000000000E+00  0.77930534265E+03  0.77930534265E+03  0.00000000000E+00 0. -1.
         -2   -1    0    0    0  501 -0.00000000000E+00 -0.00000000000E+00 -0.20295688194E+04  0.20295688194E+04  0.00000000000E+00 0.  1.
         23    2    1    2    0    0  0.95874352645E+03  0.70721622591E+03 -0.18180269486E+03  0.12085765703E+04  0.90890960985E+02 0.  0.
         11    1    3    3    0    0  0.11902333858E+03  0.12081461683E+03 -0.84665125640E+01  0.16980697453E+03  0.00000000000E+00 0. -1.
        -11    1    3    3    0    0  0.83972018787E+03  0.58640160908E+03 -0.17333618230E+03  0.10387695958E+04  0.00000000000E+00 0.  1.
         22    1    1    2    0    0 -0.95874352645E+03 -0.70721622591E+03 -0.10684607819E+04  0.16002975918E+04  0.00000000000E+00 0.  1.
<mgrwt>
<rscale>  0 0.25152764E+04</rscale>
<asrwt>0</asrwt>
<pdfrwt beam="1">  1        2 0.11989313E+00 0.25152764E+04</pdfrwt>
<pdfrwt beam="2">  1       -2 0.31224136E+00 0.25152764E+04</pdfrwt>
<totfact> 0.84947436E-01</totfact>
</mgrwt>
</event>
<event>
 6    1  0.2047711E-005  0.1187410E+04  0.7818608E-02  0.9123948E-01
         -2   -1    0    0    0  501 -0.00000000000E+00  0.00000000000E+00  0.86487161349E+03  0.86487161349E+03  0.00000000000E+00 0.  1.
          2   -1    0    0  501    0  0.00000000000E+00 -0.00000000000E+00 -0.40755862321E+03  0.40755862321E+03  0.00000000000E+00 0. -1.
         23    2    1    2    0    0 -0.10670361625E+03  0.57469968824E+03  0.13839144784E+03  0.60656512753E+03  0.84283258803E+02 0.  0.
         13    1    3    3    0    0 -0.48205174035E+02  0.41617945297E+03  0.12428434073E+03  0.43700763521E+03  0.00000000000E+00 0.  1.
        -13    1    3    3    0    0 -0.58498442217E+02  0.15852023527E+03  0.14107107114E+02  0.16955749232E+03  0.00000000000E+00 0. -1.
         22    1    1    2    0    0  0.10670361625E+03 -0.57469968824E+03  0.31892154244E+03  0.66586510917E+03  0.00000000000E+00 0.  1.
<mgrwt>
<rscale>  0 0.11874104E+04</rscale>
<asrwt>0</asrwt>
<pdfrwt beam="1">  1        2 0.62701327E-01 0.11874104E+04</pdfrwt>
<pdfrwt beam="2">  1       -2 0.13305717E+00 0.11874104E+04</pdfrwt>
<totfact> 0.31452209E+01</totfact>
</mgrwt>
</event>
<event>
 6    1  0.2047711E-005  0.1366265E+04  0.7818608E-02  0.8978606E-01
         -2   -1    0    0    0  501 -0.00000000000E+00  0.00000000000E+00  0.98258152745E+03  0.98258152745E+03  0.00000000000E+00 0.  1.
          2   -1    0    0  501    0  0.00000000000E+00 -0.00000000000E+00 -0.47494311710E+03  0.47494311710E+03  0.00000000000E+00 0. -1.
         23    2    1    2    0    0  0.47707901132E+03  0.42129686437E+03  0.51035309645E+03  0.82104777891E+03  0.92540484258E+02 0.  0.
         13    1    3    3    0    0  0.19963599879E+03  0.17923730799E+03  0.27423383949E+03  0.38364663860E+03  0.00000000000E+00 0.  1.
        -13    1    3    3    0    0  0.27744301253E+03  0.24205955639E+03  0.23611925697E+03  0.43740114031E+03  0.00000000000E+00 0. -1.
         22    1    1    2    0    0 -0.47707901132E+03 -0.42129686437E+03 -0.27146860988E+01  0.63647686564E+03  0.00000000000E+00 0. -1.
<mgrwt>
<rscale>  0 0.13662655E+04</rscale>
<asrwt>0</asrwt>
<pdfrwt beam="1">  1        2 0.73068172E-01 0.13662655E+04</pdfrwt>
<pdfrwt beam="2">  1       -2 0.15116639E+00 0.13662655E+04</pdfrwt>
<totfact> 0.18700390E+01</totfact>
</mgrwt>
</event>
<event>
 6    1  0.2047711E-005  0.1775922E+04  0.7818608E-02  0.8719210E-01
          2   -1    0    0  501    0  0.00000000000E+00  0.00000000000E+00  0.31591283519E+04  0.31591283519E+04  0.00000000000E+00 0. -1.
         -2   -1    0    0    0  501 -0.00000000000E+00 -0.00000000000E+00 -0.24958609651E+03  0.24958609651E+03  0.00000000000E+00 0.  1.
         23    2    1    2    0    0 -0.51702336792E+03  0.37942888939E+03  0.28541480430E+03  0.70735843250E+03  0.87263374007E+02 0.  0.
         13    1    3    3    0    0 -0.28835654367E+03  0.26430972594E+03  0.17667479359E+03  0.42921219717E+03  0.00000000000E+00 0.  1.
        -13    1    3    3    0    0 -0.22866682424E+03  0.11511916345E+03  0.10874001071E+03  0.27814623534E+03  0.00000000000E+00 0. -1.
         22    1    1    2    0    0  0.51702336792E+03 -0.37942888939E+03  0.26241274511E+04  0.27013560159E+04  0.00000000000E+00 0. -1.
<mgrwt>
<rscale>  0 0.17759217E+04</rscale>
<asrwt>0</asrwt>
<pdfrwt beam="1">  1        2 0.48601972E+00 0.17759217E+04</pdfrwt>
<pdfrwt beam="2">  1       -2 0.38397863E-01 0.17759217E+04</pdfrwt>
<totfact> 0.83979063E+00</totfact>
</mgrwt>
</event>
<event>
 6    1  0.2047711E-005  0.8589688E+03  0.7818608E-02  0.9478378E-01
         -1   -1    0    0    0  501 -0.00000000000E+00  0.00000000000E+00  0.19424488799E+03  0.19424488799E+03  0.00000000000E+00 0.  1.
          1   -1    0    0  501    0  0.00000000000E+00 -0.00000000000E+00 -0.94960969574E+03  0.94960969574E+03  0.00000000000E+00 0. -1.
         23    2    1    2    0    0  0.32944228686E+03  0.12137919649E+03 -0.64007482429E+02  0.36845785883E+03  0.91646637785E+02 0.  0.
         13    1    3    3    0    0  0.15236948749E+03  0.90782879003E+02  0.99166263269E+00  0.17736678165E+03  0.00000000000E+00 0.  1.
        -13    1    3    3    0    0  0.17707279937E+03  0.30596317486E+02 -0.64999145061E+02  0.19109107718E+03  0.00000000000E+00 0. -1.
         22    1    1    2    0    0 -0.32944228686E+03 -0.12137919649E+03 -0.69135732531E+03  0.77539672489E+03  0.00000000000E+00 0. -1.
<mgrwt>
<rscale>  0 0.85896875E+03</rscale>
<asrwt>0</asrwt>
<pdfrwt beam="1">  1        1 0.14609380E+00 0.85896875E+03</pdfrwt>
<pdfrwt beam="2">  1       -1 0.29883828E-01 0.85896875E+03</pdfrwt>
<totfact> 0.17173624E+02</totfact>
</mgrwt>
</event>
<event>
 6    1  0.2339410E-005  0.2907012E+04  0.7818608E-02  0.8270794E-01
         -2   -1    0    0    0  501 -0.00000000000E+00  0.00000000000E+00  0.95820568377E+03  0.95820568377E+03  0.00000000000E+00 0.  1.
          2   -1    0    0  501    0  0.00000000000E+00 -0.00000000000E+00 -0.22048288918E+04  0.22048288918E+04  0.00000000000E+00 0. -1.
         23    2    1    2    0    0 -0.55815097561E+03  0.71276414762E+02 -0.20804175994E+04  0.21571389915E+04  0.92186777956E+02 0.  0.
         13    1    3    3    0    0 -0.35635762903E+03  0.72387609459E+02 -0.11997319741E+04  0.12536297442E+04  0.00000000000E+00 0.  1.
        -13    1    3    3    0    0 -0.20179334658E+03 -0.11111946969E+01 -0.88068562526E+03  0.90350924734E+03  0.00000000000E+00 0. -1.
         22    1    1    2    0    0  0.55815097561E+03 -0.71276414762E+02  0.83379439137E+03  0.10058955840E+04  0.00000000000E+00 0.  1.
<mgrwt>
<rscale>  0 0.29070119E+04</rscale>
<asrwt>0</asrwt>
<pdfrwt beam="1">  1        2 0.33920444E+00 0.29070119E+04</pdfrwt>
<pdfrwt beam="2">  1       -2 0.14741626E+00 0.29070119E+04</pdfrwt>
<totfact> 0.13885828E+00</totfact>
</mgrwt>
</event>
<event>
 6    1  0.2047711E-005  0.8935460E+03  0.7818608E-02  0.9433685E-01
          2   -1    0    0  501    0  0.00000000000E+00  0.00000000000E+00  0.75962773469E+03  0.75962773469E+03  0.00000000000E+00 0. -1.
         -2   -1    0    0    0  501 -0.00000000000E+00 -0.00000000000E+00 -0.26276830686E+03  0.26276830686E+03  0.00000000000E+00 0.  1.
         23    2    1    2    0    0 -0.21553365565E+03 -0.38595989033E+03  0.23842988085E+03  0.51033586500E+03  0.90410692718E+02 0.  0.
         11    1    3    3    0    0 -0.16595561027E+03 -0.28189805250E+03  0.21843300946E+03  0.39334559385E+03  0.00000000000E+00 0. -1.
        -11    1    3    3    0    0 -0.49578045380E+02 -0.10406183784E+03  0.19996871392E+02  0.11699027115E+03  0.00000000000E+00 0.  1.
         22    1    1    2    0    0  0.21553365565E+03  0.38595989033E+03  0.25842954697E+03  0.51206017655E+03  0.00000000000E+00 0. -1.
<mgrwt>
<rscale>  0 0.89354596E+03</rscale>
<asrwt>0</asrwt>
<pdfrwt beam="1">  1        2 0.11686580E+00 0.89354596E+03</pdfrwt>
<pdfrwt beam="2">  1       -2 0.40425894E-01 0.89354596E+03</pdfrwt>
<totfact> 0.21419796E+02</totfact>
</mgrwt>
</event>
<event>
 6    1  0.2047711E-005  0.2875034E+04  0.7818608E-02  0.8280345E-01
          2   -1    0    0  501    0  0.00000000000E+00  0.00000000000E+00  0.20517101441E+04  0.20517101441E+04  0.00000000000E+00 0. -1.
         -2   -1    0    0    0  501 -0.00000000000E+00 -0.00000000000E+00 -0.10071863696E+04  0.10071863696E+04  0.00000000000E+00 0.  1.
         23    2    1    2    0    0  0.39450697672E+03  0.13395404029E+04  0.87975318497E+03  0.16527835763E+04  0.87884230118E+02 0.  0.
         13    1    3    3    0    0  0.49912231980E+02  0.14420439007E+03  0.12874712122E+03  0.19965459734E+03  0.00000000000E+00 0. -1.
        -13    1    3    3    0    0  0.34459474474E+03  0.11953360128E+04  0.75100606375E+03  0.14531289789E+04  0.00000000000E+00 0.  1.
         22    1    1    2    0    0 -0.39450697672E+03 -0.13395404029E+04  0.16477058957E+03  0.14061129374E+04  0.00000000000E+00 0.  1.
<mgrwt>
<rscale>  0 0.28750336E+04</rscale>
<asrwt>0</asrwt>
<pdfrwt beam="1">  1        2 0.31564771E+00 0.28750336E+04</pdfrwt>
<pdfrwt beam="2">  1       -2 0.15495175E+00 0.28750336E+04</pdfrwt>
<totfact> 0.14857306E+00</totfact>
</mgrwt>
</event>
<event>
 6    1  0.2047711E-005  0.2415769E+04  0.7818608E-02  0.8433624E-01
          2   -1    0    0  501    0  0.00000000000E+00  0.00000000000E+00  0.16309014228E+04  0.16309014228E+04  0.00000000000E+00 0. -1.
         -2   -1    0    0    0  501 -0.00000000000E+00 -0.00000000000E+00 -0.89458783606E+03  0.89458783606E+03  0.00000000000E+00 0.  1.
         23    2    1    2    0    0  0.69504389302E+03  0.65676471325E+02 -0.65959799136E+03  0.96473029414E+03  0.90750306454E+02 0.  0.
         11    1    3    3    0    0  0.46533422815E+03  0.86348133112E+02 -0.43590460551E+03  0.64343202367E+03  0.00000000000E+00 0. -1.
        -11    1    3    3    0    0  0.22970966487E+03 -0.20671661787E+02 -0.22369338585E+03  0.32129827047E+03  0.00000000000E+00 0.  1.
         22    1    1    2    0    0 -0.69504389302E+03 -0.65676471325E+02  0.13959115781E+04  0.15607589647E+04  0.00000000000E+00 0. -1.
<mgrwt>
<rscale>  0 0.24157687E+04</rscale>
<asrwt>0</asrwt>
<pdfrwt beam="1">  1        2 0.25090791E+00 0.24157687E+04</pdfrwt>
<pdfrwt beam="2">  1       -2 0.13762890E+00 0.24157687E+04</pdfrwt>
<totfact> 0.36139498E+00</totfact>
</mgrwt>
</event>
<event>
 6    1  0.2047711E-005  0.3196123E+04  0.7818608E-02  0.8189842E-01
          1   -1    0    0  501    0  0.00000000000E+00  0.00000000000E+00  0.17610443155E+04  0.17610443155E+04  0.00000000000E+00 0. -1.
         -1   -1    0    0    0  501 -0.00000000000E+00 -0.00000000000E+00 -0.14501627141E+04  0.14501627141E+04  0.00000000000E+00 0.  1.
         23    2    1    2    0    0 -0.70564912306E+03  0.14255612964E+04  0.29563082114E+03  0.16204844639E+04  0.91687625532E+02 0.  0.
         11    1    3    3    0    0 -0.39331776680E+03  0.75397947746E+03  0.11522723422E+03  0.85817319558E+03  0.00000000000E+00 0.  1.
        -11    1    3    3    0    0 -0.31233135626E+03  0.67158181898E+03  0.18040358692E+03  0.76231126835E+03  0.00000000000E+00 0. -1.
         22    1    1    2    0    0  0.70564912306E+03 -0.14255612964E+04  0.15250780239E+02  0.15907225657E+04  0.00000000000E+00 0.  1.
<mgrwt>
<rscale>  0 0.31961232E+04</rscale>
<asrwt>0</asrwt>
<pdfrwt beam="1">  1        1 0.27092990E+00 0.31961232E+04</pdfrwt>
<pdfrwt beam="2">  1       -1 0.22310195E+00 0.31961232E+04</pdfrwt>
<totfact> 0.38026230E-01</totfact>
</mgrwt>
</event>
<event>
 6    1  0.2047711E-005  0.2927393E+04  0.7818608E-02  0.8264774E-01
          1   -1    0    0  501    0  0.00000000000E+00  0.00000000000E+00  0.24785779664E+04  0.24785779664E+04  0.00000000000E+00 0. -1.
         -1   -1    0    0    0  501 -0.00000000000E+00 -0.00000000000E+00 -0.86436957610E+03  0.86436957610E+03  0.00000000000E+00 0.  1.
         23    2    1    2    0    0  0.86999891554E+03 -0.10788869932E+04  0.27558390672E+03  0.14160820139E+04  0.91904968945E+02 0.  0.
         11    1    3    3    0    0  0.44795796568E+03 -0.60278713903E+03  0.18472353273E+03  0.77339605477E+03  0.00000000000E+00 0.  1.
        -11    1    3    3    0    0  0.42204094985E+03 -0.47609985420E+03  0.90860373987E+02  0.64268595914E+03  0.00000000000E+00 0. -1.
         22    1    1    2    0    0 -0.86999891554E+03  0.10788869932E+04  0.13386244836E+04  0.19268655286E+04  0.00000000000E+00 0. -1.
<mgrwt>
<rscale>  0 0.29273930E+04</rscale>
<asrwt>0</asrwt>
<pdfrwt beam="1">  1        1 0.38131968E+00 0.29273930E+04</pdfrwt>
<pdfrwt beam="2">  1       -1 0.13297994E+00 0.29273930E+04</pdfrwt>
<totfact> 0.57454144E-01</totfact>
</mgrwt>
</event>
<event>
 6    1  0.2047711E-005  0.2542011E+04  0.7818608E-02  0.8388170E-01
         -2   -1    0    0    0  501 -0.00000000000E+00  0.00000000000E+00  0.12665276072E+04  0.12665276072E+04  0.00000000000E+00 0.  1.
          2   -1    0    0  501    0  0.00000000000E+00 -0.00000000000E+00 -0.12754987725E+04  0.12754987725E+04  0.00000000000E+00 0. -1.
         23    2    1    2    0    0  0.68444960874E+03  0.10611010667E+04  0.12682065622E+03  0.12720475769E+04  0.87262927119E+02 0.  0.
         13    1    3    3    0    0  0.31790202085E+03  0.45281757922E+03  0.17909343080E+02  0.55355776525E+03  0.00000000000E+00 0. -1.
        -13    1    3    3    0    0  0.36654758789E+03  0.60828348751E+03  0.10891131314E+03  0.71848981169E+03  0.00000000000E+00 0.  1.
         22    1    1    2    0    0 -0.68444960874E+03 -0.10611010667E+04 -0.13579182155E+03  0.12699788028E+04  0.00000000000E+00 0.  1.
<mgrwt>
<rscale>  0 0.25420105E+04</rscale>
<asrwt>0</asrwt>
<pdfrwt beam="1">  1        2 0.19623058E+00 0.25420105E+04</pdfrwt>
<pdfrwt beam="2">  1       -2 0.19485040E+00 0.25420105E+04</pdfrwt>
<totfact> 0.21846128E+00</totfact>
</mgrwt>
</event>
<event>
 6    1  0.2047711E-005  0.2173065E+04  0.7818608E-02  0.8529723E-01
         -2   -1    0    0    0  501 -0.00000000000E+00  0.00000000000E+00  0.32829261225E+03  0.32829261225E+03  0.00000000000E+00 0.  1.
          2   -1    0    0  501    0  0.00000000000E+00 -0.00000000000E+00 -0.35960378768E+04  0.35960378768E+04  0.00000000000E+00 0. -1.
         23    2    1    2    0    0 -0.39098115557E+03 -0.81616493263E+03 -0.55710404718E+03  0.10666098465E+04  0.91105346222E+02 0.  0.
         13    1    3    3    0    0 -0.21311795013E+03 -0.48740902504E+03 -0.37477935221E+03  0.65072757833E+03  0.00000000000E+00 0.  1.
        -13    1    3    3    0    0 -0.17786320544E+03 -0.32875590759E+03 -0.18232469497E+03  0.41588226822E+03  0.00000000000E+00 0. -1.
         22    1    1    2    0    0  0.39098115557E+03  0.81616493263E+03 -0.27106412174E+04  0.28577206425E+04  0.00000000000E+00 0. -1.
<mgrwt>
<rscale>  0 0.21730648E+04</rscale>
<asrwt>0</asrwt>
<pdfrwt beam="1">  1        2 0.55323661E+00 0.21730648E+04</pdfrwt>
<pdfrwt beam="2">  1       -2 0.50506555E-01 0.21730648E+04</pdfrwt>
<totfact> 0.23703406E+00</totfact>
</mgrwt>
</event>
<event>
 6    1  0.2047711E-005  0.5545335E+04  0.7818608E-02  0.7749482E-01
          2   -1    0    0  501    0  0.00000000000E+00  0.00000000000E+00  0.49759049991E+04  0.49759049991E+04  0.00000000000E+00 0.  1.
         -2   -1    0    0    0  501 -0.00000000000E+00 -0.00000000000E+00 -0.15449821343E+04  0.15449821343E+04  0.00000000000E+00 0. -1.
         23    2    1    2    0    0 -0.14601703699E+04 -0.13884308728E+04  0.39545011439E+04  0.44390677340E+04  0.86053775210E+02 0.  0.
         11    1    3    3    0    0 -0.11220891097E+04 -0.10848965716E+04  0.31350012483E+04  0.35020447410E+04  0.00000000000E+00 0. -1.
        -11    1    3    3    0    0 -0.33808126020E+03 -0.30353430116E+03  0.81949989563E+03  0.93702299301E+03  0.00000000000E+00 0.  1.
         22    1    1    2    0    0  0.14601703699E+04  0.13884308728E+04 -0.52357827918E+03  0.20818193994E+04  0.00000000000E+00 0. -1.
<mgrwt>
<rscale>  0 0.55453347E+04</rscale>
<asrwt>0</asrwt>
<pdfrwt beam="1">  1        2 0.76552384E+00 0.55453347E+04</pdfrwt>
<pdfrwt beam="2">  1       -2 0.23768956E+00 0.55453347E+04</pdfrwt>
<totfact> 0.19277748E-03</totfact>
</mgrwt>
</event>
<event>
 6    1  0.2047711E-005  0.1493437E+04  0.7818608E-02  0.8888829E-01
         -2   -1    0    0    0  501 -0.00000000000E+00  0.00000000000E+00  0.30064495026E+03  0.30064495026E+03  0.00000000000E+00 0.  1.
          2   -1    0    0  501    0  0.00000000000E+00 -0.00000000000E+00 -0.18546403581E+04  0.18546403581E+04  0.00000000000E+00 0. -1.
         23    2    1    2    0    0  0.14679277511E+03 -0.54280746976E+03 -0.14828255652E+04  0.15884932702E+04  0.91384597146E+02 0.  0.
         13    1    3    3    0    0  0.72162999000E+02 -0.20940742721E+03 -0.70413343325E+03  0.73814826479E+03  0.00000000000E+00 0. -1.
        -13    1    3    3    0    0  0.74629776109E+02 -0.33340004255E+03 -0.77869213197E+03  0.85034500543E+03  0.00000000000E+00 0.  1.
         22    1    1    2    0    0 -0.14679277511E+03  0.54280746976E+03 -0.71169842667E+02  0.56679203819E+03  0.00000000000E+00 0.  1.
<mgrwt>
<rscale>  0 0.14934367E+04</rscale>
<asrwt>0</asrwt>
<pdfrwt beam="1">  1        2 0.28532928E+00 0.14934367E+04</pdfrwt>
<pdfrwt beam="2">  1       -2 0.46253071E-01 0.14934367E+04</pdfrwt>
<totfact> 0.34475602E+01</totfact>
</mgrwt>
</event>
<event>
 6    1  0.2047711E-005  0.1296443E+04  0.7818608E-02  0.9032391E-01
         -2   -1    0    0    0  501 -0.00000000000E+00  0.00000000000E+00  0.35692809045E+03  0.35692809045E+03  0.00000000000E+00 0.  1.
          2   -1    0    0  501    0  0.00000000000E+00 -0.00000000000E+00 -0.11772433844E+04  0.11772433844E+04  0.00000000000E+00 0. -1.
         23    2    1    2    0    0  0.21918173330E+03  0.39621747021E+03  0.13162055445E+03  0.48003164761E+03  0.89874893245E+02 0.  0.
         13    1    3    3    0    0  0.38180547899E+02  0.35236726291E+02 -0.83944514004E+01  0.52629344779E+02  0.00000000000E+00 0.  1.
        -13    1    3    3    0    0  0.18100118541E+03  0.36098074392E+03  0.14001500585E+03  0.42740230283E+03  0.00000000000E+00 0. -1.
         22    1    1    2    0    0 -0.21918173330E+03 -0.39621747021E+03 -0.95193584840E+03  0.10541398272E+04  0.00000000000E+00 0. -1.
<mgrwt>
<rscale>  0 0.12964432E+04</rscale>
<asrwt>0</asrwt>
<pdfrwt beam="1">  1        2 0.18111437E+00 0.12964432E+04</pdfrwt>
<pdfrwt beam="2">  1       -2 0.54912013E-01 0.12964432E+04</pdfrwt>
<totfact> 0.59771347E+01</totfact>
</mgrwt>
</event>
<event>
 6    1  0.2047711E-005  0.1695333E+04  0.7818608E-02  0.8764030E-01
          2   -1    0    0  501    0  0.00000000000E+00  0.00000000000E+00  0.15061347155E+04  0.15061347155E+04  0.00000000000E+00 0. -1.
         -2   -1    0    0    0  501 -0.00000000000E+00 -0.00000000000E+00 -0.47707463957E+03  0.47707463957E+03  0.00000000000E+00 0.  1.
         23    2    1    2    0    0 -0.47907264804E+03  0.41856002877E+03 -0.13501860257E+03  0.65664150171E+03  0.90801646184E+02 0.  0.
         11    1    3    3    0    0 -0.36788775235E+03  0.26789934590E+03 -0.10429072294E+03  0.46689186409E+03  0.00000000000E+00 0. -1.
        -11    1    3    3    0    0 -0.11118489569E+03  0.15066068286E+03 -0.30727879631E+02  0.18974963762E+03  0.00000000000E+00 0.  1.
         22    1    1    2    0    0  0.47907264804E+03 -0.41856002877E+03  0.11640786785E+04  0.13265678533E+04  0.00000000000E+00 0. -1.
<mgrwt>
<rscale>  0 0.16953332E+04</rscale>
<asrwt>0</asrwt>
<pdfrwt beam="1">  1        2 0.23171303E+00 0.16953332E+04</pdfrwt>
<pdfrwt beam="2">  1       -2 0.73396099E-01 0.16953332E+04</pdfrwt>
<totfact> 0.20078687E+01</totfact>
</mgrwt>
</event>
<event>
 6    1  0.2047711E-005  0.2269934E+04  0.7818608E-02  0.8489871E-01
          1   -1    0    0  501    0  0.00000000000E+00  0.00000000000E+00  0.77091591918E+03  0.77091591918E+03  0.00000000000E+00 0. -1.
         -1   -1    0    0    0  501 -0.00000000000E+00 -0.00000000000E+00 -0.16709346848E+04  0.16709346848E+04  0.00000000000E+00 0.  1.
         23    2    1    2    0    0 -0.90087401054E+03  0.56369158952E+03 -0.27898179285E+02  0.10671082616E+04  0.92841491419E+02 0.  0.
         11    1    3    3    0    0 -0.79638872435E+03  0.46292079442E+03 -0.13764299295E+02  0.92126007083E+03  0.00000000000E+00 0. -1.
        -11    1    3    3    0    0 -0.10448528619E+03  0.10077079510E+03 -0.14133879990E+02  0.14584819073E+03  0.00000000000E+00 0.  1.
         22    1    1    2    0    0  0.90087401054E+03 -0.56369158952E+03 -0.87212058637E+03  0.13747423424E+04  0.00000000000E+00 0.  1.
<mgrwt>
<rscale>  0 0.22699341E+04</rscale>
<asrwt>0</asrwt>
<pdfrwt beam="1">  1        1 0.11860245E+00 0.22699341E+04</pdfrwt>
<pdfrwt beam="2">  1       -1 0.25706687E+00 0.22699341E+04</pdfrwt>
<totfact> 0.13326732E+00</totfact>
</mgrwt>
</event>
<event>
 6    1  0.2047711E-005  0.3473050E+04  0.7818608E-02  0.8120207E-01
         -2   -1    0    0    0  501 -0.00000000000E+00  0.00000000000E+00  0.18390269513E+04  0.18390269513E+04  0.00000000000E+00 0.  1.
          2   -1    0    0  501    0  0.00000000000E+00 -0.00000000000E+00 -0.16397359808E+04  0.16397359808E+04  0.00000000000E+00 0. -1.
         23    2    1    2    0    0 -0.77288574280E+03  0.52343917990E+03 -0.13655694979E+04  0.16566407539E+04  0.91310390530E+02 0.  0.
         11    1    3    3    0    0 -0.51231395227E+03  0.29744796097E+03 -0.83451629175E+03  0.10234052552E+04  0.00000000000E+00 0. -1.
        -11    1    3    3    0    0 -0.26057179052E+03  0.22599121893E+03 -0.53105320616E+03  0.63323549870E+03  0.00000000000E+00 0.  1.
         22    1    1    2    0    0  0.77288574280E+03 -0.52343917990E+03  0.15648604684E+04  0.18221221782E+04  0.00000000000E+00 0.  1.
<mgrwt>
<rscale>  0 0.34730498E+04</rscale>
<asrwt>0</asrwt>
<pdfrwt beam="1">  1        2 0.25226707E+00 0.34730498E+04</pdfrwt>
<pdfrwt beam="2">  1       -2 0.28292722E+00 0.34730498E+04</pdfrwt>
<totfact> 0.35265244E-01</totfact>
</mgrwt>
</event>
<event>
 6    1  0.2047711E-005  0.1717119E+04  0.7818608E-02  0.8751660E-01
         -2   -1    0    0    0  501 -0.00000000000E+00  0.00000000000E+00  0.78956192901E+03  0.78956192901E+03  0.00000000000E+00 0.  1.
          2   -1    0    0  501    0  0.00000000000E+00 -0.00000000000E+00 -0.93358706237E+03  0.93358706237E+03  0.00000000000E+00 0. -1.
         23    2    1    2    0    0  0.68056689207E+03 -0.49958443588E+03  0.70654471135E+02  0.85203290512E+03  0.90620714856E+02 0.  0.
         13    1    3    3    0    0  0.39140642831E+02 -0.43153659867E+02  0.25196974615E+02  0.63475316548E+02  0.00000000000E+00 0. -1.
        -13    1    3    3    0    0  0.64142624924E+03 -0.45643077601E+03  0.45457496520E+02  0.78855758857E+03  0.00000000000E+00 0.  1.
         22    1    1    2    0    0 -0.68056689207E+03  0.49958443588E+03 -0.21467960450E+03  0.87111608626E+03  0.00000000000E+00 0. -1.
<mgrwt>
<rscale>  0 0.17171195E+04</rscale>
<asrwt>0</asrwt>
<pdfrwt beam="1">  1        2 0.14362878E+00 0.17171195E+04</pdfrwt>
<pdfrwt beam="2">  1       -2 0.12147107E+00 0.17171195E+04</pdfrwt>
<totfact> 0.13627134E+01</totfact>
</mgrwt>
</event>
<event>
 6    1  0.2047711E-005  0.2826951E+04  0.7818608E-02  0.8294950E-01
          2   -1    0    0  501    0  0.00000000000E+00  0.00000000000E+00  0.29054488099E+04  0.29054488099E+04  0.00000000000E+00 0.  1.
         -2   -1    0    0    0  501 -0.00000000000E+00 -0.00000000000E+00 -0.68764363945E+03  0.68764363945E+03  0.00000000000E+00 0. -1.
         23    2    1    2    0    0  0.11459471314E+04  0.28232607022E+03  0.20953762890E+04  0.24065463403E+04  0.89222517652E+02 0.  0.
         11    1    3    3    0    0  0.83794868431E+03  0.24625255866E+03  0.15329340569E+04  0.17642803470E+04  0.00000000000E+00 0. -1.
        -11    1    3    3    0    0  0.30799844709E+03  0.36073511566E+02  0.56244223212E+03  0.64226599327E+03  0.00000000000E+00 0.  1.
         22    1    1    2    0    0 -0.11459471314E+04 -0.28232607022E+03  0.12242888147E+03  0.11865461091E+04  0.00000000000E+00 0. -1.
<mgrwt>
<rscale>  0 0.28269513E+04</rscale>
<asrwt>0</asrwt>
<pdfrwt beam="1">  1        2 0.44699212E+00 0.28269513E+04</pdfrwt>
<pdfrwt beam="2">  1       -2 0.10579133E+00 0.28269513E+04</pdfrwt>
<totfact> 0.12490665E+00</totfact>
</mgrwt>
</event>
<event>
 6    1  0.2047711E-005  0.3309876E+04  0.7818608E-02  0.8160387E-01
          1   -1    0    0  501    0  0.00000000000E+00  0.00000000000E+00  0.24301466822E+04  0.24301466822E+04  0.00000000000E+00 0.  1.
         -1   -1    0    0    0  501 -0.00000000000E+00 -0.00000000000E+00 -0.11270180815E+04  0.11270180815E+04  0.00000000000E+00 0. -1.
         23    2    1    2    0    0  0.12917092559E+04  0.75721984244E+03 -0.10246275078E+03  0.15034895851E+04  0.89931227081E+02 0.  0.
         11    1    3    3    0    0  0.45864888752E+03  0.31585766680E+03 -0.22388534244E+02  0.55733841978E+03  0.00000000000E+00 0. -1.
        -11    1    3    3    0    0  0.83306036842E+03  0.44136217564E+03 -0.80074216539E+02  0.94615116533E+03  0.00000000000E+00 0.  1.
         22    1    1    2    0    0 -0.12917092559E+04 -0.75721984244E+03  0.14055913516E+04  0.20536751786E+04  0.00000000000E+00 0. -1.
<mgrwt>
<rscale>  0 0.33098757E+04</rscale>
<asrwt>0</asrwt>
<pdfrwt beam="1">  1        1 0.37386872E+00 0.33098757E+04</pdfrwt>
<pdfrwt beam="2">  1       -1 0.17338740E+00 0.33098757E+04</pdfrwt>
<totfact> 0.29167611E-01</totfact>
</mgrwt>
</event>
<event>
 6    1  0.2047711E-005  0.1018375E+04  0.7818608E-02  0.9288617E-01
          2   -1    0    0  501    0  0.00000000000E+00  0.00000000000E+00  0.35856645774E+03  0.35856645774E+03  0.00000000000E+00 0. -1.
         -2   -1    0    0    0  501 -0.00000000000E+00 -0.00000000000E+00 -0.72307976715E+03  0.72307976715E+03  0.00000000000E+00 0.  1.
         23    2    1    2    0    0 -0.45679117929E+03 -0.14279495705E+03 -0.35504666007E+03  0.60296240577E+03  0.91961680607E+02 0.  0.
         11    1    3    3    0    0 -0.23410559097E+03 -0.12016241699E+03 -0.20352767849E+03  0.33266792766E+03  0.00000000000E+00 0. -1.
        -11    1    3    3    0    0 -0.22268558832E+03 -0.22632540061E+02 -0.15151898158E+03  0.27029447811E+03  0.00000000000E+00 0.  1.
         22    1    1    2    0    0  0.45679117929E+03  0.14279495705E+03 -0.94666493364E+01  0.47868381912E+03  0.00000000000E+00 0. -1.
<mgrwt>
<rscale>  0 0.10183755E+04</rscale>
<asrwt>0</asrwt>
<pdfrwt beam="1">  1        2 0.55164071E-01 0.10183755E+04</pdfrwt>
<pdfrwt beam="2">  1       -2 0.11124304E+00 0.10183755E+04</pdfrwt>
<totfact> 0.57346535E+01</totfact>
</mgrwt>
</event>
<event>
 6    1  0.2047711E-005  0.1025534E+04  0.7818608E-02  0.9280974E-01
          2   -1    0    0  501    0  0.00000000000E+00  0.00000000000E+00  0.11114006977E+04  0.11114006977E+04  0.00000000000E+00 0. -1.
         -2   -1    0    0    0  501 -0.00000000000E+00 -0.00000000000E+00 -0.23657545532E+03  0.23657545532E+03  0.00000000000E+00 0.  1.
         23    2    1    2    0    0 -0.52514497217E+02  0.48901045412E+03  0.26980099918E+03  0.56826894417E+03  0.90818594459E+02 0.  0.
         13    1    3    3    0    0 -0.60487401740E+02  0.17874852250E+03  0.84161664721E+02  0.20662271384E+03  0.00000000000E+00 0. -1.
        -13    1    3    3    0    0  0.79729045231E+01  0.31026193161E+03  0.18563933446E+03  0.36164623033E+03  0.00000000000E+00 0.  1.
         22    1    1    2    0    0  0.52514497217E+02 -0.48901045412E+03  0.60502424318E+03  0.77970720882E+03  0.00000000000E+00 0.  1.
<mgrwt>
<rscale>  0 0.10255343E+04</rscale>
<asrwt>0</asrwt>
<pdfrwt beam="1">  1        2 0.17098472E+00 0.10255343E+04</pdfrwt>
<pdfrwt beam="2">  1       -2 0.36396225E-01 0.10255343E+04</pdfrwt>
<totfact> 0.15170363E+02</totfact>
</mgrwt>
</event>
<event>
 6    1  0.2047711E-005  0.3162557E+04  0.7818608E-02  0.8198776E-01
          2   -1    0    0  501    0  0.00000000000E+00  0.00000000000E+00  0.19682317983E+04  0.19682317983E+04  0.00000000000E+00 0.  1.
         -2   -1    0    0    0  501 -0.00000000000E+00 -0.00000000000E+00 -0.12704003496E+04  0.12704003496E+04  0.00000000000E+00 0. -1.
         23    2    1    2    0    0 -0.86540693281E+02  0.86435679320E+03 -0.10019741352E+04  0.13297212069E+04  0.98001850665E+02 0.  0.
         11    1    3    3    0    0  0.56306654997E+01  0.12662842643E+03 -0.10429809681E+03  0.16414796913E+03  0.00000000000E+00 0.  1.
        -11    1    3    3    0    0 -0.92171358781E+02  0.73772836677E+03 -0.89767603843E+03  0.11655732377E+04  0.00000000000E+00 0. -1.
         22    1    1    2    0    0  0.86540693281E+02 -0.86435679320E+03  0.16998055840E+04  0.19089109410E+04  0.00000000000E+00 0.  1.
<mgrwt>
<rscale>  0 0.31625574E+04</rscale>
<asrwt>0</asrwt>
<pdfrwt beam="1">  1        2 0.30280489E+00 0.31625574E+04</pdfrwt>
<pdfrwt beam="2">  1       -2 0.19544621E+00 0.31625574E+04</pdfrwt>
<totfact> 0.83789389E-01</totfact>
</mgrwt>
</event>
<event>
 6    1  0.2047711E-005  0.4375148E+04  0.7818608E-02  0.7932867E-01
          2   -1    0    0  501    0  0.00000000000E+00  0.00000000000E+00  0.15893963047E+04  0.15893963047E+04  0.00000000000E+00 0. -1.
         -2   -1    0    0    0  501 -0.00000000000E+00 -0.00000000000E+00 -0.30108786321E+04  0.30108786321E+04  0.00000000000E+00 0.  1.
         23    2    1    2    0    0 -0.49798768425E+03  0.66623035200E+03 -0.28373460223E+04  0.29581651299E+04  0.91399505914E+02 0.  0.
         11    1    3    3    0    0 -0.34461333461E+03  0.52016483615E+03 -0.21802141929E+04  0.22677441950E+04  0.00000000000E+00 0.  1.
        -11    1    3    3    0    0 -0.15337434965E+03  0.14606551585E+03 -0.65713182947E+03  0.69042093490E+03  0.00000000000E+00 0. -1.
         22    1    1    2    0    0  0.49798768425E+03 -0.66623035200E+03  0.14158636949E+04  0.16421098069E+04  0.00000000000E+00 0. -1.
<mgrwt>
<rscale>  0 0.43751477E+04</rscale>
<asrwt>0</asrwt>
<pdfrwt beam="1">  1        2 0.24452251E+00 0.43751477E+04</pdfrwt>
<pdfrwt beam="2">  1       -2 0.46321210E+00 0.43751477E+04</pdfrwt>
<totfact> 0.24612698E-02</totfact>
</mgrwt>
</event>
<event>
 6    1  0.2165686E-005  0.3912452E+04  0.7818608E-02  0.8022444E-01
         -1   -1    0    0    0  501 -0.00000000000E+00  0.00000000000E+00  0.16421042707E+04  0.16421042707E+04  0.00000000000E+00 0.  1.
          1   -1    0    0  501    0  0.00000000000E+00 -0.00000000000E+00 -0.23304365499E+04  0.23304365499E+04  0.00000000000E+00 0. -1.
         23    2    1    2    0    0 -0.12643212791E+04  0.13796969748E+04 -0.92056967882E+03  0.20868032331E+04  0.72299107757E+02 0.  0.
         13    1    3    3    0    0 -0.86048367336E+03  0.89452828443E+03 -0.59203630360E+03  0.13751799841E+04  0.00000000000E+00 0. -1.
        -13    1    3    3    0    0 -0.40383760577E+03  0.48516869035E+03 -0.32853337522E+03  0.71162324903E+03  0.00000000000E+00 0.  1.
         22    1    1    2    0    0  0.12643212791E+04 -0.13796969748E+04  0.23223739956E+03  0.18857375875E+04  0.00000000000E+00 0. -1.
<mgrwt>
<rscale>  0 0.39124518E+04</rscale>
<asrwt>0</asrwt>
<pdfrwt beam="1">  1        1 0.35852870E+00 0.39124518E+04</pdfrwt>
<pdfrwt beam="2">  1       -1 0.25263143E+00 0.39124518E+04</pdfrwt>
<totfact> 0.93704913E-02</totfact>
</mgrwt>
</event>
<event>
 6    1  0.2047711E-005  0.4236373E+04  0.7818608E-02  0.7958489E-01
          2   -1    0    0  501    0  0.00000000000E+00  0.00000000000E+00  0.25736602873E+04  0.25736602873E+04  0.00000000000E+00 0. -1.
         -2   -1    0    0    0  501 -0.00000000000E+00 -0.00000000000E+00 -0.17433200594E+04  0.17433200594E+04  0.00000000000E+00 0.  1.
         23    2    1    2    0    0  0.18865329778E+04 -0.29911226990E+03 -0.51553575871E+03  0.19803466574E+04  0.86723345061E+02 0.  0.
         11    1    3    3    0    0  0.72179855003E+03 -0.15694723890E+03 -0.20384973168E+03  0.76627690539E+03  0.00000000000E+00 0.  1.
        -11    1    3    3    0    0  0.11647344278E+04 -0.14216503100E+03 -0.31168602703E+03  0.12140697520E+04  0.00000000000E+00 0. -1.
         22    1    1    2    0    0 -0.18865329778E+04  0.29911226990E+03  0.13458759866E+04  0.23366336893E+04  0.00000000000E+00 0. -1.
<mgrwt>
<rscale>  0 0.42363728E+04</rscale>
<asrwt>0</asrwt>
<pdfrwt beam="1">  1        2 0.39594774E+00 0.42363728E+04</pdfrwt>
<pdfrwt beam="2">  1       -2 0.26820309E+00 0.42363728E+04</pdfrwt>
<totfact> 0.12132118E-01</totfact>
</mgrwt>
</event>
<event>
 6    1  0.2047711E-005  0.1912843E+04  0.7818608E-02  0.8648490E-01
         -1   -1    0    0    0  501 -0.00000000000E+00  0.00000000000E+00  0.84527538665E+03  0.84527538665E+03  0.00000000000E+00 0.  1.
          1   -1    0    0  501    0  0.00000000000E+00 -0.00000000000E+00 -0.10821826529E+04  0.10821826529E+04  0.00000000000E+00 0. -1.
         23    2    1    2    0    0 -0.17539133263E+03  0.74509691847E+03 -0.69283036371E+03  0.10365049498E+04  0.91635476686E+02 0.  0.
         13    1    3    3    0    0 -0.56182625817E+02  0.42818926073E+03 -0.37013698077E+03  0.56877404563E+03  0.00000000000E+00 0. -1.
        -13    1    3    3    0    0 -0.11920870682E+03  0.31690765774E+03 -0.32269338293E+03  0.46773090416E+03  0.00000000000E+00 0.  1.
         22    1    1    2    0    0  0.17539133263E+03 -0.74509691847E+03  0.45592309742E+03  0.89095308980E+03  0.00000000000E+00 0.  1.
<mgrwt>
<rscale>  0 0.19128433E+04</rscale>
<asrwt>0</asrwt>
<pdfrwt beam="1">  1        1 0.16648964E+00 0.19128433E+04</pdfrwt>
<pdfrwt beam="2">  1       -1 0.13004237E+00 0.19128433E+04</pdfrwt>
<totfact> 0.61944535E+00</totfact>
</mgrwt>
</event>
<event>
 6    1  0.2047711E-005  0.3655868E+04  0.7818608E-02  0.8077813E-01
         -2   -1    0    0    0  501 -0.00000000000E+00  0.00000000000E+00  0.17563774886E+04  0.17563774886E+04  0.00000000000E+00 0.  1.
          2   -1    0    0  501    0  0.00000000000E+00 -0.00000000000E+00 -0.19024053103E+04  0.19024053103E+04  0.00000000000E+00 0. -1.
         23    2    1    2    0    0  0.34777034063E+03 -0.17579602025E+04  0.28181501593E+03  0.18163882219E+04  0.92077065405E+02 0.  0.
         11    1    3    3    0    0  0.88305593521E+02 -0.53144778268E+03  0.45489263258E+02  0.54065136329E+03  0.00000000000E+00 0.  1.
        -11    1    3    3    0    0  0.25946474711E+03 -0.12265124199E+04  0.23632575268E+03  0.12757368586E+04  0.00000000000E+00 0. -1.
         22    1    1    2    0    0 -0.34777034063E+03  0.17579602025E+04 -0.42784283760E+03  0.18423945770E+04  0.00000000000E+00 0. -1.
<mgrwt>
<rscale>  0 0.36558675E+04</rscale>
<asrwt>0</asrwt>
<pdfrwt beam="1">  1        2 0.29267774E+00 0.36558675E+04</pdfrwt>
<pdfrwt beam="2">  1       -2 0.27021192E+00 0.36558675E+04</pdfrwt>
<totfact> 0.29680196E-01</totfact>
</mgrwt>
</event>
<event>
 6    1  0.2047711E-005  0.2348506E+04  0.7818608E-02  0.8459038E-01
         -2   -1    0    0    0  501 -0.00000000000E+00  0.00000000000E+00  0.11581536691E+04  0.11581536691E+04  0.00000000000E+00 0.  1.
          2   -1    0    0  501    0  0.00000000000E+00 -0.00000000000E+00 -0.11905756913E+04  0.11905756913E+04  0.00000000000E+00 0. -1.
         23    2    1    2    0    0  0.98235817631E+03 -0.54837888288E+03  0.31356449803E+03  0.11716764058E+04  0.93573071040E+02 0.  0.
         11    1    3    3    0    0  0.17041504556E+03 -0.72857735955E+02  0.22229249058E+02  0.18666461088E+03  0.00000000000E+00 0. -1.
        -11    1    3    3    0    0  0.81194313075E+03 -0.47552114692E+03  0.29133524897E+03  0.98501179488E+03  0.00000000000E+00 0.  1.
         22    1    1    2    0    0 -0.98235817631E+03  0.54837888288E+03 -0.34598652024E+03  0.11770529546E+04  0.00000000000E+00 0. -1.
<mgrwt>
<rscale>  0 0.23485056E+04</rscale>
<asrwt>0</asrwt>
<pdfrwt beam="1">  1        2 0.18316549E+00 0.23485056E+04</pdfrwt>
<pdfrwt beam="2">  1       -2 0.17817749E+00 0.23485056E+04</pdfrwt>
<totfact> 0.32348342E+00</totfact>
</mgrwt>
</event>
<event>
 6    1  0.2047711E-005  0.3294388E+04  0.7818608E-02  0.8164325E-01
          2   -1    0    0  501    0  0.00000000000E+00  0.00000000000E+00  0.11544270209E+04  0.11544270209E+04  0.00000000000E+00 0. -1.
         -2   -1    0    0    0  501 -0.00000000000E+00 -0.00000000000E+00 -0.23502991209E+04  0.23502991209E+04  0.00000000000E+00 0.  1.
         23    2    1    2    0    0 -0.97235581389E+03 -0.11233270235E+04  0.15514139890E+03  0.14965984305E+04  0.91643755998E+02 0.  0.
         13    1    3    3    0    0 -0.59874902213E+03 -0.62426852505E+03  0.80319633698E+02  0.86871331659E+03  0.00000000000E+00 0.  1.
        -13    1    3    3    0    0 -0.37360679176E+03 -0.49905849849E+03  0.74821765200E+02  0.62788511395E+03  0.00000000000E+00 0. -1.
         22    1    1    2    0    0  0.97235581389E+03  0.11233270235E+04 -0.13510134988E+04  0.20081277112E+04  0.00000000000E+00 0. -1.
<mgrwt>
<rscale>  0 0.32943884E+04</rscale>
<asrwt>0</asrwt>
<pdfrwt beam="1">  1        2 0.17760416E+00 0.32943884E+04</pdfrwt>
<pdfrwt beam="2">  1       -2 0.36158448E+00 0.32943884E+04</pdfrwt>
<totfact> 0.22140504E-01</totfact>
</mgrwt>
</event>
<event>
 6    1  0.2047711E-005  0.8252897E+03  0.7818608E-02  0.9524116E-01
          1   -1    0    0  501    0  0.00000000000E+00  0.00000000000E+00  0.15858669378E+04  0.15858669378E+04  0.00000000000E+00 0. -1.
         -1   -1    0    0    0  501 -0.00000000000E+00 -0.00000000000E+00 -0.10737078700E+03  0.10737078700E+03  0.00000000000E+00 0.  1.
         23    2    1    2    0    0  0.13988139136E+03  0.18976233105E+03  0.66316744740E+02  0.26151595685E+03  0.91739517758E+02 0.  0.
         11    1    3    3    0    0  0.62213370154E+02  0.69573682980E+02  0.72650907709E+02  0.11827575906E+03  0.00000000000E+00 0. -1.
        -11    1    3    3    0    0  0.77668021208E+02  0.12018864807E+03 -0.63341629687E+01  0.14324019779E+03  0.00000000000E+00 0.  1.
         22    1    1    2    0    0 -0.13988139136E+03 -0.18976233105E+03  0.14121794060E+04  0.14317217679E+04  0.00000000000E+00 0. -1.
<mgrwt>
<rscale>  0 0.82528972E+03</rscale>
<asrwt>0</asrwt>
<pdfrwt beam="1">  1        1 0.24397951E+00 0.82528972E+03</pdfrwt>
<pdfrwt beam="2">  1       -1 0.16518584E-01 0.82528972E+03</pdfrwt>
<totfact> 0.16269404E+02</totfact>
</mgrwt>
</event>
<event>
 6    1  0.2047711E-005  0.1805051E+04  0.7818608E-02  0.8703618E-01
          1   -1    0    0  501    0  0.00000000000E+00  0.00000000000E+00  0.12577120401E+04  0.12577120401E+04  0.00000000000E+00 0. -1.
         -1   -1    0    0    0  501 -0.00000000000E+00 -0.00000000000E+00 -0.64764632851E+03  0.64764632851E+03  0.00000000000E+00 0.  1.
         23    2    1    2    0    0  0.20426412241E+03  0.34601464179E+03 -0.54452559551E+03  0.68284822532E+03  0.91233823862E+02 0.  0.
         13    1    3    3    0    0  0.25816109473E+02  0.12584163544E+03 -0.16094287465E+03  0.20592522337E+03  0.00000000000E+00 0.  1.
        -13    1    3    3    0    0  0.17844801294E+03  0.22017300635E+03 -0.38358272086E+03  0.47692300195E+03  0.00000000000E+00 0. -1.
         22    1    1    2    0    0 -0.20426412241E+03 -0.34601464179E+03  0.11545913071E+04  0.12225101433E+04  0.00000000000E+00 0. -1.
<mgrwt>
<rscale>  0 0.18050513E+04</rscale>
<asrwt>0</asrwt>
<pdfrwt beam="1">  1        1 0.19349416E+00 0.18050513E+04</pdfrwt>
<pdfrwt beam="2">  1       -1 0.99637897E-01 0.18050513E+04</pdfrwt>
<totfact> 0.87949365E+00</totfact>
</mgrwt>
</event>
<event>
 6    1  0.2047711E-005  0.1546849E+04  0.7818608E-02  0.8853883E-01
         -2   -1    0    0    0  501 -0.00000000000E+00  0.00000000000E+00  0.37653124556E+03  0.37653124556E+03  0.00000000000E+00 0. -1.
          2   -1    0    0  501    0  0.00000000000E+00 -0.00000000000E+00 -0.15886742270E+04  0.15886742270E+04  0.00000000000E+00 0.  1.
         23    2    1    2    0    0 -0.34577583103E+03 -0.62068378340E+03 -0.98770320036E+03  0.12200997756E+04  0.90975634893E+02 0.  0.
         13    1    3    3    0    0 -0.26419229807E+03 -0.38606932338E+03 -0.63566641313E+03  0.78925210269E+03  0.00000000000E+00 0. -1.
        -13    1    3    3    0    0 -0.81583532960E+02 -0.23461446002E+03 -0.35203678723E+03  0.43084767292E+03  0.00000000000E+00 0.  1.
         22    1    1    2    0    0  0.34577583103E+03  0.62068378340E+03 -0.22443978109E+03  0.74510569696E+03  0.00000000000E+00 0. -1.
<mgrwt>
<rscale>  0 0.15468490E+04</rscale>
<asrwt>0</asrwt>
<pdfrwt beam="1">  1        2 0.24441142E+00 0.15468490E+04</pdfrwt>
<pdfrwt beam="2">  1       -2 0.57927884E-01 0.15468490E+04</pdfrwt>
<totfact> 0.30384954E+01</totfact>
</mgrwt>
</event>
<event>
 6    1  0.2047711E-005  0.1054013E+04  0.7818608E-02  0.9251211E-01
          2   -1    0    0  501    0  0.00000000000E+00  0.00000000000E+00  0.15359996169E+04  0.15359996169E+04  0.00000000000E+00 0. -1.
         -2   -1    0    0    0  501 -0.00000000000E+00 -0.00000000000E+00 -0.18081767909E+03  0.18081767909E+03  0.00000000000E+00 0.  1.
         23    2    1    2    0    0 -0.29128216045E+03 -0.45429397209E+02  0.13864624653E+04  0.14203588696E+04  0.90730501252E+02 0.  0.
         11    1    3    3    0    0 -0.26110289236E+03 -0.16990391911E+02  0.10875207818E+04  0.11185548018E+04  0.00000000000E+00 0. -1.
        -11    1    3    3    0    0 -0.30179268097E+02 -0.28439005298E+02  0.29894168350E+03  0.30180406786E+03  0.00000000000E+00 0.  1.
         22    1    1    2    0    0  0.29128216045E+03  0.45429397209E+02 -0.31280527487E+02  0.29645842631E+03  0.00000000000E+00 0.  1.
<mgrwt>
<rscale>  0 0.10540131E+04</rscale>
<asrwt>0</asrwt>
<pdfrwt beam="1">  1        2 0.23630762E+00 0.10540131E+04</pdfrwt>
<pdfrwt beam="2">  1       -2 0.27818106E-01 0.10540131E+04</pdfrwt>
<totfact> 0.14217558E+02</totfact>
</mgrwt>
</event>
<event>
 6    1  0.2047711E-005  0.3257393E+04  0.7818608E-02  0.8173822E-01
          2   -1    0    0  501    0  0.00000000000E+00  0.00000000000E+00  0.35469675497E+04  0.35469675497E+04  0.00000000000E+00 0. -1.
         -2   -1    0    0    0  501 -0.00000000000E+00 -0.00000000000E+00 -0.74786500471E+03  0.74786500471E+03  0.00000000000E+00 0.  1.
         23    2    1    2    0    0 -0.53380087164E+03 -0.50268997271E+03  0.33162457323E+04  0.33975713576E+04  0.91459246910E+02 0.  0.
         11    1    3    3    0    0 -0.20924514441E+03 -0.25457197023E+03  0.15624441298E+04  0.15968162315E+04  0.00000000000E+00 0. -1.
        -11    1    3    3    0    0 -0.32455572723E+03 -0.24811800248E+03  0.17538016024E+04  0.18007551260E+04  0.00000000000E+00 0.  1.
         22    1    1    2    0    0  0.53380087164E+03  0.50268997271E+03 -0.51714318725E+03  0.89726119684E+03  0.00000000000E+00 0.  1.
<mgrwt>
<rscale>  0 0.32573934E+04</rscale>
<asrwt>0</asrwt>
<pdfrwt beam="1">  1        2 0.54568731E+00 0.32573934E+04</pdfrwt>
<pdfrwt beam="2">  1       -2 0.11505616E+00 0.32573934E+04</pdfrwt>
<totfact> 0.37130027E-01</totfact>
</mgrwt>
</event>
<event>
 6    1  0.2047711E-005  0.4314886E+04  0.7818608E-02  0.7943871E-01
         -2   -1    0    0    0  501 -0.00000000000E+00  0.00000000000E+00  0.18739214873E+04  0.18739214873E+04  0.00000000000E+00 0.  1.
          2   -1    0    0  501    0  0.00000000000E+00 -0.00000000000E+00 -0.24838603238E+04  0.24838603238E+04  0.00000000000E+00 0. -1.
         23    2    1    2    0    0  0.64056099549E+03  0.12468465824E+04  0.13499337236E+04  0.19482081475E+04  0.90824769664E+02 0.  0.
         11    1    3    3    0    0  0.52473438577E+03  0.10638235824E+04  0.11769862224E+04  0.16710366117E+04  0.00000000000E+00 0.  1.
        -11    1    3    3    0    0  0.11582660972E+03  0.18302299996E+03  0.17294750125E+03  0.27717153574E+03  0.00000000000E+00 0. -1.
         22    1    1    2    0    0 -0.64056099549E+03 -0.12468465824E+04 -0.19598725600E+04  0.24095736637E+04  0.00000000000E+00 0. -1.
<mgrwt>
<rscale>  0 0.43148855E+04</rscale>
<asrwt>0</asrwt>
<pdfrwt beam="1">  1        2 0.38213236E+00 0.43148855E+04</pdfrwt>
<pdfrwt beam="2">  1       -2 0.28829561E+00 0.43148855E+04</pdfrwt>
<totfact> 0.10252736E-01</totfact>
</mgrwt>
</event>
<event>
 6    1  0.2047711E-005  0.4547642E+04  0.7818608E-02  0.7902349E-01
          2   -1    0    0  501    0  0.00000000000E+00  0.00000000000E+00  0.12159315826E+04  0.12159315826E+04  0.00000000000E+00 0. -1.
         -2   -1    0    0    0  501 -0.00000000000E+00 -0.00000000000E+00 -0.42520994555E+04  0.42520994555E+04  0.00000000000E+00 0.  1.
         23    2    1    2    0    0  0.46610971904E+03  0.22162849017E+04 -0.17498678258E+04  0.28634687241E+04  0.90767232277E+02 0.  0.
         11    1    3    3    0    0  0.19587196648E+03  0.11298448281E+04 -0.86045274661E+03  0.14336296913E+04  0.00000000000E+00 0. -1.
        -11    1    3    3    0    0  0.27023775255E+03  0.10864400737E+04 -0.88941507916E+03  0.14298390328E+04  0.00000000000E+00 0.  1.
         22    1    1    2    0    0 -0.46610971904E+03 -0.22162849017E+04 -0.12863000472E+04  0.26045623140E+04  0.00000000000E+00 0.  1.
<mgrwt>
<rscale>  0 0.45476420E+04</rscale>
<asrwt>0</asrwt>
<pdfrwt beam="1">  1        2 0.18706640E+00 0.45476420E+04</pdfrwt>
<pdfrwt beam="2">  1       -2 0.65416915E+00 0.45476420E+04</pdfrwt>
<totfact> 0.45738423E-03</totfact>
</mgrwt>
</event>
<event>
 6    1  0.2047711E-005  0.8656271E+03  0.7818608E-02  0.9469599E-01
         -2   -1    0    0    0  501 -0.00000000000E+00  0.00000000000E+00  0.63339509651E+03  0.63339509651E+03  0.00000000000E+00 0.  1.
          2   -1    0    0  501    0  0.00000000000E+00 -0.00000000000E+00 -0.29575156244E+03  0.29575156244E+03  0.00000000000E+00 0. -1.
         23    2    1    2    0    0  0.42759301259E+03 -0.21417113172E+02  0.16896008759E+03  0.46898518483E+03  0.90028413498E+02 0.  0.
         11    1    3    3    0    0  0.38062131044E+03 -0.33010457139E+01  0.17374408411E+03  0.41841425123E+03  0.00000000000E+00 0.  1.
        -11    1    3    3    0    0  0.46971702148E+02 -0.18116067458E+02 -0.47839965174E+01  0.50570933603E+02  0.00000000000E+00 0. -1.
         22    1    1    2    0    0 -0.42759301259E+03  0.21417113172E+02  0.16868344648E+03  0.46016147413E+03  0.00000000000E+00 0.  1.
<mgrwt>
<rscale>  0 0.86562715E+03</rscale>
<asrwt>0</asrwt>
<pdfrwt beam="1">  1        2 0.45500241E-01 0.86562715E+03</pdfrwt>
<pdfrwt beam="2">  1       -2 0.97445399E-01 0.86562715E+03</pdfrwt>
<totfact> 0.98426549E+01</totfact>
</mgrwt>
</event>
<event>
 6    1  0.2047711E-005  0.3148114E+04  0.7818608E-02  0.8202656E-01
          2   -1    0    0  501    0  0.00000000000E+00  0.00000000000E+00  0.12924078094E+04  0.12924078094E+04  0.00000000000E+00 0. -1.
         -2   -1    0    0    0  501 -0.00000000000E+00 -0.00000000000E+00 -0.19170848296E+04  0.19170848296E+04  0.00000000000E+00 0.  1.
         23    2    1    2    0    0  0.13050545144E+04  0.54574968703E+03  0.38782508765E+03  0.14699034562E+04  0.95905503125E+02 0.  0.
         11    1    3    3    0    0  0.10588129248E+04  0.40408364123E+03  0.32457332371E+03  0.11788622656E+04  0.00000000000E+00 0. -1.
        -11    1    3    3    0    0  0.24624158957E+03  0.14166604580E+03  0.63251763936E+02  0.29104119056E+03  0.00000000000E+00 0.  1.
         22    1    1    2    0    0 -0.13050545144E+04 -0.54574968703E+03 -0.10125021079E+04  0.17395891828E+04  0.00000000000E+00 0.  1.
<mgrwt>
<rscale>  0 0.31481140E+04</rscale>
<asrwt>0</asrwt>
<pdfrwt beam="1">  1        2 0.19883197E+00 0.31481140E+04</pdfrwt>
<pdfrwt beam="2">  1       -2 0.29493613E+00 0.31481140E+04</pdfrwt>
<totfact> 0.48205447E-01</totfact>
</mgrwt>
</event>
<event>
 6    1  0.2047711E-005  0.8801356E+03  0.7818608E-02  0.9450759E-01
         -2   -1    0    0    0  501 -0.00000000000E+00  0.00000000000E+00  0.40731617517E+03  0.40731617517E+03  0.00000000000E+00 0.  1.
          2   -1    0    0  501    0  0.00000000000E+00 -0.00000000000E+00 -0.47545298212E+03  0.47545298212E+03  0.00000000000E+00 0. -1.
         23    2    1    2    0    0 -0.53747850638E+01  0.24865337485E+03  0.32416615493E+03  0.41827049955E+03  0.89493718479E+02 0.  0.
         11    1    3    3    0    0 -0.11466332226E+02  0.12787440074E+03  0.96966692692E+02  0.16089089045E+03  0.00000000000E+00 0.  1.
        -11    1    3    3    0    0  0.60915471624E+01  0.12077897411E+03  0.22719946224E+03  0.25737960910E+03  0.00000000000E+00 0. -1.
         22    1    1    2    0    0  0.53747850638E+01 -0.24865337485E+03 -0.39230296188E+03  0.46449865774E+03  0.00000000000E+00 0. -1.
<mgrwt>
<rscale>  0 0.88013565E+03</rscale>
<asrwt>0</asrwt>
<pdfrwt beam="1">  1        2 0.73146612E-01 0.88013565E+03</pdfrwt>
<pdfrwt beam="2">  1       -2 0.62664027E-01 0.88013565E+03</pdfrwt>
<totfact> 0.15489954E+02</totfact>
</mgrwt>
</event>
<event>
 6    1  0.2047711E-005  0.1856699E+04  0.7818608E-02  0.8676715E-01
          2   -1    0    0  501    0  0.00000000000E+00  0.00000000000E+00  0.87982971249E+03  0.87982971249E+03  0.00000000000E+00 0. -1.
         -2   -1    0    0    0  501 -0.00000000000E+00 -0.00000000000E+00 -0.97954550269E+03  0.97954550269E+03  0.00000000000E+00 0.  1.
         23    2    1    2    0    0 -0.23434362209E+03  0.73886236668E+03  0.45784075501E+03  0.90454338118E+03  0.88011598009E+02 0.  0.
         13    1    3    3    0    0 -0.88481451060E+02  0.42174086427E+03  0.26129427103E+03  0.50395339055E+03  0.00000000000E+00 0.  1.
        -13    1    3    3    0    0 -0.14586217103E+03  0.31712150241E+03  0.19654648398E+03  0.40058999063E+03  0.00000000000E+00 0. -1.
         22    1    1    2    0    0  0.23434362209E+03 -0.73886236668E+03 -0.55755654521E+03  0.95483183399E+03  0.00000000000E+00 0.  1.
<mgrwt>
<rscale>  0 0.18566995E+04</rscale>
<asrwt>0</asrwt>
<pdfrwt beam="1">  1        2 0.13535842E+00 0.18566995E+04</pdfrwt>
<pdfrwt beam="2">  1       -2 0.15069931E+00 0.18566995E+04</pdfrwt>
<totfact> 0.84151839E+00</totfact>
</mgrwt>
</event>
<event>
 6    1  0.2047711E-005  0.1755101E+04  0.7818608E-02  0.8730548E-01
          2   -1    0    0  501    0  0.00000000000E+00  0.00000000000E+00  0.78053399267E+03  0.78053399267E+03  0.00000000000E+00 0. -1.
         -2   -1    0    0    0  501 -0.00000000000E+00 -0.00000000000E+00 -0.98662548615E+03  0.98662548615E+03  0.00000000000E+00 0.  1.
         23    2    1    2    0    0  0.29458178877E+03  0.41327043984E+03  0.61454353797E+03  0.80226946355E+03  0.91660489666E+02 0.  0.
         11    1    3    3    0    0  0.19144706656E+03  0.19724515911E+03  0.29820900831E+03  0.40556903817E+03  0.00000000000E+00 0. -1.
        -11    1    3    3    0    0  0.10313472220E+03  0.21602528072E+03  0.31633452967E+03  0.39670042538E+03  0.00000000000E+00 0.  1.
         22    1    1    2    0    0 -0.29458178877E+03 -0.41327043984E+03 -0.82063503145E+03  0.96489001527E+03  0.00000000000E+00 0.  1.
<mgrwt>
<rscale>  0 0.17551008E+04</rscale>
<asrwt>0</asrwt>
<pdfrwt beam="1">  1        2 0.12008215E+00 0.17551008E+04</pdfrwt>
<pdfrwt beam="2">  1       -2 0.15178854E+00 0.17551008E+04</pdfrwt>
<totfact> 0.97853444E+00</totfact>
</mgrwt>
</event>
<event>
 6    1  0.2047711E-005  0.1448897E+04  0.7818608E-02  0.8919165E-01
          2   -1    0    0  501    0  0.00000000000E+00  0.00000000000E+00  0.29229657636E+04  0.29229657636E+04  0.00000000000E+00 0. -1.
         -2   -1    0    0    0  501 -0.00000000000E+00 -0.00000000000E+00 -0.17955247666E+03  0.17955247666E+03  0.00000000000E+00 0.  1.
         23    2    1    2    0    0  0.22459331947E+02  0.11774960470E+03  0.29008091504E+04  0.29046727226E+04  0.89780327644E+02 0.  0.
         13    1    3    3    0    0  0.22063485969E+02  0.97266623883E+02  0.13316495238E+04  0.13353793647E+04  0.00000000000E+00 0. -1.
        -13    1    3    3    0    0  0.39584597812E+00  0.20482980813E+02  0.15691596267E+04  0.15692933579E+04  0.00000000000E+00 0.  1.
         22    1    1    2    0    0 -0.22459331947E+02 -0.11774960470E+03 -0.15739586351E+03  0.19784551764E+03  0.00000000000E+00 0.  1.
<mgrwt>
<rscale>  0 0.14488972E+04</rscale>
<asrwt>0</asrwt>
<pdfrwt beam="1">  1        2 0.44968701E+00 0.14488972E+04</pdfrwt>
<pdfrwt beam="2">  1       -2 0.27623460E-01 0.14488972E+04</pdfrwt>
<totfact> 0.22705998E+01</totfact>
</mgrwt>
</event>
<event>
 6    1  0.2047711E-005  0.2254883E+04  0.7818608E-02  0.8495925E-01
          2   -1    0    0  501    0  0.00000000000E+00  0.00000000000E+00  0.11185030267E+04  0.11185030267E+04  0.00000000000E+00 0.  1.
         -2   -1    0    0    0  501 -0.00000000000E+00 -0.00000000000E+00 -0.11364516360E+04  0.11364516360E+04  0.00000000000E+00 0. -1.
         23    2    1    2    0    0  0.65324782222E+03 -0.69015706172E+03 -0.61226235088E+03  0.11341253668E+04  0.91245132741E+02 0.  0.
         13    1    3    3    0    0  0.63461256949E+03 -0.65675738237E+03 -0.56742044328E+03  0.10751880450E+04  0.00000000000E+00 0. -1.
        -13    1    3    3    0    0  0.18635252733E+02 -0.33399679351E+02 -0.44841907594E+02  0.58937321807E+02  0.00000000000E+00 0.  1.
         22    1    1    2    0    0 -0.65324782222E+03  0.69015706172E+03  0.59431374153E+03  0.11208292959E+04  0.00000000000E+00 0.  1.
<mgrwt>
<rscale>  0 0.22548832E+04</rscale>
<asrwt>0</asrwt>
<pdfrwt beam="1">  1        2 0.17207739E+00 0.22548832E+04</pdfrwt>
<pdfrwt beam="2">  1       -2 0.17483871E+00 0.22548832E+04</pdfrwt>
<totfact> 0.38038785E+00</totfact>
</mgrwt>
</event>
<event>
 6    1  0.2047711E-005  0.1978031E+04  0.7818608E-02  0.8616961E-01
         -2   -1    0    0    0  501 -0.00000000000E+00  0.00000000000E+00  0.29949069321E+03  0.29949069321E+03  0.00000000000E+00 0.  1.
          2   -1    0    0  501    0  0.00000000000E+00 -0.00000000000E+00 -0.32660499497E+04  0.32660499497E+04  0.00000000000E+00 0. -1.
         23    2    1    2    0    0  0.59041281141E+03 -0.51958601930E+03 -0.25609522344E+04  0.26806259715E+04  0.93393430102E+02 0.  0.
         11    1    3    3    0    0  0.43650390504E+03 -0.38946992205E+03 -0.17585239661E+04  0.18532752140E+04  0.00000000000E+00 0. -1.
        -11    1    3    3    0    0  0.15390890637E+03 -0.13011609725E+03 -0.80242826829E+03  0.82735075752E+03  0.00000000000E+00 0.  1.
         22    1    1    2    0    0 -0.59041281141E+03  0.51958601930E+03 -0.40560702209E+03  0.88491467143E+03  0.00000000000E+00 0.  1.
<mgrwt>
<rscale>  0 0.19780309E+04</rscale>
<asrwt>0</asrwt>
<pdfrwt beam="1">  1        2 0.50246921E+00 0.19780309E+04</pdfrwt>
<pdfrwt beam="2">  1       -2 0.46075492E-01 0.19780309E+04</pdfrwt>
<totfact> 0.48974594E+00</totfact>
</mgrwt>
</event>
<event>
 6    1  0.2047711E-005  0.2664903E+04  0.7818608E-02  0.8346483E-01
          2   -1    0    0  501    0  0.00000000000E+00  0.00000000000E+00  0.14931507665E+04  0.14931507665E+04  0.00000000000E+00 0.  1.
         -2   -1    0    0    0  501 -0.00000000000E+00 -0.00000000000E+00 -0.11890472530E+04  0.11890472530E+04  0.00000000000E+00 0. -1.
         23    2    1    2    0    0  0.45864907686E+03  0.12407354754E+03 -0.10990407637E+04  0.12007908900E+04  0.90856702048E+02 0.  0.
         11    1    3    3    0    0  0.11499495704E+03  0.72593255459E+02 -0.32723222964E+03  0.35436499968E+03  0.00000000000E+00 0.  1.
        -11    1    3    3    0    0  0.34365411982E+03  0.51480292084E+02 -0.77180853406E+03  0.84642589031E+03  0.00000000000E+00 0. -1.
         22    1    1    2    0    0 -0.45864907686E+03 -0.12407354754E+03  0.14031442771E+04  0.14814071295E+04  0.00000000000E+00 0.  1.
<mgrwt>
<rscale>  0 0.26649029E+04</rscale>
<asrwt>0</asrwt>
<pdfrwt beam="1">  1        2 0.22971550E+00 0.26649029E+04</pdfrwt>
<pdfrwt beam="2">  1       -2 0.18293035E+00 0.26649029E+04</pdfrwt>
<totfact> 0.19508090E+00</totfact>
</mgrwt>
</event>
<event>
 6    1  0.2047711E-005  0.2785302E+04  0.7818608E-02  0.8307846E-01
          2   -1    0    0  501    0  0.00000000000E+00  0.00000000000E+00  0.16808078817E+04  0.16808078817E+04  0.00000000000E+00 0. -1.
         -2   -1    0    0    0  501 -0.00000000000E+00 -0.00000000000E+00 -0.11538959409E+04  0.11538959409E+04  0.00000000000E+00 0.  1.
         23    2    1    2    0    0 -0.10577629046E+04 -0.58896482048E+03 -0.43322585233E+03  0.12895156451E+04  0.97077483412E+02 0.  0.
         11    1    3    3    0    0 -0.51099223361E+03 -0.32338897430E+03 -0.25287782302E+03  0.65546981996E+03  0.00000000000E+00 0.  1.
        -11    1    3    3    0    0 -0.54677067098E+03 -0.26557584619E+03 -0.18034802931E+03  0.63404582516E+03  0.00000000000E+00 0. -1.
         22    1    1    2    0    0  0.10577629046E+04  0.58896482048E+03  0.96013779314E+03  0.15451881775E+04  0.00000000000E+00 0.  1.
<mgrwt>
<rscale>  0 0.27853024E+04</rscale>
<asrwt>0</asrwt>
<pdfrwt beam="1">  1        2 0.25858583E+00 0.27853024E+04</pdfrwt>
<pdfrwt beam="2">  1       -2 0.17752245E+00 0.27853024E+04</pdfrwt>
<totfact> 0.16522321E+00</totfact>
</mgrwt>
</event>
<event>
 6    1  0.2047711E-005  0.2899708E+04  0.7818608E-02  0.8272964E-01
         -2   -1    0    0    0  501 -0.00000000000E+00  0.00000000000E+00  0.97483533630E+03  0.97483533630E+03  0.00000000000E+00 0.  1.
          2   -1    0    0  501    0  0.00000000000E+00 -0.00000000000E+00 -0.21563403696E+04  0.21563403696E+04  0.00000000000E+00 0. -1.
         23    2    1    2    0    0  0.34166758378E+03  0.13617884914E+04 -0.97585645695E+03  0.17121986201E+04  0.90131331192E+02 0.  0.
         13    1    3    3    0    0  0.21917995970E+03  0.70786288080E+03 -0.48988371827E+03  0.88831062708E+03  0.00000000000E+00 0. -1.
        -13    1    3    3    0    0  0.12248762408E+03  0.65392561061E+03 -0.48597273868E+03  0.82388799300E+03  0.00000000000E+00 0.  1.
         22    1    1    2    0    0 -0.34166758378E+03 -0.13617884914E+04 -0.20564857636E+03  0.14189770858E+04  0.00000000000E+00 0. -1.
<mgrwt>
<rscale>  0 0.28997081E+04</rscale>
<asrwt>0</asrwt>
<pdfrwt beam="1">  1        2 0.33174467E+00 0.28997081E+04</pdfrwt>
<pdfrwt beam="2">  1       -2 0.14997467E+00 0.28997081E+04</pdfrwt>
<totfact> 0.14135932E+00</totfact>
</mgrwt>
</event>
<event>
 6    1  0.2047711E-005  0.3621985E+04  0.7818608E-02  0.8085474E-01
          2   -1    0    0  501    0  0.00000000000E+00  0.00000000000E+00  0.10092527562E+04  0.10092527562E+04  0.00000000000E+00 0. -1.
         -2   -1    0    0    0  501 -0.00000000000E+00 -0.00000000000E+00 -0.32496261053E+04  0.32496261053E+04  0.00000000000E+00 0.  1.
         23    2    1    2    0    0 -0.93469054769E+03 -0.91152196328E+03 -0.25947900284E+04  0.29060559271E+04  0.87789807222E+02 0.  0.
         11    1    3    3    0    0 -0.64538638330E+03 -0.67642834811E+03 -0.19007751028E+04  0.21182598720E+04  0.00000000000E+00 0. -1.
        -11    1    3    3    0    0 -0.28930416439E+03 -0.23509361516E+03 -0.69401492561E+03  0.78779605508E+03  0.00000000000E+00 0.  1.
         22    1    1    2    0    0  0.93469054769E+03  0.91152196328E+03  0.35441667932E+03  0.13528229345E+04  0.00000000000E+00 0. -1.
<mgrwt>
<rscale>  0 0.36219851E+04</rscale>
<asrwt>0</asrwt>
<pdfrwt beam="1">  1        2 0.15526965E+00 0.36219851E+04</pdfrwt>
<pdfrwt beam="2">  1       -2 0.49994249E+00 0.36219851E+04</pdfrwt>
<totfact> 0.33346538E-02</totfact>
</mgrwt>
</event>
<event>
 6    1  0.2047711E-005  0.1084763E+04  0.7818608E-02  0.9220171E-01
          2   -1    0    0  501    0  0.00000000000E+00  0.00000000000E+00  0.51529405408E+03  0.51529405408E+03  0.00000000000E+00 0. -1.
         -2   -1    0    0    0  501 -0.00000000000E+00 -0.00000000000E+00 -0.57089319511E+03  0.57089319511E+03  0.00000000000E+00 0.  1.
         23    2    1    2    0    0  0.37804724463E+03 -0.38174896043E+03  0.10352132725E+02  0.54489106550E+03  0.90261390698E+02 0.  0.
         11    1    3    3    0    0  0.74471387323E+02 -0.59425319830E+02 -0.30991023308E+02  0.10018882020E+03  0.00000000000E+00 0. -1.
        -11    1    3    3    0    0  0.30357585730E+03 -0.32232364060E+03  0.41343156033E+02  0.44470224531E+03  0.00000000000E+00 0.  1.
         22    1    1    2    0    0 -0.37804724463E+03  0.38174896043E+03 -0.65951273750E+02  0.54129618368E+03  0.00000000000E+00 0. -1.
<mgrwt>
<rscale>  0 0.10847633E+04</rscale>
<asrwt>0</asrwt>
<pdfrwt beam="1">  1        2 0.79276008E-01 0.10847633E+04</pdfrwt>
<pdfrwt beam="2">  1       -2 0.87829722E-01 0.10847633E+04</pdfrwt>
<totfact> 0.66080704E+01</totfact>
</mgrwt>
</event>
<event>
 6    1  0.2047711E-005  0.4086629E+04  0.7818608E-02  0.7987295E-01
         -2   -1    0    0    0  501 -0.00000000000E+00  0.00000000000E+00  0.18550437135E+04  0.18550437135E+04  0.00000000000E+00 0. -1.
          2   -1    0    0  501    0  0.00000000000E+00 -0.00000000000E+00 -0.22506936310E+04  0.22506936310E+04  0.00000000000E+00 0.  1.
         23    2    1    2    0    0 -0.52990023621E+03 -0.19189236421E+04 -0.65605660562E+03  0.20980337191E+04  0.90956101209E+02 0.  0.
         11    1    3    3    0    0 -0.32652362629E+03 -0.10977673206E+04 -0.41822080769E+03  0.12192700327E+04  0.00000000000E+00 0.  1.
        -11    1    3    3    0    0 -0.20337660992E+03 -0.82115632150E+03 -0.23783579792E+03  0.87876368642E+03  0.00000000000E+00 0. -1.
         22    1    1    2    0    0  0.52990023621E+03  0.19189236421E+04  0.26040668814E+03  0.20077036254E+04  0.00000000000E+00 0.  1.
<mgrwt>
<rscale>  0 0.40866295E+04</rscale>
<asrwt>0</asrwt>
<pdfrwt beam="1">  1        2 0.34626056E+00 0.40866295E+04</pdfrwt>
<pdfrwt beam="2">  1       -2 0.28539134E+00 0.40866295E+04</pdfrwt>
<totfact> 0.14787390E-01</totfact>
</mgrwt>
</event>
<event>
 6    1  0.2047711E-005  0.1807763E+04  0.7818608E-02  0.8702182E-01
         -2   -1    0    0    0  501 -0.00000000000E+00  0.00000000000E+00  0.47256401792E+03  0.47256401792E+03  0.00000000000E+00 0.  1.
          2   -1    0    0  501    0  0.00000000000E+00 -0.00000000000E+00 -0.17288705179E+04  0.17288705179E+04  0.00000000000E+00 0. -1.
         23    2    1    2    0    0  0.75673617961E+03 -0.26685194612E+02 -0.12242267526E+04  0.14435487559E+04  0.10835185174E+03 0.  0.
         13    1    3    3    0    0  0.47346649003E+03 -0.62406629298E+02 -0.71693302794E+03  0.86142792566E+03  0.00000000000E+00 0. -1.
        -13    1    3    3    0    0  0.28326968958E+03  0.35721434687E+02 -0.50729372468E+03  0.58212083026E+03  0.00000000000E+00 0.  1.
         22    1    1    2    0    0 -0.75673617961E+03  0.26685194612E+02 -0.32079747354E+02  0.75788577987E+03  0.00000000000E+00 0.  1.
<mgrwt>
<rscale>  0 0.18077633E+04</rscale>
<asrwt>0</asrwt>
<pdfrwt beam="1">  1        2 0.26598008E+00 0.18077633E+04</pdfrwt>
<pdfrwt beam="2">  1       -2 0.72702157E-01 0.18077633E+04</pdfrwt>
<totfact> 0.15251222E+01</totfact>
</mgrwt>
</event>
<event>
 6    1  0.2047711E-005  0.2053029E+04  0.7818608E-02  0.8582221E-01
         -2   -1    0    0    0  501 -0.00000000000E+00  0.00000000000E+00  0.10876838176E+04  0.10876838176E+04  0.00000000000E+00 0.  1.
          2   -1    0    0  501    0  0.00000000000E+00 -0.00000000000E+00 -0.96878519692E+03  0.96878519692E+03  0.00000000000E+00 0. -1.
         23    2    1    2    0    0 -0.84986631721E+03  0.56841104345E+03  0.12452612307E+03  0.10340231527E+04  0.91286656160E+02 0.  0.
         11    1    3    3    0    0 -0.16135540489E+02  0.24673195584E+02  0.13685559767E+02  0.32502565950E+02  0.00000000000E+00 0.  1.
        -11    1    3    3    0    0 -0.83373077672E+03  0.54373784787E+03  0.11084056330E+03  0.10015205868E+04  0.00000000000E+00 0. -1.
         22    1    1    2    0    0  0.84986631721E+03 -0.56841104345E+03 -0.56275024221E+01  0.10224458618E+04  0.00000000000E+00 0.  1.
<mgrwt>
<rscale>  0 0.20530290E+04</rscale>
<asrwt>0</asrwt>
<pdfrwt beam="1">  1        2 0.14904388E+00 0.20530290E+04</pdfrwt>
<pdfrwt beam="2">  1       -2 0.16733597E+00 0.20530290E+04</pdfrwt>
<totfact> 0.54354582E+00</totfact>
</mgrwt>
</event>
<event>
 6    1  0.2047711E-005  0.1659786E+04  0.7818608E-02  0.8784638E-01
          2   -1    0    0  501    0  0.00000000000E+00  0.00000000000E+00  0.97163778136E+03  0.97163778136E+03  0.00000000000E+00 0. -1.
         -2   -1    0    0    0  501 -0.00000000000E+00 -0.00000000000E+00 -0.70882658466E+03  0.70882658466E+03  0.00000000000E+00 0.  1.
         23    2    1    2    0    0  0.81104410741E+03 -0.14745179780E+03  0.20034324889E+03  0.85376198830E+03  0.96112113893E+02 0.  0.
         11    1    3    3    0    0  0.34155001221E+03 -0.85480700369E+02  0.42791601904E+02  0.35467517839E+03  0.00000000000E+00 0. -1.
        -11    1    3    3    0    0  0.46949409521E+03 -0.61971097427E+02  0.15755164699E+03  0.49908680990E+03  0.00000000000E+00 0.  1.
         22    1    1    2    0    0 -0.81104410741E+03  0.14745179780E+03  0.62467947811E+02  0.82670237773E+03  0.00000000000E+00 0.  1.
<mgrwt>
<rscale>  0 0.16597864E+04</rscale>
<asrwt>0</asrwt>
<pdfrwt beam="1">  1        2 0.14948274E+00 0.16597864E+04</pdfrwt>
<pdfrwt beam="2">  1       -2 0.10905024E+00 0.16597864E+04</pdfrwt>
<totfact> 0.16831605E+01</totfact>
</mgrwt>
</event>
<event>
 6    1  0.2047711E-005  0.2216652E+04  0.7818608E-02  0.8511529E-01
         -1   -1    0    0    0  501 -0.00000000000E+00  0.00000000000E+00  0.12379452009E+04  0.12379452009E+04  0.00000000000E+00 0.  1.
          1   -1    0    0  501    0  0.00000000000E+00 -0.00000000000E+00 -0.99227886542E+03  0.99227886542E+03  0.00000000000E+00 0. -1.
         23    2    1    2    0    0 -0.23977288541E+03 -0.87944637282E+03 -0.50822318372E+03  0.10473181671E+04  0.87564715954E+02 0.  0.
         13    1    3    3    0    0 -0.22927062016E+02 -0.19551780645E+03 -0.86024644705E+02  0.21483273099E+03  0.00000000000E+00 0. -1.
        -13    1    3    3    0    0 -0.21684582339E+03 -0.68392856637E+03 -0.42219853902E+03  0.83248543613E+03  0.00000000000E+00 0.  1.
         22    1    1    2    0    0  0.23977288541E+03  0.87944637282E+03  0.75388951923E+03  0.11829058992E+04  0.00000000000E+00 0.  1.
<mgrwt>
<rscale>  0 0.22166523E+04</rscale>
<asrwt>0</asrwt>
<pdfrwt beam="1">  1        1 0.15265829E+00 0.22166523E+04</pdfrwt>
<pdfrwt beam="2">  1       -1 0.19045311E+00 0.22166523E+04</pdfrwt>
<totfact> 0.24502015E+00</totfact>
</mgrwt>
</event>
<event>
 6    1  0.2047711E-005  0.1843006E+04  0.7818608E-02  0.8683758E-01
         -2   -1    0    0    0  501 -0.00000000000E+00  0.00000000000E+00  0.66450800557E+03  0.66450800557E+03  0.00000000000E+00 0.  1.
          2   -1    0    0  501    0  0.00000000000E+00 -0.00000000000E+00 -0.12778894330E+04  0.12778894330E+04  0.00000000000E+00 0. -1.
         23    2    1    2    0    0 -0.50217085164E+03  0.20009633018E+03 -0.10916313261E+04  0.12206377339E+04  0.77996280007E+02 0.  0.
         11    1    3    3    0    0 -0.35659707628E+03  0.11526872395E+03 -0.69254262094E+03  0.78744119486E+03  0.00000000000E+00 0. -1.
        -11    1    3    3    0    0 -0.14557377536E+03  0.84827606225E+02 -0.39908870518E+03  0.43319653906E+03  0.00000000000E+00 0.  1.
         22    1    1    2    0    0  0.50217085164E+03 -0.20009633018E+03  0.47824989873E+03  0.72175970462E+03  0.00000000000E+00 0.  1.
<mgrwt>
<rscale>  0 0.18430060E+04</rscale>
<asrwt>0</asrwt>
<pdfrwt beam="1">  1        2 0.19659837E+00 0.18430060E+04</pdfrwt>
<pdfrwt beam="2">  1       -2 0.10223200E+00 0.18430060E+04</pdfrwt>
<totfact> 0.12559548E+01</totfact>
</mgrwt>
</event>
<event>
 6    1  0.2047711E-005  0.1896171E+04  0.7818608E-02  0.8656765E-01
         -2   -1    0    0    0  501 -0.00000000000E+00  0.00000000000E+00  0.68697608225E+03  0.68697608225E+03  0.00000000000E+00 0.  1.
          2   -1    0    0  501    0  0.00000000000E+00 -0.00000000000E+00 -0.13084384652E+04  0.13084384652E+04  0.00000000000E+00 0. -1.
         23    2    1    2    0    0  0.48870856084E+03  0.65813110856E+03 -0.80868893008E+03  0.11545659323E+04  0.84095737114E+02 0.  0.
         11    1    3    3    0    0  0.18401930034E+03  0.31017196115E+03 -0.38095658486E+03  0.52459285921E+03  0.00000000000E+00 0. -1.
        -11    1    3    3    0    0  0.30468926050E+03  0.34795914741E+03 -0.42773234522E+03  0.62997307314E+03  0.00000000000E+00 0.  1.
         22    1    1    2    0    0 -0.48870856084E+03 -0.65813110856E+03  0.18722654716E+03  0.84084861507E+03  0.00000000000E+00 0. -1.
<mgrwt>
<rscale>  0 0.18961708E+04</rscale>
<asrwt>0</asrwt>
<pdfrwt beam="1">  1        2 0.20129822E+00 0.18961708E+04</pdfrwt>
<pdfrwt beam="2">  1       -2 0.10568863E+00 0.18961708E+04</pdfrwt>
<totfact> 0.11082623E+01</totfact>
</mgrwt>
</event>
<event>
 6    1  0.2047711E-005  0.1459727E+04  0.7818608E-02  0.8911684E-01
         -2   -1    0    0    0  501 -0.00000000000E+00  0.00000000000E+00  0.57996018895E+03  0.57996018895E+03  0.00000000000E+00 0. -1.
          2   -1    0    0  501    0  0.00000000000E+00 -0.00000000000E+00 -0.91851310827E+03  0.91851310827E+03  0.00000000000E+00 0.  1.
         23    2    1    2    0    0 -0.21329701781E+03 -0.18790849927E+03 -0.85683371015E+03  0.90735554241E+03  0.91240624649E+02 0.  0.
         11    1    3    3    0    0 -0.10216289481E+03 -0.12440254839E+03 -0.36096312484E+03  0.39523110785E+03  0.00000000000E+00 0. -1.
        -11    1    3    3    0    0 -0.11113412300E+03 -0.63505950880E+02 -0.49587058531E+03  0.51212443456E+03  0.00000000000E+00 0.  1.
         22    1    1    2    0    0  0.21329701781E+03  0.18790849927E+03  0.51828079084E+03  0.59111775481E+03  0.00000000000E+00 0. -1.
<mgrwt>
<rscale>  0 0.14597274E+04</rscale>
<asrwt>0</asrwt>
<pdfrwt beam="1">  1        2 0.14130971E+00 0.14597274E+04</pdfrwt>
<pdfrwt beam="2">  1       -2 0.89224645E-01 0.14597274E+04</pdfrwt>
<totfact> 0.29775280E+01</totfact>
</mgrwt>
</event>
<event>
 6    1  0.2047711E-005  0.2943444E+04  0.7818608E-02  0.8260068E-01
         -2   -1    0    0    0  501 -0.00000000000E+00  0.00000000000E+00  0.19105790145E+04  0.19105790145E+04  0.00000000000E+00 0.  1.
          2   -1    0    0  501    0  0.00000000000E+00 -0.00000000000E+00 -0.11336696070E+04  0.11336696070E+04  0.00000000000E+00 0. -1.
         23    2    1    2    0    0  0.10407983746E+04  0.73925849226E+03  0.11431786162E+04  0.17161230597E+04  0.91959951323E+02 0.  0.
         11    1    3    3    0    0  0.76418714962E+03  0.50873758614E+03  0.77928418459E+03  0.12041925808E+04  0.00000000000E+00 0. -1.
        -11    1    3    3    0    0  0.27661122495E+03  0.23052090613E+03  0.36389443158E+03  0.51193047894E+03  0.00000000000E+00 0.  1.
         22    1    1    2    0    0 -0.10407983746E+04 -0.73925849226E+03 -0.36626920865E+03  0.13281255619E+04  0.00000000000E+00 0. -1.
<mgrwt>
<rscale>  0 0.29434438E+04</rscale>
<asrwt>0</asrwt>
<pdfrwt beam="1">  1        2 0.17441071E+00 0.29434438E+04</pdfrwt>
<pdfrwt beam="2">  1       -2 0.29393523E+00 0.29434438E+04</pdfrwt>
<totfact> 0.61841304E-01</totfact>
</mgrwt>
</event>
<event>
 6    1  0.2047711E-005  0.2687546E+04  0.7818608E-02  0.8339057E-01
         -2   -1    0    0    0  501 -0.00000000000E+00  0.00000000000E+00  0.59599114681E+03  0.59599114681E+03  0.00000000000E+00 0.  1.
          2   -1    0    0  501    0  0.00000000000E+00 -0.00000000000E+00 -0.30297868239E+04  0.30297868239E+04  0.00000000000E+00 0. -1.
         23    2    1    2    0    0 -0.13160908600E+04  0.14690417726E+03 -0.92453299240E+03  0.16179060026E+04  0.95825832323E+02 0.  0.
         11    1    3    3    0    0 -0.76998951681E+03  0.13108549471E+03 -0.52626522359E+03  0.94181863885E+03  0.00000000000E+00 0. -1.
        -11    1    3    3    0    0 -0.54610134316E+03  0.15818682545E+02 -0.39826776881E+03  0.67608736373E+03  0.00000000000E+00 0.  1.
         22    1    1    2    0    0  0.13160908600E+04 -0.14690417726E+03 -0.15092626847E+04  0.20078719681E+04  0.00000000000E+00 0.  1.
<mgrwt>
<rscale>  0 0.26875462E+04</rscale>
<asrwt>0</asrwt>
<pdfrwt beam="1">  1        2 0.46612106E+00 0.26875462E+04</pdfrwt>
<pdfrwt beam="2">  1       -2 0.91690944E-01 0.26875462E+04</pdfrwt>
<totfact> 0.14820412E+00</totfact>
</mgrwt>
</event>
<event>
 6    1  0.2047711E-005  0.2338507E+04  0.7818608E-02  0.8462891E-01
         -2   -1    0    0    0  501 -0.00000000000E+00  0.00000000000E+00  0.82804346851E+03  0.82804346851E+03  0.00000000000E+00 0.  1.
          2   -1    0    0  501    0  0.00000000000E+00 -0.00000000000E+00 -0.16510645822E+04  0.16510645822E+04  0.00000000000E+00 0. -1.
         23    2    1    2    0    0 -0.57123674186E+03 -0.84070103779E+02  0.66360018167E+03  0.88429706712E+03  0.90757391982E+02 0.  0.
         11    1    3    3    0    0 -0.28482717348E+03 -0.95032783703E+01  0.27705255154E+03  0.39746062367E+03  0.00000000000E+00 0. -1.
        -11    1    3    3    0    0 -0.28640956838E+03 -0.74566825409E+02  0.38654763013E+03  0.48683644345E+03  0.00000000000E+00 0.  1.
         22    1    1    2    0    0  0.57123674186E+03  0.84070103779E+02 -0.14866212954E+04  0.15948109836E+04  0.00000000000E+00 0. -1.
<mgrwt>
<rscale>  0 0.23385066E+04</rscale>
<asrwt>0</asrwt>
<pdfrwt beam="1">  1        2 0.25400993E+00 0.23385066E+04</pdfrwt>
<pdfrwt beam="2">  1       -2 0.12739130E+00 0.23385066E+04</pdfrwt>
<totfact> 0.43149784E+00</totfact>
</mgrwt>
</event>
<event>
 6    1  0.2047711E-005  0.3330796E+04  0.7818608E-02  0.8155103E-01
          2   -1    0    0  501    0  0.00000000000E+00  0.00000000000E+00  0.34800026530E+04  0.34800026530E+04  0.00000000000E+00 0. -1.
         -2   -1    0    0    0  501 -0.00000000000E+00 -0.00000000000E+00 -0.79699649106E+03  0.79699649106E+03  0.00000000000E+00 0.  1.
         23    2    1    2    0    0 -0.89451189529E+03 -0.12627147084E+04  0.21285888592E+04  0.26332295400E+04  0.91691403480E+02 0.  0.
         11    1    3    3    0    0 -0.31412823160E+03 -0.39890278674E+03  0.64019346819E+03  0.81709709084E+03  0.00000000000E+00 0. -1.
        -11    1    3    3    0    0 -0.58038366369E+03 -0.86381192166E+03  0.14883953910E+04  0.18161324492E+04  0.00000000000E+00 0.  1.
         22    1    1    2    0    0  0.89451189529E+03  0.12627147084E+04  0.55441730279E+03  0.16437696041E+04  0.00000000000E+00 0.  1.
<mgrwt>
<rscale>  0 0.33307956E+04</rscale>
<asrwt>0</asrwt>
<pdfrwt beam="1">  1        2 0.53538501E+00 0.33307956E+04</pdfrwt>
<pdfrwt beam="2">  1       -2 0.12261485E+00 0.33307956E+04</pdfrwt>
<totfact> 0.35146785E-01</totfact>
</mgrwt>
</event>
<event>
 6    1  0.2047711E-005  0.3447069E+04  0.7818608E-02  0.8126450E-01
         -2   -1    0    0    0  501 -0.00000000000E+00  0.00000000000E+00  0.14919781931E+04  0.14919781931E+04  0.00000000000E+00 0. -1.
          2   -1    0    0  501    0  0.00000000000E+00 -0.00000000000E+00 -0.19910280155E+04  0.19910280155E+04  0.00000000000E+00 0.  1.
         23    2    1    2    0    0  0.14680961504E+04 -0.74627425265E+03 -0.75918453652E+03  0.18157025060E+04  0.90459177430E+02 0.  0.
         11    1    3    3    0    0  0.70873044699E+03 -0.33204639262E+03 -0.40196532948E+03  0.87984645219E+03  0.00000000000E+00 0. -1.
        -11    1    3    3    0    0  0.75936570345E+03 -0.41422786003E+03 -0.35721920704E+03  0.93585605382E+03  0.00000000000E+00 0.  1.
         22    1    1    2    0    0 -0.14680961504E+04  0.74627425265E+03  0.26013471405E+03  0.16673037026E+04  0.00000000000E+00 0. -1.
<mgrwt>
<rscale>  0 0.34470685E+04</rscale>
<asrwt>0</asrwt>
<pdfrwt beam="1">  1        2 0.30631200E+00 0.34470685E+04</pdfrwt>
<pdfrwt beam="2">  1       -2 0.22953511E+00 0.34470685E+04</pdfrwt>
<totfact> 0.48011508E-01</totfact>
</mgrwt>
</event>
<event>
 6    1  0.2047711E-005  0.1051288E+04  0.7818608E-02  0.9254015E-01
          2   -1    0    0  501    0  0.00000000000E+00  0.00000000000E+00  0.13936283909E+04  0.13936283909E+04  0.00000000000E+00 0. -1.
         -2   -1    0    0    0  501 -0.00000000000E+00 -0.00000000000E+00 -0.19826058594E+03  0.19826058594E+03  0.00000000000E+00 0.  1.
         23    2    1    2    0    0  0.47716084158E+03 -0.63483385227E+02  0.90673048916E+03  0.10306188912E+04  0.91118110516E+02 0.  0.
         13    1    3    3    0    0  0.12529434645E+03  0.22582042469E+02  0.21876814897E+03  0.25311682066E+03  0.00000000000E+00 0. -1.
        -13    1    3    3    0    0  0.35186649513E+03 -0.86065427696E+02  0.68796234019E+03  0.77750207058E+03  0.00000000000E+00 0.  1.
         22    1    1    2    0    0 -0.47716084158E+03  0.63483385227E+02  0.28863731583E+03  0.56127008563E+03  0.00000000000E+00 0.  1.
<mgrwt>
<rscale>  0 0.10512879E+04</rscale>
<asrwt>0</asrwt>
<pdfrwt beam="1">  1        2 0.21440436E+00 0.10512879E+04</pdfrwt>
<pdfrwt beam="2">  1       -2 0.30501629E-01 0.10512879E+04</pdfrwt>
<totfact> 0.14428102E+02</totfact>
</mgrwt>
</event>
<event>
 6    1  0.2047711E-005  0.2370283E+04  0.7818608E-02  0.8450714E-01
          2   -1    0    0  501    0  0.00000000000E+00  0.00000000000E+00  0.36992659582E+04  0.36992659582E+04  0.00000000000E+00 0. -1.
         -2   -1    0    0    0  501 -0.00000000000E+00 -0.00000000000E+00 -0.37968609644E+03  0.37968609644E+03  0.00000000000E+00 0.  1.
         23    2    1    2    0    0 -0.73520768768E+03  0.70050122012E+02  0.71487976264E+02  0.74795546799E+03  0.94284079990E+02 0.  0.
         13    1    3    3    0    0 -0.12132780393E+03  0.11140664935E+02  0.47558918703E+02  0.13079144150E+03  0.00000000000E+00 0. -1.
        -13    1    3    3    0    0 -0.61387988374E+03  0.58909457077E+02  0.23929057561E+02  0.61716402649E+03  0.00000000000E+00 0.  1.
         22    1    1    2    0    0  0.73520768768E+03 -0.70050122012E+02  0.32480918855E+04  0.33309965867E+04  0.00000000000E+00 0. -1.
<mgrwt>
<rscale>  0 0.23702826E+04</rscale>
<asrwt>0</asrwt>
<pdfrwt beam="1">  1        2 0.56911781E+00 0.23702826E+04</pdfrwt>
<pdfrwt beam="2">  1       -2 0.58413248E-01 0.23702826E+04</pdfrwt>
<totfact> 0.14483989E+00</totfact>
</mgrwt>
</event>
<event>
 6    1  0.2047711E-005  0.1476461E+04  0.7818608E-02  0.8900259E-01
          2   -1    0    0  501    0  0.00000000000E+00  0.00000000000E+00  0.32674965762E+04  0.32674965762E+04  0.00000000000E+00 0. -1.
         -2   -1    0    0    0  501 -0.00000000000E+00 -0.00000000000E+00 -0.16678947388E+03  0.16678947388E+03  0.00000000000E+00 0.  1.
         23    2    1    2    0    0 -0.61242491579E+03  0.32909071886E+02  0.61452385402E+03  0.87357239396E+03  0.96653379893E+02 0.  0.
         13    1    3    3    0    0 -0.36181882877E+03 -0.25962077594E+02  0.37976754599E+03  0.52517643065E+03  0.00000000000E+00 0. -1.
        -13    1    3    3    0    0 -0.25060608702E+03  0.58871149480E+02  0.23475630803E+03  0.34839596331E+03  0.00000000000E+00 0.  1.
         22    1    1    2    0    0  0.61242491579E+03 -0.32909071886E+02  0.24861832483E+04  0.25607136561E+04  0.00000000000E+00 0. -1.
<mgrwt>
<rscale>  0 0.14764607E+04</rscale>
<asrwt>0</asrwt>
<pdfrwt beam="1">  1        2 0.50269173E+00 0.14764607E+04</pdfrwt>
<pdfrwt beam="2">  1       -2 0.25659922E-01 0.14764607E+04</pdfrwt>
<totfact> 0.15678580E+01</totfact>
</mgrwt>
</event>
<event>
 6    1  0.2047711E-005  0.3431371E+04  0.7818608E-02  0.8130249E-01
          2   -1    0    0  501    0  0.00000000000E+00  0.00000000000E+00  0.16471500088E+04  0.16471500088E+04  0.00000000000E+00 0. -1.
         -2   -1    0    0    0  501 -0.00000000000E+00 -0.00000000000E+00 -0.17870726522E+04  0.17870726522E+04  0.00000000000E+00 0.  1.
         23    2    1    2    0    0 -0.57198346852E+03  0.12747624090E+04  0.92444312984E+03  0.16777891192E+04  0.90536956393E+02 0.  0.
         11    1    3    3    0    0 -0.25565717139E+03  0.47160892737E+03  0.33287811916E+03  0.63133462750E+03  0.00000000000E+00 0. -1.
        -11    1    3    3    0    0 -0.31632629713E+03  0.80315348159E+03  0.59156501067E+03  0.10464544917E+04  0.00000000000E+00 0.  1.
         22    1    1    2    0    0  0.57198346852E+03 -0.12747624090E+04 -0.10643657732E+04  0.17564335418E+04  0.00000000000E+00 0.  1.
<mgrwt>
<rscale>  0 0.34313710E+04</rscale>
<asrwt>0</asrwt>
<pdfrwt beam="1">  1        2 0.25340769E+00 0.34313710E+04</pdfrwt>
<pdfrwt beam="2">  1       -2 0.27493425E+00 0.34313710E+04</pdfrwt>
<totfact> 0.39215276E-01</totfact>
</mgrwt>
</event>
<event>
 6    1  0.2047711E-005  0.1407602E+04  0.7818608E-02  0.8948334E-01
         -2   -1    0    0    0  501 -0.00000000000E+00  0.00000000000E+00  0.90039383261E+03  0.90039383261E+03  0.00000000000E+00 0. -1.
          2   -1    0    0  501    0  0.00000000000E+00 -0.00000000000E+00 -0.55013245512E+03  0.55013245512E+03  0.00000000000E+00 0.  1.
         23    2    1    2    0    0 -0.62317641846E+03 -0.31843449782E+03  0.13850559268E+03  0.71936974476E+03  0.92518390315E+02 0.  0.
         13    1    3    3    0    0 -0.17321692600E+03 -0.75225995253E+02 -0.22992115539E+01  0.18886063695E+03  0.00000000000E+00 0.  1.
        -13    1    3    3    0    0 -0.44995949245E+03 -0.24320850257E+03  0.14080480423E+03  0.53050910781E+03  0.00000000000E+00 0. -1.
         22    1    1    2    0    0  0.62317641846E+03  0.31843449782E+03  0.21175578481E+03  0.73115654297E+03  0.00000000000E+00 0. -1.
<mgrwt>
<rscale>  0 0.14076020E+04</rscale>
<asrwt>0</asrwt>
<pdfrwt beam="1">  1        2 0.84635762E-01 0.14076020E+04</pdfrwt>
<pdfrwt beam="2">  1       -2 0.13852213E+00 0.14076020E+04</pdfrwt>
<totfact> 0.19753268E+01</totfact>
</mgrwt>
</event>
<event>
 6    1  0.2047711E-005  0.4728956E+03  0.7818608E-02  0.1021106E+00
          2   -1    0    0  501    0  0.00000000000E+00  0.00000000000E+00  0.79140397263E+03  0.79140397263E+03  0.00000000000E+00 0. -1.
         -2   -1    0    0    0  501 -0.00000000000E+00 -0.00000000000E+00 -0.70643512986E+02  0.70643512986E+02  0.00000000000E+00 0.  1.
         23    2    1    2    0    0  0.19681088731E+03 -0.76468237483E+02  0.52977463495E+03  0.57734149351E+03  0.89889485400E+02 0.  0.
         11    1    3    3    0    0  0.81988598099E+02  0.77090109254E+01  0.25349094964E+03  0.26653183791E+03  0.00000000000E+00 0.  1.
        -11    1    3    3    0    0  0.11482228921E+03 -0.84177248409E+02  0.27628368531E+03  0.31080965560E+03  0.00000000000E+00 0. -1.
         22    1    1    2    0    0 -0.19681088731E+03  0.76468237483E+02  0.19098582470E+03  0.28470599211E+03  0.00000000000E+00 0.  1.
<mgrwt>
<rscale>  0 0.47289558E+03</rscale>
<asrwt>0</asrwt>
<pdfrwt beam="1">  1        2 0.12175445E+00 0.47289558E+03</pdfrwt>
<pdfrwt beam="2">  1       -2 0.10868233E-01 0.47289558E+03</pdfrwt>
<totfact> 0.20948915E+03</totfact>
</mgrwt>
</event>
<event>
 6    1  0.2047711E-005  0.1608199E+04  0.7818608E-02  0.8815527E-01
          2   -1    0    0  501    0  0.00000000000E+00  0.00000000000E+00  0.33582601098E+04  0.33582601098E+04  0.00000000000E+00 0. -1.
         -2   -1    0    0    0  501 -0.00000000000E+00 -0.00000000000E+00 -0.19253311625E+03  0.19253311625E+03  0.00000000000E+00 0.  1.
         23    2    1    2    0    0 -0.73866071145E+03 -0.28572667831E+03  0.18596986641E+04  0.20233871312E+04  0.91416519691E+02 0.  0.
         11    1    3    3    0    0 -0.25796617895E+03 -0.12398458483E+03  0.76898557396E+03  0.82052272346E+03  0.00000000000E+00 0.  1.
        -11    1    3    3    0    0 -0.48069453249E+03 -0.16174209348E+03  0.10907130901E+04  0.12028644077E+04  0.00000000000E+00 0. -1.
         22    1    1    2    0    0  0.73866071145E+03  0.28572667831E+03  0.13060283295E+04  0.15274060949E+04  0.00000000000E+00 0.  1.
<mgrwt>
<rscale>  0 0.16081993E+04</rscale>
<asrwt>0</asrwt>
<pdfrwt beam="1">  1        2 0.51665536E+00 0.16081993E+04</pdfrwt>
<pdfrwt beam="2">  1       -2 0.29620482E-01 0.16081993E+04</pdfrwt>
<totfact> 0.10343896E+01</totfact>
</mgrwt>
</event>
<event>
 6    1  0.2047711E-005  0.4769873E+04  0.7818608E-02  0.7865021E-01
         -2   -1    0    0    0  501 -0.00000000000E+00  0.00000000000E+00  0.31900790516E+04  0.31900790516E+04  0.00000000000E+00 0.  1.
          2   -1    0    0  501    0  0.00000000000E+00 -0.00000000000E+00 -0.17830036101E+04  0.17830036101E+04  0.00000000000E+00 0. -1.
         23    2    1    2    0    0  0.50341386989E+03  0.51239398244E+03  0.30739084066E+04  0.31580605540E+04  0.91980720352E+02 0.  0.
         13    1    3    3    0    0  0.27605370134E+03  0.21679427409E+03  0.15317753390E+04  0.15714773598E+04  0.00000000000E+00 0. -1.
        -13    1    3    3    0    0  0.22736016855E+03  0.29559970835E+03  0.15421330676E+04  0.15865831942E+04  0.00000000000E+00 0.  1.
         22    1    1    2    0    0 -0.50341386989E+03 -0.51239398244E+03 -0.16668329652E+04  0.18150221077E+04  0.00000000000E+00 0. -1.
<mgrwt>
<rscale>  0 0.47698731E+04</rscale>
<asrwt>0</asrwt>
<pdfrwt beam="1">  1        2 0.27430825E+00 0.47698731E+04</pdfrwt>
<pdfrwt beam="2">  1       -2 0.49078139E+00 0.47698731E+04</pdfrwt>
<totfact> 0.12379194E-02</totfact>
</mgrwt>
</event>
<event>
 6    1  0.2047711E-005  0.5520872E+04  0.7818608E-02  0.7752824E-01
          2   -1    0    0  501    0  0.00000000000E+00  0.00000000000E+00  0.37933496559E+04  0.37933496559E+04  0.00000000000E+00 0. -1.
         -2   -1    0    0    0  501 -0.00000000000E+00 -0.00000000000E+00 -0.20087807498E+04  0.20087807498E+04  0.00000000000E+00 0.  1.
         23    2    1    2    0    0 -0.73025589323E+03 -0.24885963279E+04 -0.98604875437E+02  0.25970206035E+04  0.91693732396E+02 0.  0.
         13    1    3    3    0    0 -0.70402009923E+03 -0.23544879899E+04 -0.77189037205E+02  0.24587021255E+04  0.00000000000E+00 0.  1.
        -13    1    3    3    0    0 -0.26235793994E+02 -0.13410833805E+03 -0.21415838231E+02  0.13831847797E+03  0.00000000000E+00 0. -1.
         22    1    1    2    0    0  0.73025589323E+03  0.24885963279E+04  0.18831737815E+04  0.32051098022E+04  0.00000000000E+00 0. -1.
<mgrwt>
<rscale>  0 0.55208723E+04</rscale>
<asrwt>0</asrwt>
<pdfrwt beam="1">  1        2 0.58359225E+00 0.55208723E+04</pdfrwt>
<pdfrwt beam="2">  1       -2 0.30904319E+00 0.55208723E+04</pdfrwt>
<totfact> 0.96747348E-03</totfact>
</mgrwt>
</event>
<event>
 6    1  0.2047711E-005  0.1226457E+04  0.7818608E-02  0.9090009E-01
          2   -1    0    0  501    0  0.00000000000E+00  0.00000000000E+00  0.20850647861E+03  0.20850647861E+03  0.00000000000E+00 0. -1.
         -2   -1    0    0    0  501 -0.00000000000E+00 -0.00000000000E+00 -0.18035370944E+04  0.18035370944E+04  0.00000000000E+00 0.  1.
         23    2    1    2    0    0  0.53462948966E+03 -0.14175465780E+03 -0.12234631770E+04  0.13457212518E+04  0.90445938162E+02 0.  0.
         13    1    3    3    0    0  0.24091251604E+03 -0.97796124692E+02 -0.49717280400E+03  0.56105589689E+03  0.00000000000E+00 0. -1.
        -13    1    3    3    0    0  0.29371697362E+03 -0.43958533105E+02 -0.72629037300E+03  0.78466535487E+03  0.00000000000E+00 0.  1.
         22    1    1    2    0    0 -0.53462948966E+03  0.14175465780E+03 -0.37156743876E+03  0.66632232123E+03  0.00000000000E+00 0. -1.
<mgrwt>
<rscale>  0 0.12264570E+04</rscale>
<asrwt>0</asrwt>
<pdfrwt beam="1">  1        2 0.32077921E-01 0.12264570E+04</pdfrwt>
<pdfrwt beam="2">  1       -2 0.27746724E+00 0.12264570E+04</pdfrwt>
<totfact> 0.71329949E+00</totfact>
</mgrwt>
</event>
<event>
 6    1  0.2047711E-005  0.1222701E+04  0.7818608E-02  0.9093215E-01
          2   -1    0    0  501    0  0.00000000000E+00  0.00000000000E+00  0.14893854762E+04  0.14893854762E+04  0.00000000000E+00 0. -1.
         -2   -1    0    0    0  501 -0.00000000000E+00 -0.00000000000E+00 -0.25094204983E+03  0.25094204983E+03  0.00000000000E+00 0.  1.
         23    2    1    2    0    0  0.53434958269E+03  0.18369378442E+03  0.30380620060E+03  0.64816470542E+03  0.92446713675E+02 0.  0.
         11    1    3    3    0    0  0.32575586820E+03  0.14807482784E+03  0.22310475120E+03  0.42168562972E+03  0.00000000000E+00 0. -1.
        -11    1    3    3    0    0  0.20859371449E+03  0.35618956582E+02  0.80701449409E+02  0.22647907570E+03  0.00000000000E+00 0.  1.
         22    1    1    2    0    0 -0.53434958269E+03 -0.18369378442E+03  0.93463722578E+03  0.10921628206E+04  0.00000000000E+00 0. -1.
<mgrwt>
<rscale>  0 0.12227010E+04</rscale>
<asrwt>0</asrwt>
<pdfrwt beam="1">  1        2 0.22913622E+00 0.12227010E+04</pdfrwt>
<pdfrwt beam="2">  1       -2 0.38606470E-01 0.12227010E+04</pdfrwt>
<totfact> 0.80338543E+01</totfact>
</mgrwt>
</event>
<event>
 6    1  0.2047711E-005  0.2462588E+04  0.7818608E-02  0.8416436E-01
         -2   -1    0    0    0  501 -0.00000000000E+00  0.00000000000E+00  0.10008619204E+04  0.10008619204E+04  0.00000000000E+00 0.  1.
          2   -1    0    0  501    0  0.00000000000E+00 -0.00000000000E+00 -0.15147788661E+04  0.15147788661E+04  0.00000000000E+00 0. -1.
         23    2    1    2    0    0 -0.12089158875E+04 -0.16523465312E+03 -0.41322912777E+03  0.12913376581E+04  0.89523859277E+02 0.  0.
         11    1    3    3    0    0 -0.95562777141E+03 -0.13540236130E+03 -0.36437104319E+03  0.10316610364E+04  0.00000000000E+00 0. -1.
        -11    1    3    3    0    0 -0.25328811614E+03 -0.29832291826E+02 -0.48858084580E+02  0.25967662167E+03  0.00000000000E+00 0.  1.
         22    1    1    2    0    0  0.12089158875E+04  0.16523465312E+03 -0.10068781795E+03  0.12243031285E+04  0.00000000000E+00 0.  1.
<mgrwt>
<rscale>  0 0.24625877E+04</rscale>
<asrwt>0</asrwt>
<pdfrwt beam="1">  1        2 0.23304290E+00 0.24625877E+04</pdfrwt>
<pdfrwt beam="2">  1       -2 0.15397876E+00 0.24625877E+04</pdfrwt>
<totfact> 0.31133706E+00</totfact>
</mgrwt>
</event>
<event>
 6    1  0.2047711E-005  0.1773834E+04  0.7818608E-02  0.8720339E-01
          2   -1    0    0  501    0  0.00000000000E+00  0.00000000000E+00  0.16267224501E+04  0.16267224501E+04  0.00000000000E+00 0. -1.
         -2   -1    0    0    0  501 -0.00000000000E+00 -0.00000000000E+00 -0.48356226140E+03  0.48356226140E+03  0.00000000000E+00 0.  1.
         23    2    1    2    0    0  0.54251757551E+03  0.95353841739E+02 -0.25036701689E+03  0.61184026889E+03  0.90814077184E+02 0.  0.
         13    1    3    3    0    0  0.16143368170E+03  0.70779451668E+02 -0.73055123776E+02  0.19080779721E+03  0.00000000000E+00 0. -1.
        -13    1    3    3    0    0  0.38108389382E+03  0.24574390072E+02 -0.17731189311E+03  0.42103247168E+03  0.00000000000E+00 0.  1.
         22    1    1    2    0    0 -0.54251757551E+03 -0.95353841739E+02  0.13935272056E+04  0.14984444426E+04  0.00000000000E+00 0.  1.
<mgrwt>
<rscale>  0 0.17738338E+04</rscale>
<asrwt>0</asrwt>
<pdfrwt beam="1">  1        2 0.25026499E+00 0.17738338E+04</pdfrwt>
<pdfrwt beam="2">  1       -2 0.74394195E-01 0.17738338E+04</pdfrwt>
<totfact> 0.16570532E+01</totfact>
</mgrwt>
</event>
<event>
 6    1  0.2047711E-005  0.2623947E+04  0.7818608E-02  0.8360112E-01
          2   -1    0    0  501    0  0.00000000000E+00  0.00000000000E+00  0.77774180094E+03  0.77774180094E+03  0.00000000000E+00 0. -1.
         -2   -1    0    0    0  501 -0.00000000000E+00 -0.00000000000E+00 -0.22131697720E+04  0.22131697720E+04  0.00000000000E+00 0.  1.
         23    2    1    2    0    0  0.19152190040E+03  0.88444032590E+03 -0.17987759783E+04  0.20157515333E+04  0.93508799880E+02 0.  0.
         11    1    3    3    0    0  0.54901549189E+02  0.47380376526E+03 -0.94915808081E+03  0.10622642093E+04  0.00000000000E+00 0. -1.
        -11    1    3    3    0    0  0.13662035121E+03  0.41063656064E+03 -0.84961789748E+03  0.95348732399E+03  0.00000000000E+00 0.  1.
         22    1    1    2    0    0 -0.19152190040E+03 -0.88444032590E+03  0.36334800726E+03  0.97516003958E+03  0.00000000000E+00 0. -1.
<mgrwt>
<rscale>  0 0.26239471E+04</rscale>
<asrwt>0</asrwt>
<pdfrwt beam="1">  1        2 0.11965259E+00 0.26239471E+04</pdfrwt>
<pdfrwt beam="2">  1       -2 0.34048765E+00 0.26239471E+04</pdfrwt>
<totfact> 0.56377611E-01</totfact>
</mgrwt>
</event>
<event>
 6    1  0.2047711E-005  0.3341879E+04  0.7818608E-02  0.8152320E-01
         -2   -1    0    0    0  501 -0.00000000000E+00  0.00000000000E+00  0.11249400966E+04  0.11249400966E+04  0.00000000000E+00 0.  1.
          2   -1    0    0  501    0  0.00000000000E+00 -0.00000000000E+00 -0.24819445912E+04  0.24819445912E+04  0.00000000000E+00 0. -1.
         23    2    1    2    0    0  0.11558555910E+04 -0.95221393365E+02 -0.19753442398E+04  0.22925737271E+04  0.94022163432E+02 0.  0.
         11    1    3    3    0    0  0.35855027658E+03 -0.27119559959E+02 -0.70046532513E+03  0.78736614296E+03  0.00000000000E+00 0. -1.
        -11    1    3    3    0    0  0.79730531443E+03 -0.68101833406E+02 -0.12748789147E+04  0.15052075841E+04  0.00000000000E+00 0.  1.
         22    1    1    2    0    0 -0.11558555910E+04  0.95221393365E+02  0.61833974520E+03  0.13143109607E+04  0.00000000000E+00 0.  1.
<mgrwt>
<rscale>  0 0.33418791E+04</rscale>
<asrwt>0</asrwt>
<pdfrwt beam="1">  1        2 0.38183763E+00 0.33418791E+04</pdfrwt>
<pdfrwt beam="2">  1       -2 0.17306771E+00 0.33418791E+04</pdfrwt>
<totfact> 0.60167121E-01</totfact>
</mgrwt>
</event>
<event>
 6    1  0.2047711E-005  0.1707133E+04  0.7818608E-02  0.8757307E-01
          2   -1    0    0  501    0  0.00000000000E+00  0.00000000000E+00  0.12077875337E+04  0.12077875337E+04  0.00000000000E+00 0. -1.
         -2   -1    0    0    0  501 -0.00000000000E+00 -0.00000000000E+00 -0.60323150853E+03  0.60323150853E+03  0.00000000000E+00 0.  1.
         23    2    1    2    0    0 -0.30986503146E+03  0.61863293064E+03  0.82906839156E+03  0.10836066122E+04  0.90143505516E+02 0.  0.
         11    1    3    3    0    0 -0.21970120631E+02  0.65732590825E+02  0.12740774551E+03  0.14503859250E+03  0.00000000000E+00 0.  1.
        -11    1    3    3    0    0 -0.28789491083E+03  0.55290033981E+03  0.70166064605E+03  0.93856801973E+03  0.00000000000E+00 0. -1.
         22    1    1    2    0    0  0.30986503146E+03 -0.61863293064E+03 -0.22451236643E+03  0.72741242997E+03  0.00000000000E+00 0.  1.
<mgrwt>
<rscale>  0 0.17071327E+04</rscale>
<asrwt>0</asrwt>
<pdfrwt beam="1">  1        2 0.18581347E+00 0.17071327E+04</pdfrwt>
<pdfrwt beam="2">  1       -2 0.92804848E-01 0.17071327E+04</pdfrwt>
<totfact> 0.17543091E+01</totfact>
</mgrwt>
</event>
<event>
 6    1  0.2047711E-005  0.1360854E+04  0.7818608E-02  0.8982652E-01
         -2   -1    0    0    0  501 -0.00000000000E+00  0.00000000000E+00  0.26521735067E+03  0.26521735067E+03  0.00000000000E+00 0. -1.
          2   -1    0    0  501    0  0.00000000000E+00 -0.00000000000E+00 -0.17456667824E+04  0.17456667824E+04  0.00000000000E+00 0.  1.
         23    2    1    2    0    0  0.16514984427E+03 -0.16086736366E+03 -0.16846840634E+04  0.17028832166E+04  0.92185010341E+02 0.  0.
         11    1    3    3    0    0  0.14081156581E+03 -0.11238649103E+03 -0.14875899824E+04  0.14984600683E+04  0.00000000000E+00 0. -1.
        -11    1    3    3    0    0  0.24338278460E+02 -0.48480872634E+02 -0.19709408098E+03  0.20442314832E+03  0.00000000000E+00 0.  1.
         22    1    1    2    0    0 -0.16514984427E+03  0.16086736366E+03  0.20423463169E+03  0.30800091645E+03  0.00000000000E+00 0. -1.
<mgrwt>
<rscale>  0 0.13608543E+04</rscale>
<asrwt>0</asrwt>
<pdfrwt beam="1">  1        2 0.26856411E+00 0.13608543E+04</pdfrwt>
<pdfrwt beam="2">  1       -2 0.40802671E-01 0.13608543E+04</pdfrwt>
<totfact> 0.51347770E+01</totfact>
</mgrwt>
</event>
<event>
 6    1  0.2047711E-005  0.3218620E+04  0.7818608E-02  0.8183917E-01
          2   -1    0    0  501    0  0.00000000000E+00  0.00000000000E+00  0.37463920163E+04  0.37463920163E+04  0.00000000000E+00 0. -1.
         -2   -1    0    0    0  501 -0.00000000000E+00 -0.00000000000E+00 -0.69129955149E+03  0.69129955149E+03  0.00000000000E+00 0.  1.
         23    2    1    2    0    0  0.25732449587E+03  0.15857431885E+04  0.14338780084E+04  0.21553389067E+04  0.93178879747E+02 0.  0.
         11    1    3    3    0    0  0.39945934695E+02  0.51421377344E+03  0.45047871312E+03  0.68479380361E+03  0.00000000000E+00 0. -1.
        -11    1    3    3    0    0  0.21737856117E+03  0.10715294151E+04  0.98339929526E+03  0.14705451031E+04  0.00000000000E+00 0.  1.
         22    1    1    2    0    0 -0.25732449587E+03 -0.15857431885E+04  0.16212144564E+04  0.22823526611E+04  0.00000000000E+00 0.  1.
<mgrwt>
<rscale>  0 0.32186203E+04</rscale>
<asrwt>0</asrwt>
<pdfrwt beam="1">  1        2 0.57636799E+00 0.32186203E+04</pdfrwt>
<pdfrwt beam="2">  1       -2 0.10635378E+00 0.32186203E+04</pdfrwt>
<totfact> 0.32256682E-01</totfact>
</mgrwt>
</event>
<event>
 6    1  0.2047711E-005  0.1138599E+04  0.7818608E-02  0.9168366E-01
          2   -1    0    0  501    0  0.00000000000E+00  0.00000000000E+00  0.76628186001E+03  0.76628186001E+03  0.00000000000E+00 0. -1.
         -2   -1    0    0    0  501 -0.00000000000E+00 -0.00000000000E+00 -0.42295400722E+03  0.42295400722E+03  0.00000000000E+00 0.  1.
         23    2    1    2    0    0 -0.38236072153E+03  0.40349308895E+03  0.63254498551E+02  0.56678307548E+03  0.90749814705E+02 0.  0.
         13    1    3    3    0    0 -0.27909530847E+03  0.28371204249E+03  0.85551039557E+02  0.40706964347E+03  0.00000000000E+00 0. -1.
        -13    1    3    3    0    0 -0.10326541306E+03  0.11978104646E+03 -0.22296541006E+02  0.15971343202E+03  0.00000000000E+00 0.  1.
         22    1    1    2    0    0  0.38236072153E+03 -0.40349308895E+03  0.28007335424E+03  0.62245279175E+03  0.00000000000E+00 0. -1.
<mgrwt>
<rscale>  0 0.11385991E+04</rscale>
<asrwt>0</asrwt>
<pdfrwt beam="1">  1        2 0.11788952E+00 0.11385991E+04</pdfrwt>
<pdfrwt beam="2">  1       -2 0.65069847E-01 0.11385991E+04</pdfrwt>
<totfact> 0.78708126E+01</totfact>
</mgrwt>
</event>
<event>
 6    1  0.2047711E-005  0.1074268E+04  0.7818608E-02  0.9230641E-01
          2   -1    0    0  501    0  0.00000000000E+00  0.00000000000E+00  0.11411719048E+04  0.11411719048E+04  0.00000000000E+00 0. -1.
         -2   -1    0    0    0  501 -0.00000000000E+00 -0.00000000000E+00 -0.25282158937E+03  0.25282158937E+03  0.00000000000E+00 0.  1.
         23    2    1    2    0    0  0.22612131080E+03 -0.29737000027E+03 -0.46541272910E+02  0.38722537480E+03  0.90651180621E+02 0.  0.
         13    1    3    3    0    0  0.33696809421E+02 -0.11119602284E+03 -0.23020662461E+02  0.11844822228E+03  0.00000000000E+00 0. -1.
        -13    1    3    3    0    0  0.19242450137E+03 -0.18617397742E+03 -0.23520610449E+02  0.26877715252E+03  0.00000000000E+00 0.  1.
         22    1    1    2    0    0 -0.22612131080E+03  0.29737000027E+03  0.93489158831E+03  0.10067681193E+04  0.00000000000E+00 0. -1.
<mgrwt>
<rscale>  0 0.10742679E+04</rscale>
<asrwt>0</asrwt>
<pdfrwt beam="1">  1        2 0.17556491E+00 0.10742679E+04</pdfrwt>
<pdfrwt beam="2">  1       -2 0.38895630E-01 0.10742679E+04</pdfrwt>
<totfact> 0.12757066E+02</totfact>
</mgrwt>
</event>
<event>
 6    1  0.2047711E-005  0.1589538E+04  0.7818608E-02  0.8827001E-01
          2   -1    0    0  501    0  0.00000000000E+00  0.00000000000E+00  0.28275910526E+04  0.28275910526E+04  0.00000000000E+00 0. -1.
         -2   -1    0    0    0  501 -0.00000000000E+00 -0.00000000000E+00 -0.22339086581E+03  0.22339086581E+03  0.00000000000E+00 0.  1.
         23    2    1    2    0    0  0.16520375090E+03  0.31423259348E+03  0.26656504450E+04  0.26906896255E+04  0.89910863786E+02 0.  0.
         11    1    3    3    0    0  0.80312529273E+02  0.10364760964E+03  0.12620697410E+04  0.12688628612E+04  0.00000000000E+00 0. -1.
        -11    1    3    3    0    0  0.84891221630E+02  0.21058498384E+03  0.14035807041E+04  0.14218267643E+04  0.00000000000E+00 0.  1.
         22    1    1    2    0    0 -0.16520375090E+03 -0.31423259348E+03 -0.61450258234E+02  0.36029229295E+03  0.00000000000E+00 0.  1.
<mgrwt>
<rscale>  0 0.15895383E+04</rscale>
<asrwt>0</asrwt>
<pdfrwt beam="1">  1        2 0.43501398E+00 0.15895383E+04</pdfrwt>
<pdfrwt beam="2">  1       -2 0.34367827E-01 0.15895383E+04</pdfrwt>
<totfact> 0.17015255E+01</totfact>
</mgrwt>
</event>
<event>
 6    1  0.2047711E-005  0.1752541E+04  0.7818608E-02  0.8731953E-01
         -2   -1    0    0    0  501 -0.00000000000E+00  0.00000000000E+00  0.34460404637E+03  0.34460404637E+03  0.00000000000E+00 0.  1.
          2   -1    0    0  501    0  0.00000000000E+00 -0.00000000000E+00 -0.22282104672E+04  0.22282104672E+04  0.00000000000E+00 0. -1.
         23    2    1    2    0    0  0.47983092994E+03  0.26350562296E+02 -0.20158630345E+04  0.20743931202E+04  0.92037872895E+02 0.  0.
         11    1    3    3    0    0  0.91802647936E+02  0.22045238020E+02 -0.27339556885E+03  0.28923840643E+03  0.00000000000E+00 0. -1.
        -11    1    3    3    0    0  0.38802828200E+03  0.43053242763E+01 -0.17424674656E+04  0.17851547138E+04  0.00000000000E+00 0.  1.
         22    1    1    2    0    0 -0.47983092994E+03 -0.26350562296E+02  0.13225661366E+03  0.49842139332E+03  0.00000000000E+00 0.  1.
<mgrwt>
<rscale>  0 0.17525414E+04</rscale>
<asrwt>0</asrwt>
<pdfrwt beam="1">  1        2 0.34280162E+00 0.17525414E+04</pdfrwt>
<pdfrwt beam="2">  1       -2 0.53016006E-01 0.17525414E+04</pdfrwt>
<totfact> 0.15835201E+01</totfact>
</mgrwt>
</event>
<event>
 6    1  0.2047711E-005  0.1339453E+04  0.7818608E-02  0.8998851E-01
          2   -1    0    0  501    0  0.00000000000E+00  0.00000000000E+00  0.17091510028E+04  0.17091510028E+04  0.00000000000E+00 0. -1.
         -2   -1    0    0    0  501 -0.00000000000E+00 -0.00000000000E+00 -0.26243048168E+03  0.26243048168E+03  0.00000000000E+00 0.  1.
         23    2    1    2    0    0  0.27106818389E+03 -0.14610136574E+03 -0.14345232450E+03  0.35186754420E+03  0.91698581591E+02 0.  0.
         13    1    3    3    0    0  0.40219216663E+02  0.11106482001E+02 -0.23666780235E+02  0.47969321635E+02  0.00000000000E+00 0. -1.
        -13    1    3    3    0    0  0.23084896723E+03 -0.15720784774E+03 -0.11978554427E+03  0.30389822256E+03  0.00000000000E+00 0.  1.
         22    1    1    2    0    0 -0.27106818389E+03  0.14610136574E+03  0.15901728456E+04  0.16197139403E+04  0.00000000000E+00 0. -1.
<mgrwt>
<rscale>  0 0.13394526E+04</rscale>
<asrwt>0</asrwt>
<pdfrwt beam="1">  1        2 0.26294630E+00 0.13394526E+04</pdfrwt>
<pdfrwt beam="2">  1       -2 0.40373921E-01 0.13394526E+04</pdfrwt>
<totfact> 0.55013771E+01</totfact>
</mgrwt>
</event>
<event>
 6    1  0.2047711E-005  0.2459605E+04  0.7818608E-02  0.8417520E-01
         -2   -1    0    0    0  501 -0.00000000000E+00  0.00000000000E+00  0.12494062904E+04  0.12494062904E+04  0.00000000000E+00 0.  1.
          2   -1    0    0  501    0  0.00000000000E+00 -0.00000000000E+00 -0.12105060551E+04  0.12105060551E+04  0.00000000000E+00 0. -1.
         23    2    1    2    0    0  0.10419642203E+04  0.36721096423E+03  0.55609387987E+03  0.12400670296E+04  0.89400816975E+02 0.  0.
         13    1    3    3    0    0  0.17084344467E+03  0.91333949879E+02  0.78547806620E+02  0.20904337089E+03  0.00000000000E+00 0. -1.
        -13    1    3    3    0    0  0.87112077564E+03  0.27587701435E+03  0.47754607325E+03  0.10310236587E+04  0.00000000000E+00 0.  1.
         22    1    1    2    0    0 -0.10419642203E+04 -0.36721096423E+03 -0.51719364462E+03  0.12198453159E+04  0.00000000000E+00 0. -1.
<mgrwt>
<rscale>  0 0.24596047E+04</rscale>
<asrwt>0</asrwt>
<pdfrwt beam="1">  1        2 0.18623170E+00 0.24596047E+04</pdfrwt>
<pdfrwt beam="2">  1       -2 0.19221635E+00 0.24596047E+04</pdfrwt>
<totfact> 0.25023381E+00</totfact>
</mgrwt>
</event>
<event>
 6    1  0.2047711E-005  0.9990575E+03  0.7818608E-02  0.9309579E-01
          2   -1    0    0  501    0  0.00000000000E+00  0.00000000000E+00  0.71102587716E+03  0.71102587716E+03  0.00000000000E+00 0. -1.
         -2   -1    0    0    0  501 -0.00000000000E+00 -0.00000000000E+00 -0.35094220936E+03  0.35094220936E+03  0.00000000000E+00 0.  1.
         23    2    1    2    0    0  0.12197445170E+03  0.46046575495E+03  0.32638974304E+03  0.58443090585E+03  0.90126250359E+02 0.  0.
         11    1    3    3    0    0  0.40700596486E+02  0.83941992847E+02  0.28680788177E+02  0.97598075431E+02  0.00000000000E+00 0. -1.
        -11    1    3    3    0    0  0.81273855210E+02  0.37652376210E+03  0.29770895486E+03  0.48683283042E+03  0.00000000000E+00 0.  1.
         22    1    1    2    0    0 -0.12197445170E+03 -0.46046575495E+03  0.33693924760E+02  0.47753718066E+03  0.00000000000E+00 0.  1.
<mgrwt>
<rscale>  0 0.99905754E+03</rscale>
<asrwt>0</asrwt>
<pdfrwt beam="1">  1        2 0.10938860E+00 0.99905754E+03</pdfrwt>
<pdfrwt beam="2">  1       -2 0.53991109E-01 0.99905754E+03</pdfrwt>
<totfact> 0.12960958E+02</totfact>
</mgrwt>
</event>
<event>
 6    1  0.2047711E-005  0.3240859E+04  0.7818608E-02  0.8178109E-01
          1   -1    0    0  501    0  0.00000000000E+00  0.00000000000E+00  0.16234265659E+04  0.16234265659E+04  0.00000000000E+00 0. -1.
         -1   -1    0    0    0  501 -0.00000000000E+00 -0.00000000000E+00 -0.16174380770E+04  0.16174380770E+04  0.00000000000E+00 0.  1.
         23    2    1    2    0    0  0.10511917165E+04 -0.84626952260E+03  0.89765749549E+03  0.16233821090E+04  0.91675312144E+02 0.  0.
         11    1    3    3    0    0  0.64924061176E+03 -0.50448605740E+03  0.49544861035E+03  0.95994212304E+03  0.00000000000E+00 0.  1.
        -11    1    3    3    0    0  0.40195110478E+03 -0.34178346519E+03  0.40220888514E+03  0.66343998598E+03  0.00000000000E+00 0. -1.
         22    1    1    2    0    0 -0.10511917165E+04  0.84626952260E+03 -0.89166900660E+03  0.16174825338E+04  0.00000000000E+00 0.  1.
<mgrwt>
<rscale>  0 0.32408591E+04</rscale>
<asrwt>0</asrwt>
<pdfrwt beam="1">  1        1 0.24975793E+00 0.32408591E+04</pdfrwt>
<pdfrwt beam="2">  1       -1 0.24883663E+00 0.32408591E+04</pdfrwt>
<totfact> 0.31809585E-01</totfact>
</mgrwt>
</event>
<event>
 6    1  0.2047711E-005  0.1663530E+04  0.7818608E-02  0.8782442E-01
          2   -1    0    0  501    0  0.00000000000E+00  0.00000000000E+00  0.10971924776E+04  0.10971924776E+04  0.00000000000E+00 0. -1.
         -2   -1    0    0    0  501 -0.00000000000E+00 -0.00000000000E+00 -0.63054833423E+03  0.63054833423E+03  0.00000000000E+00 0.  1.
         23    2    1    2    0    0  0.79735559675E+03  0.18946618835E+03  0.99951049972E+02  0.82988937145E+03  0.83980785132E+02 0.  0.
         13    1    3    3    0    0  0.47309811137E+03  0.74461761814E+02  0.77046443564E+02  0.48507992272E+03  0.00000000000E+00 0.  1.
        -13    1    3    3    0    0  0.32425748537E+03  0.11500442654E+03  0.22904606408E+02  0.34480944874E+03  0.00000000000E+00 0. -1.
         22    1    1    2    0    0 -0.79735559675E+03 -0.18946618835E+03  0.36669309335E+03  0.89785144033E+03  0.00000000000E+00 0.  1.
<mgrwt>
<rscale>  0 0.16635298E+04</rscale>
<asrwt>0</asrwt>
<pdfrwt beam="1">  1        2 0.16879884E+00 0.16635298E+04</pdfrwt>
<pdfrwt beam="2">  1       -2 0.97007436E-01 0.16635298E+04</pdfrwt>
<totfact> 0.18526211E+01</totfact>
</mgrwt>
</event>
<event>
 6    1  0.2047711E-005  0.1636370E+04  0.7818608E-02  0.8798511E-01
         -2   -1    0    0    0  501 -0.00000000000E+00  0.00000000000E+00  0.49071928109E+03  0.49071928109E+03  0.00000000000E+00 0. -1.
          2   -1    0    0  501    0  0.00000000000E+00 -0.00000000000E+00 -0.13641749159E+04  0.13641749159E+04  0.00000000000E+00 0.  1.
         23    2    1    2    0    0 -0.61513332355E+03  0.52549926242E+03 -0.55532452079E+03  0.98555773381E+03  0.91652838052E+02 0.  0.
         13    1    3    3    0    0 -0.16556362041E+03  0.12846526592E+03 -0.19257139193E+03  0.28460213974E+03  0.00000000000E+00 0. -1.
        -13    1    3    3    0    0 -0.44956970314E+03  0.39703399651E+03 -0.36275312885E+03  0.70095559407E+03  0.00000000000E+00 0.  1.
         22    1    1    2    0    0  0.61513332355E+03 -0.52549926242E+03 -0.31813111405E+03  0.86933646322E+03  0.00000000000E+00 0. -1.
<mgrwt>
<rscale>  0 0.16363703E+04</rscale>
<asrwt>0</asrwt>
<pdfrwt beam="1">  1        2 0.20987306E+00 0.16363703E+04</pdfrwt>
<pdfrwt beam="2">  1       -2 0.75495274E-01 0.16363703E+04</pdfrwt>
<totfact> 0.22833316E+01</totfact>
</mgrwt>
</event>
<event>
 6    1  0.2047711E-005  0.3800722E+04  0.7818608E-02  0.8046000E-01
          2   -1    0    0  501    0  0.00000000000E+00  0.00000000000E+00  0.23062079587E+04  0.23062079587E+04  0.00000000000E+00 0. -1.
         -2   -1    0    0    0  501 -0.00000000000E+00 -0.00000000000E+00 -0.15659349679E+04  0.15659349679E+04  0.00000000000E+00 0.  1.
         23    2    1    2    0    0 -0.15742412137E+04  0.18228414402E+03  0.14368790736E+04  0.21410383825E+04  0.89224297451E+02 0.  0.
         13    1    3    3    0    0 -0.68593665376E+03  0.12385933894E+03  0.63575487793E+03  0.94341639461E+03  0.00000000000E+00 0. -1.
        -13    1    3    3    0    0 -0.88830455996E+03  0.58424805082E+02  0.80112419566E+03  0.11976219879E+04  0.00000000000E+00 0.  1.
         22    1    1    2    0    0  0.15742412137E+04 -0.18228414402E+03 -0.69660608276E+03  0.17311045441E+04  0.00000000000E+00 0.  1.
<mgrwt>
<rscale>  0 0.38007219E+04</rscale>
<asrwt>0</asrwt>
<pdfrwt beam="1">  1        2 0.35480123E+00 0.38007219E+04</pdfrwt>
<pdfrwt beam="2">  1       -2 0.24091307E+00 0.38007219E+04</pdfrwt>
<totfact> 0.26363720E-01</totfact>
</mgrwt>
</event>
<event>
 6    1  0.2047711E-005  0.1201085E+04  0.7818608E-02  0.9111908E-01
          2   -1    0    0  501    0  0.00000000000E+00  0.00000000000E+00  0.20458592284E+04  0.20458592284E+04  0.00000000000E+00 0. -1.
         -2   -1    0    0    0  501 -0.00000000000E+00 -0.00000000000E+00 -0.17628338990E+03  0.17628338990E+03  0.00000000000E+00 0.  1.
         23    2    1    2    0    0 -0.24467952378E+02 -0.34507027276E+03  0.18406318284E+04  0.18749972171E+04  0.89536934575E+02 0.  0.
         13    1    3    3    0    0 -0.49505060128E+02 -0.23025200548E+03  0.10835944951E+04  0.11088930367E+04  0.00000000000E+00 0. -1.
        -13    1    3    3    0    0  0.25037107750E+02 -0.11481826729E+03  0.75703733325E+03  0.76610418038E+03  0.00000000000E+00 0.  1.
         22    1    1    2    0    0  0.24467952378E+02  0.34507027276E+03  0.28944010092E+02  0.34714540118E+03  0.00000000000E+00 0.  1.
<mgrwt>
<rscale>  0 0.12010845E+04</rscale>
<asrwt>0</asrwt>
<pdfrwt beam="1">  1        2 0.31474756E+00 0.12010845E+04</pdfrwt>
<pdfrwt beam="2">  1       -2 0.27120523E-01 0.12010845E+04</pdfrwt>
<totfact> 0.76975080E+01</totfact>
</mgrwt>
</event>
<event>
 6    1  0.2047711E-005  0.2244145E+04  0.7818608E-02  0.8500275E-01
          2   -1    0    0  501    0  0.00000000000E+00  0.00000000000E+00  0.11452306389E+04  0.11452306389E+04  0.00000000000E+00 0. -1.
         -2   -1    0    0    0  501 -0.00000000000E+00 -0.00000000000E+00 -0.10993826290E+04  0.10993826290E+04  0.00000000000E+00 0.  1.
         23    2    1    2    0    0 -0.61439870078E+03 -0.93486597475E+03  0.82775258685E+02  0.11253171605E+04  0.89592488961E+02 0.  0.
         11    1    3    3    0    0 -0.19981186557E+03 -0.27823401597E+03 -0.13480496687E+02  0.34281288345E+03  0.00000000000E+00 0.  1.
        -11    1    3    3    0    0 -0.41458683521E+03 -0.65663195877E+03  0.96255755372E+02  0.78250427708E+03  0.00000000000E+00 0. -1.
         22    1    1    2    0    0  0.61439870078E+03  0.93486597475E+03 -0.36927248729E+02  0.11192961074E+04  0.00000000000E+00 0. -1.
<mgrwt>
<rscale>  0 0.22441450E+04</rscale>
<asrwt>0</asrwt>
<pdfrwt beam="1">  1        2 0.17618933E+00 0.22441450E+04</pdfrwt>
<pdfrwt beam="2">  1       -2 0.16913579E+00 0.22441450E+04</pdfrwt>
<totfact> 0.40239618E+00</totfact>
</mgrwt>
</event>
<event>
 6    1  0.2047711E-005  0.1062648E+04  0.7818608E-02  0.9242383E-01
          1   -1    0    0  501    0  0.00000000000E+00  0.00000000000E+00  0.26690361532E+03  0.26690361532E+03  0.00000000000E+00 0. -1.
         -1   -1    0    0    0  501 -0.00000000000E+00 -0.00000000000E+00 -0.10577038455E+04  0.10577038455E+04  0.00000000000E+00 0.  1.
         23    2    1    2    0    0 -0.12598674842E+03 -0.17515348908E+03  0.20617429686E+03  0.30455373033E+03  0.60776051693E+02 0.  0.
         13    1    3    3    0    0 -0.62453498471E+02 -0.38605731744E+02  0.62795067931E+02  0.96612952295E+02  0.00000000000E+00 0. -1.
        -13    1    3    3    0    0 -0.63533249951E+02 -0.13654775734E+03  0.14337922893E+03  0.20794077804E+03  0.00000000000E+00 0.  1.
         22    1    1    2    0    0  0.12598674842E+03  0.17515348908E+03 -0.99697452708E+03  0.10200537305E+04  0.00000000000E+00 0.  1.
<mgrwt>
<rscale>  0 0.10626476E+04</rscale>
<asrwt>0</asrwt>
<pdfrwt beam="1">  1        1 0.41062095E-01 0.10626476E+04</pdfrwt>
<pdfrwt beam="2">  1       -1 0.16272367E+00 0.10626476E+04</pdfrwt>
<totfact> 0.28436936E+01</totfact>
</mgrwt>
</event>
<event>
 6    1  0.2047711E-005  0.4586080E+04  0.7818608E-02  0.7895738E-01
          2   -1    0    0  501    0  0.00000000000E+00  0.00000000000E+00  0.26239249047E+04  0.26239249047E+04  0.00000000000E+00 0. -1.
         -2   -1    0    0    0  501 -0.00000000000E+00 -0.00000000000E+00 -0.20038806306E+04  0.20038806306E+04  0.00000000000E+00 0.  1.
         23    2    1    2    0    0 -0.13138895603E+04  0.10853023729E+04  0.18569640580E+04  0.25220615885E+04  0.91061110879E+02 0.  0.
         11    1    3    3    0    0 -0.40609970146E+03  0.38947773323E+03  0.59781478689E+03  0.82097039631E+03  0.00000000000E+00 0.  1.
        -11    1    3    3    0    0 -0.90778985889E+03  0.69582463964E+03  0.12591492711E+04  0.17010911922E+04  0.00000000000E+00 0. -1.
         22    1    1    2    0    0  0.13138895603E+04 -0.10853023729E+04 -0.12369197840E+04  0.21057439468E+04  0.00000000000E+00 0.  1.
<mgrwt>
<rscale>  0 0.45860799E+04</rscale>
<asrwt>0</asrwt>
<pdfrwt beam="1">  1        2 0.40368075E+00 0.45860799E+04</pdfrwt>
<pdfrwt beam="2">  1       -2 0.30828933E+00 0.45860799E+04</pdfrwt>
<totfact> 0.62670652E-02</totfact>
</mgrwt>
</event>
<event>
 6    1  0.2047711E-005  0.2679622E+04  0.7818608E-02  0.8341647E-01
          2   -1    0    0  501    0  0.00000000000E+00  0.00000000000E+00  0.14455941061E+04  0.14455941061E+04  0.00000000000E+00 0. -1.
         -2   -1    0    0    0  501 -0.00000000000E+00 -0.00000000000E+00 -0.12417684784E+04  0.12417684784E+04  0.00000000000E+00 0.  1.
         23    2    1    2    0    0 -0.60181606602E+03  0.62819644155E+03 -0.91799744722E+03  0.12677498353E+04  0.87504201639E+02 0.  0.
         11    1    3    3    0    0 -0.48921416891E+03  0.54327729472E+03 -0.80131268011E+03  0.10847039842E+04  0.00000000000E+00 0. -1.
        -11    1    3    3    0    0 -0.11260189712E+03  0.84919146830E+02 -0.11668476711E+03  0.18304585111E+03  0.00000000000E+00 0.  1.
         22    1    1    2    0    0  0.60181606602E+03 -0.62819644155E+03  0.11218230749E+04  0.14196127492E+04  0.00000000000E+00 0. -1.
<mgrwt>
<rscale>  0 0.26796218E+04</rscale>
<asrwt>0</asrwt>
<pdfrwt beam="1">  1        2 0.22239909E+00 0.26796218E+04</pdfrwt>
<pdfrwt beam="2">  1       -2 0.19104130E+00 0.26796218E+04</pdfrwt>
<totfact> 0.18269208E+00</totfact>
</mgrwt>
</event>
<event>
 6    1  0.2047711E-005  0.1881653E+04  0.7818608E-02  0.8664043E-01
          2   -1    0    0  501    0  0.00000000000E+00  0.00000000000E+00  0.95519231033E+03  0.95519231033E+03  0.00000000000E+00 0. -1.
         -2   -1    0    0    0  501 -0.00000000000E+00 -0.00000000000E+00 -0.92667704941E+03  0.92667704941E+03  0.00000000000E+00 0.  1.
         23    2    1    2    0    0  0.24688162411E+03 -0.79729154970E+03 -0.41516128792E+03  0.93663222995E+03  0.91086155058E+02 0.  0.
         13    1    3    3    0    0  0.14956881550E+03 -0.61433281426E+03 -0.30677613053E+03  0.70277110891E+03  0.00000000000E+00 0.  1.
        -13    1    3    3    0    0  0.97312808612E+02 -0.18295873544E+03 -0.10838515739E+03  0.23386112104E+03  0.00000000000E+00 0. -1.
         22    1    1    2    0    0 -0.24688162411E+03  0.79729154970E+03  0.44367654884E+03  0.94523712979E+03  0.00000000000E+00 0. -1.
<mgrwt>
<rscale>  0 0.18816533E+04</rscale>
<asrwt>0</asrwt>
<pdfrwt beam="1">  1        2 0.14695266E+00 0.18816533E+04</pdfrwt>
<pdfrwt beam="2">  1       -2 0.14256570E+00 0.18816533E+04</pdfrwt>
<totfact> 0.86535005E+00</totfact>
</mgrwt>
</event>
<event>
 6    1  0.2047711E-005  0.4796877E+04  0.7818608E-02  0.7860628E-01
          1   -1    0    0  501    0  0.00000000000E+00  0.00000000000E+00  0.21951961781E+04  0.21951961781E+04  0.00000000000E+00 0. -1.
         -1   -1    0    0    0  501 -0.00000000000E+00 -0.00000000000E+00 -0.26204984510E+04  0.26204984510E+04  0.00000000000E+00 0.  1.
         23    2    1    2    0    0 -0.18540331043E+04  0.24451138063E+03 -0.17190800177E+04  0.25416925578E+04  0.87979453818E+02 0.  0.
         11    1    3    3    0    0 -0.36327604507E+03  0.62170795601E+02 -0.38318073136E+03  0.53165982134E+03  0.00000000000E+00 0. -1.
        -11    1    3    3    0    0 -0.14907570592E+04  0.18234058503E+03 -0.13358992863E+04  0.20100327365E+04  0.00000000000E+00 0.  1.
         22    1    1    2    0    0  0.18540331043E+04 -0.24451138063E+03  0.12937777448E+04  0.22740020712E+04  0.00000000000E+00 0. -1.
<mgrwt>
<rscale>  0 0.47968774E+04</rscale>
<asrwt>0</asrwt>
<pdfrwt beam="1">  1        1 0.33772249E+00 0.47968774E+04</pdfrwt>
<pdfrwt beam="2">  1       -1 0.40315361E+00 0.47968774E+04</pdfrwt>
<totfact> 0.10964793E-02</totfact>
</mgrwt>
</event>
<event>
 6    1  0.2047711E-005  0.1094592E+04  0.7818608E-02  0.9210479E-01
         -1   -1    0    0    0  501 -0.00000000000E+00  0.00000000000E+00  0.21073168412E+03  0.21073168412E+03  0.00000000000E+00 0. -1.
          1   -1    0    0  501    0  0.00000000000E+00 -0.00000000000E+00 -0.14213958547E+04  0.14213958547E+04  0.00000000000E+00 0.  1.
         23    2    1    2    0    0 -0.50084013439E+03  0.21137888505E+03 -0.64671152945E+03  0.84882398674E+03  0.82124812875E+02 0.  0.
         11    1    3    3    0    0 -0.27601796803E+03  0.12858805094E+03 -0.30058563989E+03  0.42786976106E+03  0.00000000000E+00 0.  1.
        -11    1    3    3    0    0 -0.22482216636E+03  0.82790834107E+02 -0.34612588956E+03  0.42095422568E+03  0.00000000000E+00 0. -1.
         22    1    1    2    0    0  0.50084013439E+03 -0.21137888505E+03 -0.56395264116E+03  0.78330355210E+03  0.00000000000E+00 0.  1.
<mgrwt>
<rscale>  0 0.10945924E+04</rscale>
<asrwt>0</asrwt>
<pdfrwt beam="1">  1        1 0.21867629E+00 0.10945924E+04</pdfrwt>
<pdfrwt beam="2">  1       -1 0.32420259E-01 0.10945924E+04</pdfrwt>
<totfact> 0.65787075E+01</totfact>
</mgrwt>
</event>
<event>
 6    1  0.2047711E-005  0.3885108E+04  0.7818608E-02  0.8028134E-01
          2   -1    0    0  501    0  0.00000000000E+00  0.00000000000E+00  0.17131412970E+04  0.17131412970E+04  0.00000000000E+00 0. -1.
         -2   -1    0    0    0  501 -0.00000000000E+00 -0.00000000000E+00 -0.22026886664E+04  0.22026886664E+04  0.00000000000E+00 0.  1.
         23    2    1    2    0    0 -0.39437261256E+03  0.16742504642E+04 -0.11525053509E+04  0.20724207143E+04  0.89524627144E+02 0.  0.
         13    1    3    3    0    0 -0.34066405499E+03  0.12836910084E+04 -0.89459976770E+03  0.16013192523E+04  0.00000000000E+00 0. -1.
        -13    1    3    3    0    0 -0.53708557563E+02  0.39055945579E+03 -0.25790558324E+03  0.47110146203E+03  0.00000000000E+00 0.  1.
         22    1    1    2    0    0  0.39437261256E+03 -0.16742504642E+04  0.66295798155E+03  0.18434092491E+04  0.00000000000E+00 0. -1.
<mgrwt>
<rscale>  0 0.38851085E+04</rscale>
<asrwt>0</asrwt>
<pdfrwt beam="1">  1        2 0.26356020E+00 0.38851085E+04</pdfrwt>
<pdfrwt beam="2">  1       -2 0.33887518E+00 0.38851085E+04</pdfrwt>
<totfact> 0.14028756E-01</totfact>
</mgrwt>
</event>
<event>
 6    1  0.2047711E-005  0.4177061E+03  0.7818608E-02  0.1037815E+00
          2   -1    0    0  501    0  0.00000000000E+00  0.00000000000E+00  0.83017983585E+03  0.83017983585E+03  0.00000000000E+00 0. -1.
         -2   -1    0    0    0  501 -0.00000000000E+00 -0.00000000000E+00 -0.52542345170E+02  0.52542345170E+02  0.00000000000E+00 0.  1.
         23    2    1    2    0    0 -0.15640179360E+03  0.64963416556E+02  0.18674745072E+03  0.26804112075E+03  0.91047600351E+02 0.  0.
         11    1    3    3    0    0 -0.13819930810E+03  0.53184266552E+02  0.19499141399E+03  0.24484539305E+03  0.00000000000E+00 0.  1.
        -11    1    3    3    0    0 -0.18202485501E+02  0.11779150003E+02 -0.82439632672E+01  0.23195727701E+02  0.00000000000E+00 0. -1.
         22    1    1    2    0    0  0.15640179360E+03 -0.64963416556E+02  0.59089003995E+03  0.61468106026E+03  0.00000000000E+00 0. -1.
<mgrwt>
<rscale>  0 0.41770610E+03</rscale>
<asrwt>0</asrwt>
<pdfrwt beam="1">  1        2 0.12771997E+00 0.41770610E+03</pdfrwt>
<pdfrwt beam="2">  1       -2 0.80834383E-02 0.41770610E+03</pdfrwt>
<totfact> 0.31605278E+03</totfact>
</mgrwt>
</event>
<event>
 6    1  0.2047711E-005  0.2792548E+04  0.7818608E-02  0.8305586E-01
         -4   -1    0    0    0  501 -0.00000000000E+00  0.00000000000E+00  0.14410151733E+04  0.14410151733E+04  0.00000000000E+00 0.  1.
          4   -1    0    0  501    0  0.00000000000E+00 -0.00000000000E+00 -0.13529217693E+04  0.13529217693E+04  0.00000000000E+00 0. -1.
         23    2    1    2    0    0  0.34285807375E+03  0.90725228692E+03 -0.95882548394E+03  0.13668078214E+04  0.90326857317E+02 0.  0.
         11    1    3    3    0    0  0.13764119126E+03  0.48611779002E+03 -0.47867644788E+03  0.69597898320E+03  0.00000000000E+00 0.  1.
        -11    1    3    3    0    0  0.20521688249E+03  0.42113449689E+03 -0.48014903606E+03  0.67082883820E+03  0.00000000000E+00 0. -1.
         22    1    1    2    0    0 -0.34285807375E+03 -0.90725228692E+03  0.10469188879E+04  0.14271291213E+04  0.00000000000E+00 0.  1.
<mgrwt>
<rscale>  0 0.27925478E+04</rscale>
<asrwt>0</asrwt>
<pdfrwt beam="1">  1        4 0.20814181E+00 0.27925478E+04</pdfrwt>
<pdfrwt beam="2">  1       -4 0.22169464E+00 0.27925478E+04</pdfrwt>
<totfact> 0.19171516E-02</totfact>
</mgrwt>
</event>
<event>
 6    1  0.2047711E-005  0.2317772E+04  0.7818608E-02  0.8470947E-01
          2   -1    0    0  501    0  0.00000000000E+00  0.00000000000E+00  0.65340629970E+03  0.65340629970E+03  0.00000000000E+00 0. -1.
         -2   -1    0    0    0  501 -0.00000000000E+00 -0.00000000000E+00 -0.20554090353E+04  0.20554090353E+04  0.00000000000E+00 0.  1.
         23    2    1    2    0    0  0.41786940000E+02 -0.83243533523E+03 -0.16401207280E+04  0.18419849514E+04  0.90652208239E+02 0.  0.
         11    1    3    3    0    0  0.15398121453E+02 -0.66560595306E+02 -0.18857859255E+03  0.20057243220E+03  0.00000000000E+00 0. -1.
        -11    1    3    3    0    0  0.26388818547E+02 -0.76587473993E+03 -0.14515421355E+04  0.16414125192E+04  0.00000000000E+00 0.  1.
         22    1    1    2    0    0 -0.41786940000E+02  0.83243533523E+03  0.23811799242E+03  0.86683038365E+03  0.00000000000E+00 0. -1.
<mgrwt>
<rscale>  0 0.23177724E+04</rscale>
<asrwt>0</asrwt>
<pdfrwt beam="1">  1        2 0.10052405E+00 0.23177724E+04</pdfrwt>
<pdfrwt beam="2">  1       -2 0.31621678E+00 0.23177724E+04</pdfrwt>
<totfact> 0.10224422E+00</totfact>
</mgrwt>
</event>
<event>
 6    1  0.2047711E-005  0.1874323E+04  0.7818608E-02  0.8667744E-01
         -2   -1    0    0    0  501 -0.00000000000E+00  0.00000000000E+00  0.44395254324E+03  0.44395254324E+03  0.00000000000E+00 0.  1.
          2   -1    0    0  501    0  0.00000000000E+00 -0.00000000000E+00 -0.19783006827E+04  0.19783006827E+04  0.00000000000E+00 0. -1.
         23    2    1    2    0    0  0.83470040757E+03 -0.32117628835E+03 -0.41611586450E+03  0.99035853730E+03  0.88196604963E+02 0.  0.
         11    1    3    3    0    0  0.63665023242E+03 -0.26795747369E+03 -0.35346173229E+03  0.77592520409E+03  0.00000000000E+00 0.  1.
        -11    1    3    3    0    0  0.19805017515E+03 -0.53218814656E+02 -0.62654132208E+02  0.21443333321E+03  0.00000000000E+00 0. -1.
         22    1    1    2    0    0 -0.83470040757E+03  0.32117628835E+03 -0.11182322750E+04  0.14318946886E+04  0.00000000000E+00 0.  1.
<mgrwt>
<rscale>  0 0.18743229E+04</rscale>
<asrwt>0</asrwt>
<pdfrwt beam="1">  1        2 0.30435395E+00 0.18743229E+04</pdfrwt>
<pdfrwt beam="2">  1       -2 0.68300391E-01 0.18743229E+04</pdfrwt>
<totfact> 0.12643581E+01</totfact>
</mgrwt>
</event>
<event>
 6    1  0.2047711E-005  0.1931349E+04  0.7818608E-02  0.8639408E-01
         -2   -1    0    0    0  501 -0.00000000000E+00  0.00000000000E+00  0.53830769773E+03  0.53830769773E+03  0.00000000000E+00 0. -1.
          2   -1    0    0  501    0  0.00000000000E+00 -0.00000000000E+00 -0.17323306714E+04  0.17323306714E+04  0.00000000000E+00 0.  1.
         23    2    1    2    0    0 -0.71400254717E+03 -0.73989765332E+02  0.15745941520E+03  0.74035121628E+03  0.89734794126E+02 0.  0.
         13    1    3    3    0    0 -0.64422313613E+02 -0.69252875164E+01  0.41931259134E+02  0.77177876305E+02  0.00000000000E+00 0. -1.
        -13    1    3    3    0    0 -0.64958023355E+03 -0.67064477816E+02  0.11552815607E+03  0.66317333997E+03  0.00000000000E+00 0.  1.
         22    1    1    2    0    0  0.71400254717E+03  0.73989765332E+02 -0.13514823888E+04  0.15302871528E+04  0.00000000000E+00 0.  1.
<mgrwt>
<rscale>  0 0.19313487E+04</rscale>
<asrwt>0</asrwt>
<pdfrwt beam="1">  1        2 0.26651241E+00 0.19313487E+04</pdfrwt>
<pdfrwt beam="2">  1       -2 0.82816569E-01 0.19313487E+04</pdfrwt>
<totfact> 0.11235964E+01</totfact>
</mgrwt>
</event>
<event>
 6    1  0.2047711E-005  0.1539585E+04  0.7818608E-02  0.8858548E-01
         -1   -1    0    0    0  501 -0.00000000000E+00  0.00000000000E+00  0.65801778161E+03  0.65801778161E+03  0.00000000000E+00 0.  1.
          1   -1    0    0  501    0  0.00000000000E+00 -0.00000000000E+00 -0.90055443875E+03  0.90055443875E+03  0.00000000000E+00 0. -1.
         23    2    1    2    0    0  0.10824784107E+03 -0.12393411996E+03  0.63735989144E+03  0.66342128482E+03  0.82600900424E+02 0.  0.
         13    1    3    3    0    0  0.49956179263E+02 -0.10512489562E+03  0.49397065094E+03  0.50749765272E+03  0.00000000000E+00 0.  1.
        -13    1    3    3    0    0  0.58291661809E+02 -0.18809224338E+02  0.14338924050E+03  0.15592363210E+03  0.00000000000E+00 0. -1.
         22    1    1    2    0    0 -0.10824784107E+03  0.12393411996E+03 -0.87989654858E+03  0.89515093553E+03  0.00000000000E+00 0. -1.
<mgrwt>
<rscale>  0 0.15395854E+04</rscale>
<asrwt>0</asrwt>
<pdfrwt beam="1">  1        1 0.13854684E+00 0.15395854E+04</pdfrwt>
<pdfrwt beam="2">  1       -1 0.10123351E+00 0.15395854E+04</pdfrwt>
<totfact> 0.16246712E+01</totfact>
</mgrwt>
</event>
<event>
 6    1  0.2047711E-005  0.2085349E+04  0.7818608E-02  0.8567725E-01
          2   -1    0    0  501    0  0.00000000000E+00  0.00000000000E+00  0.25479551269E+04  0.25479551269E+04  0.00000000000E+00 0. -1.
         -2   -1    0    0    0  501 -0.00000000000E+00 -0.00000000000E+00 -0.42668319167E+03  0.42668319167E+03  0.00000000000E+00 0.  1.
         23    2    1    2    0    0 -0.47411818239E+03  0.51646634969E+03 -0.34561775824E+02  0.70767018228E+03  0.89872294400E+02 0.  0.
         11    1    3    3    0    0 -0.42352960548E+03  0.49463405829E+03 -0.39298234444E+02  0.65236840019E+03  0.00000000000E+00 0.  1.
        -11    1    3    3    0    0 -0.50588576908E+02  0.21832291400E+02  0.47364586199E+01  0.55301782084E+02  0.00000000000E+00 0. -1.
         22    1    1    2    0    0  0.47411818239E+03 -0.51646634969E+03  0.21558337110E+04  0.22669681363E+04  0.00000000000E+00 0. -1.
<mgrwt>
<rscale>  0 0.20853485E+04</rscale>
<asrwt>0</asrwt>
<pdfrwt beam="1">  1        2 0.39199309E+00 0.20853485E+04</pdfrwt>
<pdfrwt beam="2">  1       -2 0.65643569E-01 0.20853485E+04</pdfrwt>
<totfact> 0.64402903E+00</totfact>
</mgrwt>
</event>
<event>
 6    1  0.2047711E-005  0.8395923E+03  0.7818608E-02  0.9504413E-01
          2   -1    0    0  501    0  0.00000000000E+00  0.00000000000E+00  0.15850957931E+04  0.15850957931E+04  0.00000000000E+00 0. -1.
         -2   -1    0    0    0  501 -0.00000000000E+00 -0.00000000000E+00 -0.11117864477E+03  0.11117864477E+03  0.00000000000E+00 0.  1.
         23    2    1    2    0    0 -0.22469958426E+03  0.10502604400E+03  0.73673190258E+02  0.27423241487E+03  0.90858710722E+02 0.  0.
         13    1    3    3    0    0 -0.18701229088E+03  0.56218245674E+02  0.82401540539E+02  0.21195306549E+03  0.00000000000E+00 0.  1.
        -13    1    3    3    0    0 -0.37687293380E+02  0.48807798328E+02 -0.87283502812E+01  0.62279349375E+02  0.00000000000E+00 0. -1.
         22    1    1    2    0    0  0.22469958426E+03 -0.10502604400E+03  0.14002439580E+04  0.14220420230E+04  0.00000000000E+00 0. -1.
<mgrwt>
<rscale>  0 0.83959229E+03</rscale>
<asrwt>0</asrwt>
<pdfrwt beam="1">  1        2 0.24386087E+00 0.83959229E+03</pdfrwt>
<pdfrwt beam="2">  1       -2 0.17104408E-01 0.83959229E+03</pdfrwt>
<totfact> 0.32114995E+02</totfact>
</mgrwt>
</event>
<event>
 6    1  0.2047711E-005  0.2728678E+04  0.7818608E-02  0.8325759E-01
         -2   -1    0    0    0  501 -0.00000000000E+00  0.00000000000E+00  0.15697678913E+04  0.15697678913E+04  0.00000000000E+00 0.  1.
          2   -1    0    0  501    0  0.00000000000E+00 -0.00000000000E+00 -0.11857938918E+04  0.11857938918E+04  0.00000000000E+00 0. -1.
         23    2    1    2    0    0  0.91962458040E+03 -0.84416177400E+03  0.74500434163E+03  0.14560767399E+04  0.82519899592E+02 0.  0.
         13    1    3    3    0    0  0.72230742649E+03 -0.66828842914E+03  0.54731977689E+03  0.11260090502E+04  0.00000000000E+00 0. -1.
        -13    1    3    3    0    0  0.19731715391E+03 -0.17587334486E+03  0.19768456474E+03  0.33006768972E+03  0.00000000000E+00 0.  1.
         22    1    1    2    0    0 -0.91962458040E+03  0.84416177400E+03 -0.36103034213E+03  0.12994850432E+04  0.00000000000E+00 0. -1.
<mgrwt>
<rscale>  0 0.27286782E+04</rscale>
<asrwt>0</asrwt>
<pdfrwt beam="1">  1        2 0.18242983E+00 0.27286782E+04</pdfrwt>
<pdfrwt beam="2">  1       -2 0.24150275E+00 0.27286782E+04</pdfrwt>
<totfact> 0.12257641E+00</totfact>
</mgrwt>
</event>
<event>
 6    1  0.2047711E-005  0.1308872E+04  0.7818608E-02  0.9022559E-01
          2   -1    0    0  501    0  0.00000000000E+00  0.00000000000E+00  0.24459891674E+04  0.24459891674E+04  0.00000000000E+00 0. -1.
         -2   -1    0    0    0  501 -0.00000000000E+00 -0.00000000000E+00 -0.17509756594E+03  0.17509756594E+03  0.00000000000E+00 0.  1.
         23    2    1    2    0    0  0.25733479747E+03  0.25588400144E+03  0.22239402049E+04  0.22551601645E+04  0.90219246567E+02 0.  0.
         11    1    3    3    0    0  0.11582299166E+03  0.14392904946E+03  0.88182830432E+03  0.90097263830E+03  0.00000000000E+00 0.  1.
        -11    1    3    3    0    0  0.14151180581E+03  0.11195495198E+03  0.13421119005E+04  0.13541875262E+04  0.00000000000E+00 0. -1.
         22    1    1    2    0    0 -0.25733479747E+03 -0.25588400144E+03  0.46951396638E+02  0.36592656890E+03  0.00000000000E+00 0.  1.
<mgrwt>
<rscale>  0 0.13088724E+04</rscale>
<asrwt>0</asrwt>
<pdfrwt beam="1">  1        2 0.37630600E+00 0.13088724E+04</pdfrwt>
<pdfrwt beam="2">  1       -2 0.26938089E-01 0.13088724E+04</pdfrwt>
<totfact> 0.46058186E+01</totfact>
</mgrwt>
</event>
<event>
 6    1  0.2047711E-005  0.1430190E+04  0.7818608E-02  0.8932251E-01
          2   -1    0    0  501    0  0.00000000000E+00  0.00000000000E+00  0.28191716069E+04  0.28191716069E+04  0.00000000000E+00 0.  1.
         -2   -1    0    0    0  501 -0.00000000000E+00 -0.00000000000E+00 -0.18138699117E+03  0.18138699117E+03  0.00000000000E+00 0. -1.
         23    2    1    2    0    0 -0.25137036449E+03  0.64086914078E+03  0.17070272478E+04  0.18428843806E+04  0.91545070395E+02 0.  0.
         13    1    3    3    0    0 -0.62820660264E+02  0.25040665405E+03  0.56027265325E+03  0.61689170340E+03  0.00000000000E+00 0.  1.
        -13    1    3    3    0    0 -0.18854970422E+03  0.39046248674E+03  0.11467545946E+04  0.12259926772E+04  0.00000000000E+00 0. -1.
         22    1    1    2    0    0  0.25137036449E+03 -0.64086914078E+03  0.93075736788E+03  0.11576742174E+04  0.00000000000E+00 0. -1.
<mgrwt>
<rscale>  0 0.14301903E+04</rscale>
<asrwt>0</asrwt>
<pdfrwt beam="1">  1        2 0.43371868E+00 0.14301903E+04</pdfrwt>
<pdfrwt beam="2">  1       -2 0.27905693E-01 0.14301903E+04</pdfrwt>
<totfact> 0.25812057E+01</totfact>
</mgrwt>
</event>
<event>
 6    1  0.2047711E-005  0.3193364E+04  0.7818608E-02  0.8190572E-01
          2   -1    0    0  501    0  0.00000000000E+00  0.00000000000E+00  0.35706375343E+04  0.35706375343E+04  0.00000000000E+00 0. -1.
         -2   -1    0    0    0  501 -0.00000000000E+00 -0.00000000000E+00 -0.71398830466E+03  0.71398830466E+03  0.00000000000E+00 0.  1.
         23    2    1    2    0    0 -0.32524495663E+03  0.15578351429E+04  0.12790759998E+04  0.20437840530E+04  0.91559969272E+02 0.  0.
         11    1    3    3    0    0 -0.16868809719E+03  0.59792323175E+03  0.51434921682E+03  0.80655004931E+03  0.00000000000E+00 0. -1.
        -11    1    3    3    0    0 -0.15655685944E+03  0.95991191111E+03  0.76472678301E+03  0.12372340037E+04  0.00000000000E+00 0.  1.
         22    1    1    2    0    0  0.32524495663E+03 -0.15578351429E+04  0.15775732298E+04  0.22408417859E+04  0.00000000000E+00 0.  1.
<mgrwt>
<rscale>  0 0.31933640E+04</rscale>
<asrwt>0</asrwt>
<pdfrwt beam="1">  1        2 0.54932884E+00 0.31933640E+04</pdfrwt>
<pdfrwt beam="2">  1       -2 0.10984436E+00 0.31933640E+04</pdfrwt>
<totfact> 0.40197801E-01</totfact>
</mgrwt>
</event>
<event>
 6    1  0.2225760E-005  0.2714026E+04  0.7818608E-02  0.8330468E-01
         -2   -1    0    0    0  501 -0.00000000000E+00  0.00000000000E+00  0.14311639372E+04  0.14311639372E+04  0.00000000000E+00 0.  1.
          2   -1    0    0  501    0  0.00000000000E+00 -0.00000000000E+00 -0.12867039841E+04  0.12867039841E+04  0.00000000000E+00 0. -1.
         23    2    1    2    0    0  0.10114106578E+04  0.13033875280E+03  0.96642232923E+03  0.14080733356E+04  0.93587877342E+02 0.  0.
         11    1    3    3    0    0  0.68195145957E+03  0.51482659881E+02  0.68052321910E+03  0.96479018922E+03  0.00000000000E+00 0. -1.
        -11    1    3    3    0    0  0.32945919821E+03  0.78856092916E+02  0.28589911013E+03  0.44328314636E+03  0.00000000000E+00 0.  1.
         22    1    1    2    0    0 -0.10114106578E+04 -0.13033875280E+03 -0.82196237605E+03  0.13097945857E+04  0.00000000000E+00 0. -1.
<mgrwt>
<rscale>  0 0.27140260E+04</rscale>
<asrwt>0</asrwt>
<pdfrwt beam="1">  1        2 0.19795446E+00 0.27140260E+04</pdfrwt>
<pdfrwt beam="2">  1       -2 0.22017907E+00 0.27140260E+04</pdfrwt>
<totfact> 0.14538472E+00</totfact>
</mgrwt>
</event>
<event>
 6    1  0.2047711E-005  0.2979823E+04  0.7818608E-02  0.8249516E-01
          2   -1    0    0  501    0  0.00000000000E+00  0.00000000000E+00  0.28492578555E+04  0.28492578555E+04  0.00000000000E+00 0. -1.
         -2   -1    0    0    0  501 -0.00000000000E+00 -0.00000000000E+00 -0.77909298162E+03  0.77909298162E+03  0.00000000000E+00 0.  1.
         23    2    1    2    0    0 -0.38346294986E+03  0.51979613136E+03 -0.59688440920E+03  0.88419637163E+03  0.91106385934E+02 0.  0.
         11    1    3    3    0    0 -0.27254713115E+03  0.30318118172E+03 -0.34657045534E+03  0.53508116035E+03  0.00000000000E+00 0. -1.
        -11    1    3    3    0    0 -0.11091581872E+03  0.21661494964E+03 -0.25031395386E+03  0.34911521128E+03  0.00000000000E+00 0.  1.
         22    1    1    2    0    0  0.38346294986E+03 -0.51979613136E+03  0.26670492831E+04  0.27441544655E+04  0.00000000000E+00 0. -1.
<mgrwt>
<rscale>  0 0.29798233E+04</rscale>
<asrwt>0</asrwt>
<pdfrwt beam="1">  1        2 0.43834736E+00 0.29798233E+04</pdfrwt>
<pdfrwt beam="2">  1       -2 0.11986046E+00 0.29798233E+04</pdfrwt>
<totfact> 0.98505499E-01</totfact>
</mgrwt>
</event>
<event>
 6    1  0.2047711E-005  0.7377945E+03  0.7818608E-02  0.9654696E-01
         -2   -1    0    0    0  501 -0.00000000000E+00  0.00000000000E+00  0.11866504103E+03  0.11866504103E+03  0.00000000000E+00 0.  1.
          2   -1    0    0  501    0  0.00000000000E+00 -0.00000000000E+00 -0.11468009095E+04  0.11468009095E+04  0.00000000000E+00 0. -1.
         23    2    1    2    0    0  0.19562894191E+02  0.27069364048E+03 -0.93615760516E+03  0.97890399431E+03  0.90577119293E+02 0.  0.
         13    1    3    3    0    0  0.10275883915E+02  0.21941665591E+03 -0.85249596864E+03  0.88034007021E+03  0.00000000000E+00 0. -1.
        -13    1    3    3    0    0  0.92870102753E+01  0.51276984570E+02 -0.83661636526E+02  0.98563924093E+02  0.00000000000E+00 0.  1.
         22    1    1    2    0    0 -0.19562894191E+02 -0.27069364048E+03 -0.91978263267E+02  0.28656195619E+03  0.00000000000E+00 0.  1.
<mgrwt>
<rscale>  0 0.73779449E+03</rscale>
<asrwt>0</asrwt>
<pdfrwt beam="1">  1        2 0.17643091E+00 0.73779449E+03</pdfrwt>
<pdfrwt beam="2">  1       -2 0.18256160E-01 0.73779449E+03</pdfrwt>
<totfact> 0.51417793E+02</totfact>
</mgrwt>
</event>
<event>
 6    1  0.2047711E-005  0.4771455E+04  0.7818608E-02  0.7864763E-01
          2   -1    0    0  501    0  0.00000000000E+00  0.00000000000E+00  0.25121422041E+04  0.25121422041E+04  0.00000000000E+00 0. -1.
         -2   -1    0    0    0  501 -0.00000000000E+00 -0.00000000000E+00 -0.22656744661E+04  0.22656744661E+04  0.00000000000E+00 0.  1.
         23    2    1    2    0    0 -0.85752169174E+02  0.15048399559E+04 -0.17273457548E+04  0.22943037487E+04  0.90606884325E+02 0.  0.
         13    1    3    3    0    0 -0.92821267979E+02  0.86571554737E+03 -0.97951581424E+03  0.13105458508E+04  0.00000000000E+00 0.  1.
        -13    1    3    3    0    0  0.70690988050E+01  0.63912440849E+03 -0.74782994055E+03  0.98375789789E+03  0.00000000000E+00 0. -1.
         22    1    1    2    0    0  0.85752169174E+02 -0.15048399559E+04  0.19738134927E+04  0.24835129215E+04  0.00000000000E+00 0. -1.
<mgrwt>
<rscale>  0 0.47714553E+04</rscale>
<asrwt>0</asrwt>
<pdfrwt beam="1">  1        2 0.38648341E+00 0.47714553E+04</pdfrwt>
<pdfrwt beam="2">  1       -2 0.34856531E+00 0.47714553E+04</pdfrwt>
<totfact> 0.40337740E-02</totfact>
</mgrwt>
</event>
<event>
 6    1  0.2047711E-005  0.7910097E+03  0.7818608E-02  0.9573122E-01
         -2   -1    0    0    0  501 -0.00000000000E+00  0.00000000000E+00  0.24226651153E+03  0.24226651153E+03  0.00000000000E+00 0.  1.
          2   -1    0    0  501    0  0.00000000000E+00 -0.00000000000E+00 -0.64566951842E+03  0.64566951842E+03  0.00000000000E+00 0. -1.
         23    2    1    2    0    0  0.82434681202E+02 -0.76282044536E+02 -0.62388095381E+03  0.64049926619E+03  0.91637538551E+02 0.  0.
         11    1    3    3    0    0 -0.58686023164E+01  0.77373848541E+01 -0.17781563928E+03  0.17808062553E+03  0.00000000000E+00 0. -1.
        -11    1    3    3    0    0  0.88303283518E+02 -0.84019429390E+02 -0.44606531454E+03  0.46241864066E+03  0.00000000000E+00 0.  1.
         22    1    1    2    0    0 -0.82434681202E+02  0.76282044536E+02  0.22047794692E+03  0.24743676377E+03  0.00000000000E+00 0.  1.
<mgrwt>
<rscale>  0 0.79100974E+03</rscale>
<asrwt>0</asrwt>
<pdfrwt beam="1">  1        2 0.99333770E-01 0.79100974E+03</pdfrwt>
<pdfrwt beam="2">  1       -2 0.37271772E-01 0.79100974E+03</pdfrwt>
<totfact> 0.30946489E+02</totfact>
</mgrwt>
</event>
<event>
 6    1  0.2047711E-005  0.4200643E+04  0.7818608E-02  0.7965250E-01
         -2   -1    0    0    0  501 -0.00000000000E+00  0.00000000000E+00  0.12954372348E+04  0.12954372348E+04  0.00000000000E+00 0.  1.
          2   -1    0    0  501    0  0.00000000000E+00 -0.00000000000E+00 -0.34052980866E+04  0.34052980866E+04  0.00000000000E+00 0. -1.
         23    2    1    2    0    0  0.46569852992E+02 -0.20958903163E+04 -0.11789020554E+04  0.24069155269E+04  0.92235178021E+02 0.  0.
         13    1    3    3    0    0 -0.25980993586E+02 -0.60038901049E+03 -0.32178092897E+03  0.68167803411E+03  0.00000000000E+00 0. -1.
        -13    1    3    3    0    0  0.72550846577E+02 -0.14955013058E+04 -0.85712112639E+03  0.17252374927E+04  0.00000000000E+00 0.  1.
         22    1    1    2    0    0 -0.46569852992E+02  0.20958903163E+04 -0.93095879646E+03  0.22938197946E+04  0.00000000000E+00 0. -1.
<mgrwt>
<rscale>  0 0.42006428E+04</rscale>
<asrwt>0</asrwt>
<pdfrwt beam="1">  1        2 0.52389201E+00 0.42006428E+04</pdfrwt>
<pdfrwt beam="2">  1       -2 0.19929804E+00 0.42006428E+04</pdfrwt>
<totfact> 0.98499439E-02</totfact>
</mgrwt>
</event>
<event>
 6    1  0.2047711E-005  0.3898833E+04  0.7818608E-02  0.8025272E-01
         -2   -1    0    0    0  501 -0.00000000000E+00  0.00000000000E+00  0.20043986190E+04  0.20043986190E+04  0.00000000000E+00 0.  1.
          2   -1    0    0  501    0  0.00000000000E+00 -0.00000000000E+00 -0.18959428254E+04  0.18959428254E+04  0.00000000000E+00 0. -1.
         23    2    1    2    0    0 -0.20252454511E+03  0.18526116242E+04 -0.51412149012E+03  0.19354525173E+04  0.92029988132E+02 0.  0.
         13    1    3    3    0    0 -0.50460113054E+02  0.81237753930E+03 -0.25040709651E+03  0.85159098360E+03  0.00000000000E+00 0. -1.
        -13    1    3    3    0    0 -0.15206443206E+03  0.10402340849E+04 -0.26371439361E+03  0.10838615337E+04  0.00000000000E+00 0.  1.
         22    1    1    2    0    0  0.20252454511E+03 -0.18526116242E+04  0.62257728371E+03  0.19648889270E+04  0.00000000000E+00 0.  1.
<mgrwt>
<rscale>  0 0.38988333E+04</rscale>
<asrwt>0</asrwt>
<pdfrwt beam="1">  1        2 0.29168351E+00 0.38988333E+04</pdfrwt>
<pdfrwt beam="2">  1       -2 0.30836902E+00 0.38988333E+04</pdfrwt>
<totfact> 0.17143425E-01</totfact>
</mgrwt>
</event>
<event>
 6    1  0.2047711E-005  0.3908437E+04  0.7818608E-02  0.8023277E-01
         -2   -1    0    0    0  501 -0.00000000000E+00  0.00000000000E+00  0.11513940199E+04  0.11513940199E+04  0.00000000000E+00 0.  1.
          2   -1    0    0  501    0  0.00000000000E+00 -0.00000000000E+00 -0.33168227672E+04  0.33168227672E+04  0.00000000000E+00 0. -1.
         23    2    1    2    0    0 -0.48037616235E+03 -0.36657489115E+03 -0.32066339829E+04  0.32643701396E+04  0.92046184005E+02 0.  0.
         13    1    3    3    0    0 -0.43726231231E+03 -0.31033359098E+03 -0.26920579402E+04  0.27449373802E+04  0.00000000000E+00 0. -1.
        -13    1    3    3    0    0 -0.43113850043E+02 -0.56241300164E+02 -0.51457604265E+03  0.51943275944E+03  0.00000000000E+00 0.  1.
         22    1    1    2    0    0  0.48037616235E+03  0.36657489115E+03  0.10412052356E+04  0.12038466476E+04  0.00000000000E+00 0.  1.
<mgrwt>
<rscale>  0 0.39084370E+04</rscale>
<asrwt>0</asrwt>
<pdfrwt beam="1">  1        2 0.51028042E+00 0.39084370E+04</pdfrwt>
<pdfrwt beam="2">  1       -2 0.17713754E+00 0.39084370E+04</pdfrwt>
<totfact> 0.16351994E-01</totfact>
</mgrwt>
</event>
<event>
 6    1  0.2047711E-005  0.6138055E+03  0.7818608E-02  0.9877171E-01
          2   -1    0    0  501    0  0.00000000000E+00  0.00000000000E+00  0.16505208030E+03  0.16505208030E+03  0.00000000000E+00 0. -1.
         -2   -1    0    0    0  501 -0.00000000000E+00 -0.00000000000E+00 -0.57066405845E+03  0.57066405845E+03  0.00000000000E+00 0.  1.
         23    2    1    2    0    0 -0.25089774837E+03  0.12833844530E+03 -0.83234306542E+02  0.30752482656E+03  0.90681489224E+02 0.  0.
         13    1    3    3    0    0 -0.16793638786E+03  0.12224976689E+03 -0.32933667142E+02  0.21031467449E+03  0.00000000000E+00 0. -1.
        -13    1    3    3    0    0 -0.82961360506E+02  0.60886784025E+01 -0.50300639400E+02  0.97210152071E+02  0.00000000000E+00 0.  1.
         22    1    1    2    0    0  0.25089774837E+03 -0.12833844530E+03 -0.32237767161E+03  0.42819131218E+03  0.00000000000E+00 0.  1.
<mgrwt>
<rscale>  0 0.61380547E+03</rscale>
<asrwt>0</asrwt>
<pdfrwt beam="1">  1        2 0.25392628E-01 0.61380547E+03</pdfrwt>
<pdfrwt beam="2">  1       -2 0.87794469E-01 0.61380547E+03</pdfrwt>
<totfact> 0.24359487E+02</totfact>
</mgrwt>
</event>
<event>
 6    1  0.2047711E-005  0.9584647E+03  0.7818608E-02  0.9355311E-01
          2   -1    0    0  501    0  0.00000000000E+00  0.00000000000E+00  0.16160398968E+04  0.16160398968E+04  0.00000000000E+00 0. -1.
         -2   -1    0    0    0  501 -0.00000000000E+00 -0.00000000000E+00 -0.14211508968E+03  0.14211508968E+03  0.00000000000E+00 0.  1.
         23    2    1    2    0    0  0.30096447697E+03  0.27670499031E+03  0.11869102352E+04  0.12586325820E+04  0.90855941078E+02 0.  0.
         11    1    3    3    0    0  0.52385253427E+02  0.10243483117E+03  0.31023140573E+03  0.33087857971E+03  0.00000000000E+00 0.  1.
        -11    1    3    3    0    0  0.24857922354E+03  0.17427015914E+03  0.87667882944E+03  0.92775400227E+03  0.00000000000E+00 0. -1.
         22    1    1    2    0    0 -0.30096447697E+03 -0.27670499031E+03  0.28701457191E+03  0.49952240445E+03  0.00000000000E+00 0.  1.
<mgrwt>
<rscale>  0 0.95846472E+03</rscale>
<asrwt>0</asrwt>
<pdfrwt beam="1">  1        2 0.24862151E+00 0.95846472E+03</pdfrwt>
<pdfrwt beam="2">  1       -2 0.21863861E-01 0.95846472E+03</pdfrwt>
<totfact> 0.19953245E+02</totfact>
</mgrwt>
</event>
<event>
 6    1  0.2047711E-005  0.1788586E+04  0.7818608E-02  0.8712393E-01
          2   -1    0    0  501    0  0.00000000000E+00  0.00000000000E+00  0.15204825159E+04  0.15204825159E+04  0.00000000000E+00 0. -1.
         -2   -1    0    0    0  501 -0.00000000000E+00 -0.00000000000E+00 -0.52599112103E+03  0.52599112103E+03  0.00000000000E+00 0.  1.
         23    2    1    2    0    0 -0.35509038914E+03 -0.77988192339E+03  0.21541518130E+03  0.88834378868E+03  0.91902054717E+02 0.  0.
         13    1    3    3    0    0 -0.27408202189E+03 -0.52556820044E+03  0.11907012481E+03  0.60458298245E+03  0.00000000000E+00 0.  1.
        -13    1    3    3    0    0 -0.81008367242E+02 -0.25431372295E+03  0.96345056496E+02  0.28376080623E+03  0.00000000000E+00 0. -1.
         22    1    1    2    0    0  0.35509038914E+03  0.77988192339E+03  0.77907621359E+03  0.11581298483E+04  0.00000000000E+00 0. -1.
<mgrwt>
<rscale>  0 0.17885864E+04</rscale>
<asrwt>0</asrwt>
<pdfrwt beam="1">  1        2 0.23392038E+00 0.17885864E+04</pdfrwt>
<pdfrwt beam="2">  1       -2 0.80921712E-01 0.17885864E+04</pdfrwt>
<totfact> 0.15732868E+01</totfact>
</mgrwt>
</event>
<event>
 6    1  0.2047711E-005  0.3778890E+04  0.7818608E-02  0.8050700E-01
         -2   -1    0    0    0  501 -0.00000000000E+00  0.00000000000E+00  0.14346572176E+04  0.14346572176E+04  0.00000000000E+00 0.  1.
          2   -1    0    0  501    0  0.00000000000E+00 -0.00000000000E+00 -0.24884015500E+04  0.24884015500E+04  0.00000000000E+00 0. -1.
         23    2    1    2    0    0 -0.29027231793E+03 -0.38982730968E+03 -0.24215553622E+04  0.24714629689E+04  0.89305566826E+02 0.  0.
         13    1    3    3    0    0 -0.21953313900E+03 -0.33453402322E+03 -0.20904213296E+04  0.21283724173E+04  0.00000000000E+00 0. -1.
        -13    1    3    3    0    0 -0.70739178929E+02 -0.55293286469E+02 -0.33113403264E+03  0.34309055151E+03  0.00000000000E+00 0.  1.
         22    1    1    2    0    0  0.29027231793E+03  0.38982730968E+03  0.13678110298E+04  0.14515957988E+04  0.00000000000E+00 0.  1.
<mgrwt>
<rscale>  0 0.37788904E+04</rscale>
<asrwt>0</asrwt>
<pdfrwt beam="1">  1        2 0.38283100E+00 0.37788904E+04</pdfrwt>
<pdfrwt beam="2">  1       -2 0.22071650E+00 0.37788904E+04</pdfrwt>
<totfact> 0.27773037E-01</totfact>
</mgrwt>
</event>
<event>
 6    1  0.2047711E-005  0.1016561E+04  0.7818608E-02  0.9290565E-01
         -2   -1    0    0    0  501 -0.00000000000E+00  0.00000000000E+00  0.15379806922E+03  0.15379806922E+03  0.00000000000E+00 0. -1.
          2   -1    0    0  501    0  0.00000000000E+00 -0.00000000000E+00 -0.16797951975E+04  0.16797951975E+04  0.00000000000E+00 0.  1.
         23    2    1    2    0    0  0.31107351281E+03 -0.29147383141E+02 -0.54013562759E+02  0.32881689879E+03  0.87102167889E+02 0.  0.
         13    1    3    3    0    0  0.17097336335E+03 -0.18407225754E+02 -0.73406190858E+02  0.18697375696E+03  0.00000000000E+00 0. -1.
        -13    1    3    3    0    0  0.14010014946E+03 -0.10740157387E+02  0.19392628099E+02  0.14184314183E+03  0.00000000000E+00 0.  1.
         22    1    1    2    0    0 -0.31107351281E+03  0.29147383141E+02 -0.14719835655E+04  0.15047763679E+04  0.00000000000E+00 0.  1.
<mgrwt>
<rscale>  0 0.10165614E+04</rscale>
<asrwt>0</asrwt>
<pdfrwt beam="1">  1        2 0.25843002E+00 0.10165614E+04</pdfrwt>
<pdfrwt beam="2">  1       -2 0.23661242E-01 0.10165614E+04</pdfrwt>
<totfact> 0.15912655E+02</totfact>
</mgrwt>
</event>
<event>
 6    1  0.2047711E-005  0.1610537E+04  0.7818608E-02  0.8814101E-01
         -1   -1    0    0    0  501 -0.00000000000E+00  0.00000000000E+00  0.41453965748E+03  0.41453965748E+03  0.00000000000E+00 0.  1.
          1   -1    0    0  501    0  0.00000000000E+00 -0.00000000000E+00 -0.15642831894E+04  0.15642831894E+04  0.00000000000E+00 0. -1.
         23    2    1    2    0    0  0.65725818625E+02  0.32661563164E+03  0.32036348532E+03  0.47143693206E+03  0.92856685892E+02 0.  0.
         13    1    3    3    0    0  0.72468742627E+02  0.18713079809E+03  0.14662840995E+03  0.24853479607E+03  0.00000000000E+00 0.  1.
        -13    1    3    3    0    0 -0.67429240014E+01  0.13948483355E+03  0.17373507537E+03  0.22290213599E+03  0.00000000000E+00 0. -1.
         22    1    1    2    0    0 -0.65725818625E+02 -0.32661563164E+03 -0.14701070173E+04  0.15073859149E+04  0.00000000000E+00 0. -1.
<mgrwt>
<rscale>  0 0.16105371E+04</rscale>
<asrwt>0</asrwt>
<pdfrwt beam="1">  1        1 0.24065895E+00 0.16105371E+04</pdfrwt>
<pdfrwt beam="2">  1       -1 0.63775332E-01 0.16105371E+04</pdfrwt>
<totfact> 0.14115533E+01</totfact>
</mgrwt>
</event>
<event>
 6    1  0.2047711E-005  0.8811190E+03  0.7818608E-02  0.9449496E-01
         -2   -1    0    0    0  501 -0.00000000000E+00  0.00000000000E+00  0.17682722384E+03  0.17682722384E+03  0.00000000000E+00 0.  1.
          2   -1    0    0  501    0  0.00000000000E+00 -0.00000000000E+00 -0.10976402055E+04  0.10976402055E+04  0.00000000000E+00 0. -1.
         23    2    1    2    0    0 -0.11597146295E+03 -0.41874090652E+03 -0.41282494706E+03  0.60600264319E+03  0.89562490087E+02 0.  0.
         11    1    3    3    0    0 -0.81588044765E+02 -0.16155291891E+03 -0.13453476486E+03  0.22551176824E+03  0.00000000000E+00 0.  1.
        -11    1    3    3    0    0 -0.34383418187E+02 -0.25718798761E+03 -0.27829018220E+03  0.38049087496E+03  0.00000000000E+00 0. -1.
         22    1    1    2    0    0  0.11597146295E+03  0.41874090652E+03 -0.50798803455E+03  0.66846478610E+03  0.00000000000E+00 0. -1.
<mgrwt>
<rscale>  0 0.88111899E+03</rscale>
<asrwt>0</asrwt>
<pdfrwt beam="1">  1        2 0.16886772E+00 0.88111899E+03</pdfrwt>
<pdfrwt beam="2">  1       -2 0.27204188E-01 0.88111899E+03</pdfrwt>
<totfact> 0.26917682E+02</totfact>
</mgrwt>
</event>
<event>
 6    1  0.2047711E-005  0.2560814E+04  0.7818608E-02  0.8381635E-01
         -2   -1    0    0    0  501 -0.00000000000E+00  0.00000000000E+00  0.71074344698E+03  0.71074344698E+03  0.00000000000E+00 0. -1.
          2   -1    0    0  501    0  0.00000000000E+00 -0.00000000000E+00 -0.23066578027E+04  0.23066578027E+04  0.00000000000E+00 0.  1.
         23    2    1    2    0    0 -0.12213941722E+04  0.30243189464E+03 -0.53022548823E+03  0.13684738598E+04  0.91174896821E+02 0.  0.
         11    1    3    3    0    0 -0.22445962071E+03  0.20011437036E+02 -0.99980571074E+02  0.24653335177E+03  0.00000000000E+00 0.  1.
        -11    1    3    3    0    0 -0.99693455149E+03  0.28242045760E+03 -0.43024491715E+03  0.11219405080E+04  0.00000000000E+00 0. -1.
         22    1    1    2    0    0  0.12213941722E+04 -0.30243189464E+03 -0.10656888675E+04  0.16489273899E+04  0.00000000000E+00 0. -1.
<mgrwt>
<rscale>  0 0.25608139E+04</rscale>
<asrwt>0</asrwt>
<pdfrwt beam="1">  1        2 0.35487043E+00 0.25608139E+04</pdfrwt>
<pdfrwt beam="2">  1       -2 0.10934515E+00 0.25608139E+04</pdfrwt>
<totfact> 0.26581788E+00</totfact>
</mgrwt>
</event>
<event>
 6    1  0.2047711E-005  0.1784621E+04  0.7818608E-02  0.8714521E-01
         -2   -1    0    0    0  501 -0.00000000000E+00  0.00000000000E+00  0.96093862583E+03  0.96093862583E+03  0.00000000000E+00 0.  1.
          2   -1    0    0  501    0  0.00000000000E+00 -0.00000000000E+00 -0.82858356154E+03  0.82858356154E+03  0.00000000000E+00 0. -1.
         23    2    1    2    0    0 -0.13073741232E+03  0.54032765490E+03 -0.63061737201E+03  0.84550249257E+03  0.90277070357E+02 0.  0.
         11    1    3    3    0    0 -0.66369040746E+02  0.38702191998E+03 -0.39358227022E+03  0.55596566401E+03  0.00000000000E+00 0.  1.
        -11    1    3    3    0    0 -0.64368371579E+02  0.15330573492E+03 -0.23703510178E+03  0.28953682856E+03  0.00000000000E+00 0. -1.
         22    1    1    2    0    0  0.13073741232E+03 -0.54032765490E+03  0.76297243629E+03  0.94401969480E+03  0.00000000000E+00 0.  1.
<mgrwt>
<rscale>  0 0.17846209E+04</rscale>
<asrwt>0</asrwt>
<pdfrwt beam="1">  1        2 0.12747439E+00 0.17846209E+04</pdfrwt>
<pdfrwt beam="2">  1       -2 0.14783671E+00 0.17846209E+04</pdfrwt>
<totfact> 0.96679381E+00</totfact>
</mgrwt>
</event>
<event>
 6    1  0.2047711E-005  0.4498915E+04  0.7818608E-02  0.7910827E-01
         -2   -1    0    0    0  501 -0.00000000000E+00  0.00000000000E+00  0.18659372840E+04  0.18659372840E+04  0.00000000000E+00 0. -1.
          2   -1    0    0  501    0  0.00000000000E+00 -0.00000000000E+00 -0.27118053803E+04  0.27118053803E+04  0.00000000000E+00 0.  1.
         23    2    1    2    0    0  0.63436345922E+03 -0.64801403110E+03 -0.25169031839E+04  0.26765068960E+04  0.80921839686E+02 0.  0.
         11    1    3    3    0    0  0.43675732591E+03 -0.42371618269E+03 -0.17868643001E+04  0.18876377810E+04  0.00000000000E+00 0.  1.
        -11    1    3    3    0    0  0.19760613331E+03 -0.22429784840E+03 -0.73003888383E+03  0.78886911501E+03  0.00000000000E+00 0. -1.
         22    1    1    2    0    0 -0.63436345922E+03  0.64801403110E+03  0.16710350876E+04  0.19012357683E+04  0.00000000000E+00 0. -1.
<mgrwt>
<rscale>  0 0.44989149E+04</rscale>
<asrwt>0</asrwt>
<pdfrwt beam="1">  1        2 0.41720083E+00 0.44989149E+04</pdfrwt>
<pdfrwt beam="2">  1       -2 0.28706728E+00 0.44989149E+04</pdfrwt>
<totfact> 0.75486016E-02</totfact>
</mgrwt>
</event>
<event>
 6    1  0.2047711E-005  0.1545887E+04  0.7818608E-02  0.8854499E-01
         -2   -1    0    0    0  501 -0.00000000000E+00  0.00000000000E+00  0.32754410232E+03  0.32754410232E+03  0.00000000000E+00 0.  1.
          2   -1    0    0  501    0  0.00000000000E+00 -0.00000000000E+00 -0.18240041749E+04  0.18240041749E+04  0.00000000000E+00 0. -1.
         23    2    1    2    0    0 -0.25498981169E+03  0.54855010301E+03 -0.87101425544E+02  0.61785377844E+03  0.90717217921E+02 0.  0.
         13    1    3    3    0    0 -0.59690949778E+02  0.68923649890E+02 -0.33850355703E+02  0.97259064261E+02  0.00000000000E+00 0. -1.
        -13    1    3    3    0    0 -0.19529886191E+03  0.47962645312E+03 -0.53251069841E+02  0.52059471418E+03  0.00000000000E+00 0.  1.
         22    1    1    2    0    0  0.25498981169E+03 -0.54855010301E+03 -0.14093586470E+04  0.15336944987E+04  0.00000000000E+00 0. -1.
<mgrwt>
<rscale>  0 0.15458872E+04</rscale>
<asrwt>0</asrwt>
<pdfrwt beam="1">  1        2 0.28061603E+00 0.15458872E+04</pdfrwt>
<pdfrwt beam="2">  1       -2 0.50391400E-01 0.15458872E+04</pdfrwt>
<totfact> 0.30008200E+01</totfact>
</mgrwt>
</event>
<event>
 6    1  0.2047711E-005  0.2636585E+04  0.7818608E-02  0.8355879E-01
          2   -1    0    0  501    0  0.00000000000E+00  0.00000000000E+00  0.32588010245E+04  0.32588010245E+04  0.00000000000E+00 0. -1.
         -2   -1    0    0    0  501 -0.00000000000E+00 -0.00000000000E+00 -0.53329276214E+03  0.53329276214E+03  0.00000000000E+00 0.  1.
         23    2    1    2    0    0  0.23386239925E+03  0.14009481253E+01  0.32280458103E+04  0.32378036356E+04  0.91646303410E+02 0.  0.
         13    1    3    3    0    0  0.15338143308E+02  0.23774567195E+02  0.56752600831E+03  0.56823081472E+03  0.00000000000E+00 0.  1.
        -13    1    3    3    0    0  0.21852425594E+03 -0.22373619070E+02  0.26605198020E+04  0.26695728209E+04  0.00000000000E+00 0. -1.
         22    1    1    2    0    0 -0.23386239925E+03 -0.14009481253E+01 -0.50253754794E+03  0.55429015103E+03  0.00000000000E+00 0.  1.
<mgrwt>
<rscale>  0 0.26365849E+04</rscale>
<asrwt>0</asrwt>
<pdfrwt beam="1">  1        2 0.50135399E+00 0.26365849E+04</pdfrwt>
<pdfrwt beam="2">  1       -2 0.82045042E-01 0.26365849E+04</pdfrwt>
<totfact> 0.13662286E+00</totfact>
</mgrwt>
</event>
<event>
 6    1  0.2047711E-005  0.1740736E+04  0.7818608E-02  0.8738466E-01
         -2   -1    0    0    0  501 -0.00000000000E+00  0.00000000000E+00  0.37371597336E+03  0.37371597336E+03  0.00000000000E+00 0.  1.
          2   -1    0    0  501    0  0.00000000000E+00 -0.00000000000E+00 -0.20270479538E+04  0.20270479538E+04  0.00000000000E+00 0. -1.
         23    2    1    2    0    0 -0.29434972894E+03  0.73182744191E+03 -0.32765676783E+03  0.85815965613E+03  0.82860546949E+02 0.  0.
         11    1    3    3    0    0 -0.27307748045E+02  0.15623121835E+03 -0.63098174821E+02  0.17069061590E+03  0.00000000000E+00 0. -1.
        -11    1    3    3    0    0 -0.26704198090E+03  0.57559622356E+03 -0.26455859301E+03  0.68746904023E+03  0.00000000000E+00 0.  1.
         22    1    1    2    0    0  0.29434972894E+03 -0.73182744191E+03 -0.13256752126E+04  0.15426042710E+04  0.00000000000E+00 0. -1.
<mgrwt>
<rscale>  0 0.17407357E+04</rscale>
<asrwt>0</asrwt>
<pdfrwt beam="1">  1        2 0.31185353E+00 0.17407357E+04</pdfrwt>
<pdfrwt beam="2">  1       -2 0.57494765E-01 0.17407357E+04</pdfrwt>
<totfact> 0.17346579E+01</totfact>
</mgrwt>
</event>
<event>
 6    1  0.2047711E-005  0.2440568E+04  0.7818608E-02  0.8424470E-01
         -2   -1    0    0    0  501 -0.00000000000E+00  0.00000000000E+00  0.13488884644E+04  0.13488884644E+04  0.00000000000E+00 0.  1.
          2   -1    0    0  501    0  0.00000000000E+00 -0.00000000000E+00 -0.11039412327E+04  0.11039412327E+04  0.00000000000E+00 0. -1.
         23    2    1    2    0    0 -0.60387427199E+03 -0.10570210540E+04  0.17761977290E+03  0.12336124762E+04  0.91067626404E+02 0.  0.
         11    1    3    3    0    0 -0.22698049132E+03 -0.38316091145E+03  0.10886655866E+03  0.45845867327E+03  0.00000000000E+00 0.  1.
        -11    1    3    3    0    0 -0.37689378067E+03 -0.67386014260E+03  0.68753214243E+02  0.77515380291E+03  0.00000000000E+00 0. -1.
         22    1    1    2    0    0  0.60387427199E+03  0.10570210540E+04  0.67327458814E+02  0.12192172209E+04  0.00000000000E+00 0. -1.
<mgrwt>
<rscale>  0 0.24405685E+04</rscale>
<asrwt>0</asrwt>
<pdfrwt beam="1">  1        2 0.16983711E+00 0.24405685E+04</pdfrwt>
<pdfrwt beam="2">  1       -2 0.20752130E+00 0.24405685E+04</pdfrwt>
<totfact> 0.23064961E+00</totfact>
</mgrwt>
</event>
<event>
 6    1  0.2047711E-005  0.3753832E+03  0.7818608E-02  0.1052653E+00
         -2   -1    0    0    0  501 -0.00000000000E+00  0.00000000000E+00  0.71585954700E+02  0.71585954700E+02  0.00000000000E+00 0.  1.
          2   -1    0    0  501    0  0.00000000000E+00 -0.00000000000E+00 -0.49210951232E+03  0.49210951232E+03  0.00000000000E+00 0. -1.
         23    2    1    2    0    0  0.84537565020E+02  0.10504828623E+03 -0.51480031359E+02  0.17078979563E+03  0.91308369403E+02 0.  0.
         11    1    3    3    0    0  0.71240925300E+02  0.65520884476E+02 -0.75418529007E+02  0.12270374997E+03  0.00000000000E+00 0. -1.
        -11    1    3    3    0    0  0.13296639720E+02  0.39527401750E+02  0.23938497648E+02  0.48086045653E+02  0.00000000000E+00 0.  1.
         22    1    1    2    0    0 -0.84537565020E+02 -0.10504828623E+03 -0.36904352626E+03  0.39290567140E+03  0.00000000000E+00 0. -1.
<mgrwt>
<rscale>  0 0.37538316E+03</rscale>
<asrwt>0</asrwt>
<pdfrwt beam="1">  1        2 0.75709155E-01 0.37538316E+03</pdfrwt>
<pdfrwt beam="2">  1       -2 0.11013224E-01 0.37538316E+03</pdfrwt>
<totfact> 0.36195945E+03</totfact>
</mgrwt>
</event>
<event>
 6    1  0.2047711E-005  0.1516826E+04  0.7818608E-02  0.8873340E-01
          2   -1    0    0  501    0  0.00000000000E+00  0.00000000000E+00  0.96642020774E+03  0.96642020774E+03  0.00000000000E+00 0. -1.
         -2   -1    0    0    0  501 -0.00000000000E+00 -0.00000000000E+00 -0.59517635856E+03  0.59517635856E+03  0.00000000000E+00 0.  1.
         23    2    1    2    0    0  0.47376863872E+03 -0.58865070757E+03  0.17459392906E+03  0.78080365545E+03  0.90581067237E+02 0.  0.
         13    1    3    3    0    0  0.72776710470E+02 -0.71181535319E+02  0.53655882484E+02  0.11507482037E+03  0.00000000000E+00 0. -1.
        -13    1    3    3    0    0  0.40099192825E+03 -0.51746917225E+03  0.12093804658E+03  0.66572883508E+03  0.00000000000E+00 0.  1.
         22    1    1    2    0    0 -0.47376863872E+03  0.58865070757E+03  0.19664992011E+03  0.78079291085E+03  0.00000000000E+00 0. -1.
<mgrwt>
<rscale>  0 0.15168262E+04</rscale>
<asrwt>0</asrwt>
<pdfrwt beam="1">  1        2 0.14868003E+00 0.15168262E+04</pdfrwt>
<pdfrwt beam="2">  1       -2 0.91565593E-01 0.15168262E+04</pdfrwt>
<totfact> 0.25958039E+01</totfact>
</mgrwt>
</event>
<event>
 6    1  0.2047711E-005  0.1985338E+04  0.7818608E-02  0.8613507E-01
         -2   -1    0    0    0  501 -0.00000000000E+00  0.00000000000E+00  0.13143913861E+04  0.13143913861E+04  0.00000000000E+00 0.  1.
          2   -1    0    0  501    0  0.00000000000E+00 -0.00000000000E+00 -0.74969420899E+03  0.74969420899E+03  0.00000000000E+00 0. -1.
         23    2    1    2    0    0  0.22860615927E+03 -0.59818690053E+03 -0.50299414760E+03  0.81907430644E+03  0.88268130848E+02 0.  0.
         11    1    3    3    0    0  0.15590367833E+03 -0.47645239805E+03 -0.42516571446E+03  0.65732695767E+03  0.00000000000E+00 0.  1.
        -11    1    3    3    0    0  0.72702480941E+02 -0.12173450248E+03 -0.77828433142E+02  0.16174734877E+03  0.00000000000E+00 0. -1.
         22    1    1    2    0    0 -0.22860615927E+03  0.59818690053E+03  0.10676913247E+04  0.12450112887E+04  0.00000000000E+00 0.  1.
<mgrwt>
<rscale>  0 0.19853379E+04</rscale>
<asrwt>0</asrwt>
<pdfrwt beam="1">  1        2 0.11533757E+00 0.19853379E+04</pdfrwt>
<pdfrwt beam="2">  1       -2 0.20221406E+00 0.19853379E+04</pdfrwt>
<totfact> 0.44864562E+00</totfact>
</mgrwt>
</event>
<event>
 6    1  0.2047711E-005  0.2501480E+04  0.7818608E-02  0.8402459E-01
          2   -1    0    0  501    0  0.00000000000E+00  0.00000000000E+00  0.19356671641E+04  0.19356671641E+04  0.00000000000E+00 0.  1.
         -2   -1    0    0    0  501 -0.00000000000E+00 -0.00000000000E+00 -0.80817094821E+03  0.80817094821E+03  0.00000000000E+00 0. -1.
         23    2    1    2    0    0 -0.71221186809E+03  0.71340867004E+03  0.13733148793E+04  0.17062329414E+04  0.95075849155E+02 0.  0.
         11    1    3    3    0    0 -0.44262056864E+03  0.38416873305E+03  0.75955341531E+03  0.95938520624E+03  0.00000000000E+00 0. -1.
        -11    1    3    3    0    0 -0.26959129945E+03  0.32923993699E+03  0.61376146395E+03  0.74684773513E+03  0.00000000000E+00 0.  1.
         22    1    1    2    0    0  0.71221186809E+03 -0.71340867004E+03 -0.24581866336E+03  0.10376051710E+04  0.00000000000E+00 0. -1.
<mgrwt>
<rscale>  0 0.25014795E+04</rscale>
<asrwt>0</asrwt>
<pdfrwt beam="1">  1        2 0.29779495E+00 0.25014795E+04</pdfrwt>
<pdfrwt beam="2">  1       -2 0.12433399E+00 0.25014795E+04</pdfrwt>
<totfact> 0.31441021E+00</totfact>
</mgrwt>
</event>
<event>
 6    1  0.2047711E-005  0.2494844E+04  0.7818608E-02  0.8404825E-01
         -1   -1    0    0    0  501 -0.00000000000E+00  0.00000000000E+00  0.47056655599E+03  0.47056655599E+03  0.00000000000E+00 0.  1.
          1   -1    0    0  501    0  0.00000000000E+00 -0.00000000000E+00 -0.33067837291E+04  0.33067837291E+04  0.00000000000E+00 0. -1.
         23    2    1    2    0    0 -0.36383330617E+03 -0.53736424240E+03  0.18998059594E+03  0.68235304097E+03  0.91531644763E+02 0.  0.
         11    1    3    3    0    0 -0.25845995074E+03 -0.30266826362E+03  0.10958083040E+03  0.41281664493E+03  0.00000000000E+00 0.  1.
        -11    1    3    3    0    0 -0.10537335544E+03 -0.23469597878E+03  0.80399765538E+02  0.26953639604E+03  0.00000000000E+00 0. -1.
         22    1    1    2    0    0  0.36383330617E+03  0.53736424240E+03 -0.30261977691E+04  0.30949972442E+04  0.00000000000E+00 0. -1.
<mgrwt>
<rscale>  0 0.24948441E+04</rscale>
<asrwt>0</asrwt>
<pdfrwt beam="1">  1        1 0.50873594E+00 0.24948441E+04</pdfrwt>
<pdfrwt beam="2">  1       -1 0.72394858E-01 0.24948441E+04</pdfrwt>
<totfact> 0.60398395E-01</totfact>
</mgrwt>
</event>
<event>
 6    1  0.2047711E-005  0.5653575E+04  0.7818608E-02  0.7734904E-01
          2   -1    0    0  501    0  0.00000000000E+00  0.00000000000E+00  0.43351196471E+04  0.43351196471E+04  0.00000000000E+00 0. -1.
         -2   -1    0    0    0  501 -0.00000000000E+00 -0.00000000000E+00 -0.18432544587E+04  0.18432544587E+04  0.00000000000E+00 0.  1.
         23    2    1    2    0    0 -0.15577490594E+04 -0.11348973410E+04 -0.10124415210E+04  0.21790317074E+04  0.92559395917E+02 0.  0.
         11    1    3    3    0    0 -0.99389370998E+03 -0.71952622202E+03 -0.59413138836E+03  0.13632808946E+04  0.00000000000E+00 0. -1.
        -11    1    3    3    0    0 -0.56385534943E+03 -0.41537111899E+03 -0.41831013259E+03  0.81575081282E+03  0.00000000000E+00 0.  1.
         22    1    1    2    0    0  0.15577490594E+04  0.11348973410E+04  0.35043067093E+04  0.39993423984E+04  0.00000000000E+00 0. -1.
<mgrwt>
<rscale>  0 0.56535754E+04</rscale>
<asrwt>0</asrwt>
<pdfrwt beam="1">  1        2 0.66694148E+00 0.56535754E+04</pdfrwt>
<pdfrwt beam="2">  1       -2 0.28357761E+00 0.56535754E+04</pdfrwt>
<totfact> 0.48373591E-03</totfact>
</mgrwt>
</event>
<event>
 6    1  0.2047711E-005  0.1311271E+04  0.7818608E-02  0.9020675E-01
         -2   -1    0    0    0  501 -0.00000000000E+00  0.00000000000E+00  0.21582597527E+03  0.21582597527E+03  0.00000000000E+00 0.  1.
          2   -1    0    0  501    0  0.00000000000E+00 -0.00000000000E+00 -0.19916863962E+04  0.19916863962E+04  0.00000000000E+00 0. -1.
         23    2    1    2    0    0  0.17748040798E+03  0.16690769882E+03 -0.19111480269E+04  0.19288365536E+04  0.92553740778E+02 0.  0.
         11    1    3    3    0    0  0.12658309708E+03  0.85220120306E+02 -0.14327178371E+04  0.14408213457E+04  0.00000000000E+00 0.  1.
        -11    1    3    3    0    0  0.50897310900E+02  0.81687578517E+02 -0.47843018976E+03  0.48801520798E+03  0.00000000000E+00 0. -1.
         22    1    1    2    0    0 -0.17748040798E+03 -0.16690769882E+03  0.13528760591E+03  0.27867581785E+03  0.00000000000E+00 0.  1.
<mgrwt>
<rscale>  0 0.13112706E+04</rscale>
<asrwt>0</asrwt>
<pdfrwt beam="1">  1        2 0.30641330E+00 0.13112706E+04</pdfrwt>
<pdfrwt beam="2">  1       -2 0.33203995E-01 0.13112706E+04</pdfrwt>
<totfact> 0.56067845E+01</totfact>
</mgrwt>
</event>
<event>
 6    1  0.2047711E-005  0.2327753E+04  0.7818608E-02  0.8467058E-01
          2   -1    0    0  501    0  0.00000000000E+00  0.00000000000E+00  0.25854868183E+04  0.25854868183E+04  0.00000000000E+00 0. -1.
         -2   -1    0    0    0  501 -0.00000000000E+00 -0.00000000000E+00 -0.52392798136E+03  0.52392798136E+03  0.00000000000E+00 0.  1.
         23    2    1    2    0    0 -0.51818519568E+03 -0.34829407591E+03 -0.27696626293E+03  0.68897593386E+03  0.90293223986E+02 0.  0.
         13    1    3    3    0    0 -0.79883437636E+02 -0.56778564565E+02 -0.81491854620E+02  0.12746015602E+03  0.00000000000E+00 0. -1.
        -13    1    3    3    0    0 -0.43830175804E+03 -0.29151551135E+03 -0.19547440831E+03  0.56151577784E+03  0.00000000000E+00 0.  1.
         22    1    1    2    0    0  0.51818519568E+03  0.34829407591E+03  0.23385250999E+04  0.24204388658E+04  0.00000000000E+00 0. -1.
<mgrwt>
<rscale>  0 0.23277533E+04</rscale>
<asrwt>0</asrwt>
<pdfrwt beam="1">  1        2 0.39776719E+00 0.23277533E+04</pdfrwt>
<pdfrwt beam="2">  1       -2 0.80604306E-01 0.23277533E+04</pdfrwt>
<totfact> 0.38154032E+00</totfact>
</mgrwt>
</event>
<event>
 6    1  0.2047711E-005  0.4673609E+03  0.7818608E-02  0.1022668E+00
         -2   -1    0    0    0  501 -0.00000000000E+00  0.00000000000E+00  0.16374559097E+03  0.16374559097E+03  0.00000000000E+00 0.  1.
          2   -1    0    0  501    0  0.00000000000E+00 -0.00000000000E+00 -0.33348411287E+03  0.33348411287E+03  0.00000000000E+00 0. -1.
         23    2    1    2    0    0  0.15746427923E+03 -0.15768821222E+03 -0.12126188279E+03  0.26917147433E+03  0.89934792328E+02 0.  0.
         11    1    3    3    0    0  0.78651053889E+02 -0.13833988522E+03 -0.78599528438E+02  0.17748745869E+03  0.00000000000E+00 0.  1.
        -11    1    3    3    0    0  0.78813225338E+02 -0.19348326999E+02 -0.42662354353E+02  0.91684015645E+02  0.00000000000E+00 0. -1.
         22    1    1    2    0    0 -0.15746427923E+03  0.15768821222E+03 -0.48476639110E+02  0.22805822951E+03  0.00000000000E+00 0. -1.
<mgrwt>
<rscale>  0 0.46736090E+03</rscale>
<asrwt>0</asrwt>
<pdfrwt beam="1">  1        2 0.51305248E-01 0.46736090E+03</pdfrwt>
<pdfrwt beam="2">  1       -2 0.25191629E-01 0.46736090E+03</pdfrwt>
<totfact> 0.13753518E+03</totfact>
</mgrwt>
</event>
<event>
 6    1  0.2047711E-005  0.2623513E+04  0.7818608E-02  0.8360258E-01
          2   -1    0    0  501    0  0.00000000000E+00  0.00000000000E+00  0.24630610644E+04  0.24630610644E+04  0.00000000000E+00 0. -1.
         -2   -1    0    0    0  501 -0.00000000000E+00 -0.00000000000E+00 -0.69860408979E+03  0.69860408979E+03  0.00000000000E+00 0.  1.
         23    2    1    2    0    0  0.93694824278E+03  0.83125111575E+03  0.13462336282E+04  0.18411496508E+04  0.92933459386E+02 0.  0.
         11    1    3    3    0    0  0.33895152947E+03  0.34888186395E+03  0.48201050999E+03  0.68479254236E+03  0.00000000000E+00 0. -1.
        -11    1    3    3    0    0  0.59799671331E+03  0.48236925180E+03  0.86422311825E+03  0.11563571085E+04  0.00000000000E+00 0.  1.
         22    1    1    2    0    0 -0.93694824278E+03 -0.83125111575E+03  0.41822334633E+03  0.13205155033E+04  0.00000000000E+00 0.  1.
<mgrwt>
<rscale>  0 0.26235126E+04</rscale>
<asrwt>0</asrwt>
<pdfrwt beam="1">  1        2 0.37893247E+00 0.26235126E+04</pdfrwt>
<pdfrwt beam="2">  1       -2 0.10747755E+00 0.26235126E+04</pdfrwt>
<totfact> 0.22430361E+00</totfact>
</mgrwt>
</event>
<event>
 6    1  0.2047711E-005  0.1935004E+04  0.7818608E-02  0.8637626E-01
         -2   -1    0    0    0  501 -0.00000000000E+00  0.00000000000E+00  0.11161737091E+04  0.11161737091E+04  0.00000000000E+00 0. -1.
          2   -1    0    0  501    0  0.00000000000E+00 -0.00000000000E+00 -0.83863329771E+03  0.83863329771E+03  0.00000000000E+00 0.  1.
         23    2    1    2    0    0  0.38356933238E+03  0.62936429951E+03 -0.49076343664E+03  0.89014008372E+03  0.90971224373E+02 0.  0.
         11    1    3    3    0    0  0.11465102509E+03  0.26369119246E+03 -0.16601598494E+03  0.33202290552E+03  0.00000000000E+00 0. -1.
        -11    1    3    3    0    0  0.26891830729E+03  0.36567310704E+03 -0.32474745169E+03  0.55811717819E+03  0.00000000000E+00 0.  1.
         22    1    1    2    0    0 -0.38356933238E+03 -0.62936429951E+03  0.76830384802E+03  0.10646669231E+04  0.00000000000E+00 0. -1.
<mgrwt>
<rscale>  0 0.19350043E+04</rscale>
<asrwt>0</asrwt>
<pdfrwt beam="1">  1        2 0.12902051E+00 0.19350043E+04</pdfrwt>
<pdfrwt beam="2">  1       -2 0.17171903E+00 0.19350043E+04</pdfrwt>
<totfact> 0.62537602E+00</totfact>
</mgrwt>
</event>
<event>
 6    1  0.2047711E-005  0.1640199E+04  0.7818608E-02  0.8796226E-01
         -2   -1    0    0    0  501 -0.00000000000E+00  0.00000000000E+00  0.10416515363E+04  0.10416515363E+04  0.00000000000E+00 0.  1.
          2   -1    0    0  501    0  0.00000000000E+00 -0.00000000000E+00 -0.64566978870E+03  0.64566978870E+03  0.00000000000E+00 0. -1.
         23    2    1    2    0    0  0.25484335069E+03 -0.11629908072E+03  0.98861955826E+03  0.10318137474E+04  0.93810281001E+02 0.  0.
         13    1    3    3    0    0  0.21508297989E+03 -0.59878436734E+02  0.68576408948E+03  0.72119241665E+03  0.00000000000E+00 0.  1.
        -13    1    3    3    0    0  0.39760370800E+02 -0.56420643990E+02  0.30285546878E+03  0.31062133076E+03  0.00000000000E+00 0. -1.
         22    1    1    2    0    0 -0.25484335069E+03  0.11629908072E+03 -0.59263781069E+03  0.65550757755E+03  0.00000000000E+00 0. -1.
<mgrwt>
<rscale>  0 0.16401987E+04</rscale>
<asrwt>0</asrwt>
<pdfrwt beam="1">  1        2 0.99333813E-01 0.16401987E+04</pdfrwt>
<pdfrwt beam="2">  1       -2 0.16025408E+00 0.16401987E+04</pdfrwt>
<totfact> 0.10861830E+01</totfact>
</mgrwt>
</event>
<event>
 6    1  0.2047711E-005  0.1789522E+04  0.7818608E-02  0.8711891E-01
          2   -1    0    0  501    0  0.00000000000E+00  0.00000000000E+00  0.76332733095E+03  0.76332733095E+03  0.00000000000E+00 0. -1.
         -2   -1    0    0    0  501 -0.00000000000E+00 -0.00000000000E+00 -0.10488259037E+04  0.10488259037E+04  0.00000000000E+00 0.  1.
         23    2    1    2    0    0  0.69544990285E+03  0.45589855880E+03  0.18483576730E+03  0.85679547194E+03  0.91870324797E+02 0.  0.
         13    1    3    3    0    0  0.11307156566E+03  0.36530620140E+02  0.20887614309E+02  0.12064807334E+03  0.00000000000E+00 0. -1.
        -13    1    3    3    0    0  0.58237833720E+03  0.41936793866E+03  0.16394815299E+03  0.73614739861E+03  0.00000000000E+00 0.  1.
         22    1    1    2    0    0 -0.69544990285E+03 -0.45589855880E+03 -0.47033434001E+03  0.95535776267E+03  0.00000000000E+00 0.  1.
<mgrwt>
<rscale>  0 0.17895223E+04</rscale>
<asrwt>0</asrwt>
<pdfrwt beam="1">  1        2 0.11743497E+00 0.17895223E+04</pdfrwt>
<pdfrwt beam="2">  1       -2 0.16135783E+00 0.17895223E+04</pdfrwt>
<totfact> 0.85189694E+00</totfact>
</mgrwt>
</event>
<event>
 6    1  0.2047711E-005  0.1520314E+04  0.7818608E-02  0.8871056E-01
          2   -1    0    0  501    0  0.00000000000E+00  0.00000000000E+00  0.85561289547E+03  0.85561289547E+03  0.00000000000E+00 0. -1.
         -2   -1    0    0    0  501 -0.00000000000E+00 -0.00000000000E+00 -0.67535067930E+03  0.67535067930E+03  0.00000000000E+00 0.  1.
         23    2    1    2    0    0  0.24311509438E+03  0.16486118981E+03  0.79346845098E+03  0.85103266105E+03  0.91543686039E+02 0.  0.
         13    1    3    3    0    0  0.39312996024E+02 -0.83230378997E+01  0.10858755733E+03  0.11578446451E+03  0.00000000000E+00 0.  1.
        -13    1    3    3    0    0  0.20380209836E+03  0.17318422771E+03  0.68488089365E+03  0.73524819654E+03  0.00000000000E+00 0. -1.
         22    1    1    2    0    0 -0.24311509438E+03 -0.16486118981E+03 -0.61320623481E+03  0.67993091372E+03  0.00000000000E+00 0.  1.
<mgrwt>
<rscale>  0 0.15203141E+04</rscale>
<asrwt>0</asrwt>
<pdfrwt beam="1">  1        2 0.13163275E+00 0.15203141E+04</pdfrwt>
<pdfrwt beam="2">  1       -2 0.10390010E+00 0.15203141E+04</pdfrwt>
<totfact> 0.22880515E+01</totfact>
</mgrwt>
</event>
<event>
 6    1  0.2047711E-005  0.2080258E+04  0.7818608E-02  0.8569990E-01
          2   -1    0    0  501    0  0.00000000000E+00  0.00000000000E+00  0.14543251520E+04  0.14543251520E+04  0.00000000000E+00 0. -1.
         -2   -1    0    0    0  501 -0.00000000000E+00 -0.00000000000E+00 -0.74389683202E+03  0.74389683202E+03  0.00000000000E+00 0.  1.
         23    2    1    2    0    0  0.73810627749E+03  0.26440354509E+03 -0.36303426470E+03  0.86892441304E+03  0.92334428564E+02 0.  0.
         13    1    3    3    0    0  0.66309552007E+03  0.21971336528E+03 -0.29522480442E+03  0.75837148995E+03  0.00000000000E+00 0.  1.
        -13    1    3    3    0    0  0.75010757420E+02  0.44690179804E+02 -0.67809460283E+02  0.11055292309E+03  0.00000000000E+00 0. -1.
         22    1    1    2    0    0 -0.73810627749E+03 -0.26440354509E+03  0.10734625847E+04  0.13292975710E+04  0.00000000000E+00 0. -1.
<mgrwt>
<rscale>  0 0.20802576E+04</rscale>
<asrwt>0</asrwt>
<pdfrwt beam="1">  1        2 0.22374233E+00 0.20802576E+04</pdfrwt>
<pdfrwt beam="2">  1       -2 0.11444567E+00 0.20802576E+04</pdfrwt>
<totfact> 0.74214834E+00</totfact>
</mgrwt>
</event>
<event>
 6    1  0.2047711E-005  0.1858829E+04  0.7818608E-02  0.8675625E-01
         -2   -1    0    0    0  501 -0.00000000000E+00  0.00000000000E+00  0.37811747736E+03  0.37811747736E+03  0.00000000000E+00 0.  1.
          2   -1    0    0  501    0  0.00000000000E+00 -0.00000000000E+00 -0.22845062898E+04  0.22845062898E+04  0.00000000000E+00 0. -1.
         23    2    1    2    0    0  0.29383353685E+03 -0.76743972615E+03 -0.15706066170E+04  0.17749010833E+04  0.90370512893E+02 0.  0.
         11    1    3    3    0    0  0.12014523509E+03 -0.23590081600E+03 -0.57461594694E+03  0.63266702062E+03  0.00000000000E+00 0.  1.
        -11    1    3    3    0    0  0.17368830176E+03 -0.53153891015E+03 -0.99599067005E+03  0.11422340627E+04  0.00000000000E+00 0. -1.
         22    1    1    2    0    0 -0.29383353685E+03  0.76743972615E+03 -0.33578219549E+03  0.88772268387E+03  0.00000000000E+00 0.  1.
<mgrwt>
<rscale>  0 0.18588295E+04</rscale>
<asrwt>0</asrwt>
<pdfrwt beam="1">  1        2 0.35146250E+00 0.18588295E+04</pdfrwt>
<pdfrwt beam="2">  1       -2 0.58171920E-01 0.18588295E+04</pdfrwt>
<totfact> 0.12022718E+01</totfact>
</mgrwt>
</event>
<event>
 6    1  0.2047711E-005  0.1716807E+04  0.7818608E-02  0.8751837E-01
          2   -1    0    0  501    0  0.00000000000E+00  0.00000000000E+00  0.97845696451E+03  0.97845696451E+03  0.00000000000E+00 0. -1.
         -2   -1    0    0    0  501 -0.00000000000E+00 -0.00000000000E+00 -0.75307983365E+03  0.75307983365E+03  0.00000000000E+00 0.  1.
         23    2    1    2    0    0  0.20387266428E+03  0.64594200210E+03 -0.41485793477E+03  0.79949276885E+03  0.90974986028E+02 0.  0.
         13    1    3    3    0    0  0.70246588874E+02  0.16013732107E+03 -0.67164743629E+02  0.18732230950E+03  0.00000000000E+00 0. -1.
        -13    1    3    3    0    0  0.13362607540E+03  0.48580468103E+03 -0.34769319114E+03  0.61217045935E+03  0.00000000000E+00 0.  1.
         22    1    1    2    0    0 -0.20387266428E+03 -0.64594200210E+03  0.64023506563E+03  0.93204402931E+03  0.00000000000E+00 0. -1.
<mgrwt>
<rscale>  0 0.17168066E+04</rscale>
<asrwt>0</asrwt>
<pdfrwt beam="1">  1        2 0.15053184E+00 0.17168066E+04</pdfrwt>
<pdfrwt beam="2">  1       -2 0.11585844E+00 0.17168066E+04</pdfrwt>
<totfact> 0.14312886E+01</totfact>
</mgrwt>
</event>
<event>
 6    1  0.2047711E-005  0.3180002E+04  0.7818608E-02  0.8194119E-01
          2   -1    0    0  501    0  0.00000000000E+00  0.00000000000E+00  0.15235148706E+04  0.15235148706E+04  0.00000000000E+00 0.  1.
         -2   -1    0    0    0  501 -0.00000000000E+00 -0.00000000000E+00 -0.16593883763E+04  0.16593883763E+04  0.00000000000E+00 0. -1.
         23    2    1    2    0    0 -0.70379326808E+03  0.10040607723E+04  0.94314459267E+03  0.15495805428E+04  0.90637394645E+02 0.  0.
         13    1    3    3    0    0 -0.23849437803E+03  0.29329043724E+03  0.33135796872E+03  0.50268971778E+03  0.00000000000E+00 0. -1.
        -13    1    3    3    0    0 -0.46529889005E+03  0.71077033511E+03  0.61178662395E+03  0.10468908251E+04  0.00000000000E+00 0.  1.
         22    1    1    2    0    0  0.70379326808E+03 -0.10040607723E+04 -0.10790180984E+04  0.16333227040E+04  0.00000000000E+00 0. -1.
<mgrwt>
<rscale>  0 0.31800018E+04</rscale>
<asrwt>0</asrwt>
<pdfrwt beam="1">  1        2 0.23438690E+00 0.31800018E+04</pdfrwt>
<pdfrwt beam="2">  1       -2 0.25529052E+00 0.31800018E+04</pdfrwt>
<totfact> 0.61918889E-01</totfact>
</mgrwt>
</event>
<event>
 6    1  0.2047711E-005  0.1033518E+04  0.7818608E-02  0.9272528E-01
         -2   -1    0    0    0  501 -0.00000000000E+00  0.00000000000E+00  0.11205894119E+04  0.11205894119E+04  0.00000000000E+00 0.  1.
          2   -1    0    0  501    0  0.00000000000E+00 -0.00000000000E+00 -0.23830289465E+03  0.23830289465E+03  0.00000000000E+00 0. -1.
         23    2    1    2    0    0  0.27056657564E+03  0.24958807917E+03 -0.24445248448E+02  0.38028974369E+03  0.92315967561E+02 0.  0.
         13    1    3    3    0    0  0.12839592768E+03  0.74023616869E+02 -0.41003811164E+02  0.15377360836E+03  0.00000000000E+00 0.  1.
        -13    1    3    3    0    0  0.14217064796E+03  0.17556446230E+03  0.16558562715E+02  0.22651613532E+03  0.00000000000E+00 0. -1.
         22    1    1    2    0    0 -0.27056657564E+03 -0.24958807917E+03  0.90673176571E+03  0.97860256287E+03  0.00000000000E+00 0.  1.
<mgrwt>
<rscale>  0 0.10335177E+04</rscale>
<asrwt>0</asrwt>
<pdfrwt beam="1">  1        2 0.36661984E-01 0.10335177E+04</pdfrwt>
<pdfrwt beam="2">  1       -2 0.17239837E+00 0.10335177E+04</pdfrwt>
<totfact> 0.28986643E+01</totfact>
</mgrwt>
</event>
<event>
 6    1  0.2047711E-005  0.1568331E+04  0.7818608E-02  0.8840243E-01
          1   -1    0    0  501    0  0.00000000000E+00  0.00000000000E+00  0.98124153080E+03  0.98124153080E+03  0.00000000000E+00 0. -1.
         -1   -1    0    0    0  501 -0.00000000000E+00 -0.00000000000E+00 -0.62667075579E+03  0.62667075579E+03  0.00000000000E+00 0.  1.
         23    2    1    2    0    0  0.24462648581E+02 -0.39203507023E+03 -0.51473640957E+03  0.65398100048E+03  0.91911153765E+02 0.  0.
         13    1    3    3    0    0  0.42578299757E+02 -0.84156061316E+02 -0.10490179550E+03  0.14106573278E+03  0.00000000000E+00 0. -1.
        -13    1    3    3    0    0 -0.18115651175E+02 -0.30787900891E+03 -0.40983461407E+03  0.51291526770E+03  0.00000000000E+00 0.  1.
         22    1    1    2    0    0 -0.24462648581E+02  0.39203507023E+03  0.86930718458E+03  0.95393128612E+03  0.00000000000E+00 0. -1.
<mgrwt>
<rscale>  0 0.15683308E+04</rscale>
<asrwt>0</asrwt>
<pdfrwt beam="1">  1        1 0.15096024E+00 0.15683308E+04</pdfrwt>
<pdfrwt beam="2">  1       -1 0.96410886E-01 0.15683308E+04</pdfrwt>
<totfact> 0.15601282E+01</totfact>
</mgrwt>
</event>
<event>
 6    1  0.2047711E-005  0.1124197E+04  0.7818608E-02  0.9181923E-01
         -1   -1    0    0    0  501 -0.00000000000E+00  0.00000000000E+00  0.35017679874E+03  0.35017679874E+03  0.00000000000E+00 0.  1.
          1   -1    0    0  501    0  0.00000000000E+00 -0.00000000000E+00 -0.90227220153E+03  0.90227220153E+03  0.00000000000E+00 0. -1.
         23    2    1    2    0    0 -0.42322254001E+03  0.34018468760E+03 -0.42214512266E+03  0.69412112584E+03  0.93566514861E+02 0.  0.
         11    1    3    3    0    0 -0.33001550927E+03  0.21514457788E+03 -0.32173105077E+03  0.50863375309E+03  0.00000000000E+00 0.  1.
        -11    1    3    3    0    0 -0.93207030748E+02  0.12504010972E+03 -0.10041407189E+03  0.18548737276E+03  0.00000000000E+00 0. -1.
         22    1    1    2    0    0  0.42322254001E+03 -0.34018468760E+03 -0.12995028012E+03  0.55832787442E+03  0.00000000000E+00 0. -1.
<mgrwt>
<rscale>  0 0.11241971E+04</rscale>
<asrwt>0</asrwt>
<pdfrwt beam="1">  1        1 0.13881111E+00 0.11241971E+04</pdfrwt>
<pdfrwt beam="2">  1       -1 0.53873354E-01 0.11241971E+04</pdfrwt>
<totfact> 0.62682838E+01</totfact>
</mgrwt>
</event>
<event>
 6    1  0.2047711E-005  0.2328272E+04  0.7818608E-02  0.8466857E-01
          2   -1    0    0  501    0  0.00000000000E+00  0.00000000000E+00  0.21720775063E+04  0.21720775063E+04  0.00000000000E+00 0. -1.
         -2   -1    0    0    0  501 -0.00000000000E+00 -0.00000000000E+00 -0.62392446559E+03  0.62392446559E+03  0.00000000000E+00 0.  1.
         23    2    1    2    0    0 -0.34856345607E+03 -0.95580040287E+02 -0.55138986709E+03  0.66557655694E+03  0.91265221300E+02 0.  0.
         11    1    3    3    0    0 -0.74603339898E+02 -0.20682151723E+02 -0.19536810912E+03  0.21014782365E+03  0.00000000000E+00 0.  1.
        -11    1    3    3    0    0 -0.27396011617E+03 -0.74897888563E+02 -0.35602175797E+03  0.45542873329E+03  0.00000000000E+00 0. -1.
         22    1    1    2    0    0  0.34856345607E+03  0.95580040287E+02  0.20995429078E+04  0.21304254150E+04  0.00000000000E+00 0. -1.
<mgrwt>
<rscale>  0 0.23282717E+04</rscale>
<asrwt>0</asrwt>
<pdfrwt beam="1">  1        2 0.33416577E+00 0.23282717E+04</pdfrwt>
<pdfrwt beam="2">  1       -2 0.95988381E-01 0.23282717E+04</pdfrwt>
<totfact> 0.44048632E+00</totfact>
</mgrwt>
</event>
<event>
 6    1  0.2047711E-005  0.1423963E+04  0.7818608E-02  0.8936653E-01
          2   -1    0    0  501    0  0.00000000000E+00  0.00000000000E+00  0.36097508074E+03  0.36097508074E+03  0.00000000000E+00 0.  1.
         -2   -1    0    0    0  501 -0.00000000000E+00 -0.00000000000E+00 -0.14043015959E+04  0.14043015959E+04  0.00000000000E+00 0. -1.
         23    2    1    2    0    0  0.36443545274E+03  0.19278254270E+03 -0.12387969148E+04  0.13090015566E+04  0.94281340190E+02 0.  0.
         11    1    3    3    0    0  0.17018154493E+03  0.13752849413E+03 -0.57789991531E+03  0.61793539877E+03  0.00000000000E+00 0. -1.
        -11    1    3    3    0    0  0.19425390781E+03  0.55254048564E+02 -0.66089699952E+03  0.69106615787E+03  0.00000000000E+00 0.  1.
         22    1    1    2    0    0 -0.36443545274E+03 -0.19278254270E+03  0.19547039967E+03  0.45627512000E+03  0.00000000000E+00 0.  1.
<mgrwt>
<rscale>  0 0.14239633E+04</rscale>
<asrwt>0</asrwt>
<pdfrwt beam="1">  1        2 0.55534627E-01 0.14239633E+04</pdfrwt>
<pdfrwt beam="2">  1       -2 0.21604640E+00 0.14239633E+04</pdfrwt>
<totfact> 0.90776677E+00</totfact>
</mgrwt>
</event>
<event>
 6    1  0.2047711E-005  0.3158006E+04  0.7818608E-02  0.8199997E-01
          2   -1    0    0  501    0  0.00000000000E+00  0.00000000000E+00  0.16799526507E+04  0.16799526507E+04  0.00000000000E+00 0. -1.
         -2   -1    0    0    0  501 -0.00000000000E+00 -0.00000000000E+00 -0.14841190586E+04  0.14841190586E+04  0.00000000000E+00 0.  1.
         23    2    1    2    0    0 -0.39208489302E+02 -0.93590346452E+03  0.13699290619E+04  0.16620887624E+04  0.91546812290E+02 0.  0.
         13    1    3    3    0    0 -0.41243466098E+02 -0.25256651096E+03  0.32707822781E+03  0.41529631958E+03  0.00000000000E+00 0.  1.
        -13    1    3    3    0    0  0.20349767965E+01 -0.68333695356E+03  0.10428508341E+04  0.12467924428E+04  0.00000000000E+00 0. -1.
         22    1    1    2    0    0  0.39208489302E+02  0.93590346452E+03 -0.11740954698E+04  0.15019829469E+04  0.00000000000E+00 0.  1.
<mgrwt>
<rscale>  0 0.31580055E+04</rscale>
<asrwt>0</asrwt>
<pdfrwt beam="1">  1        2 0.25845426E+00 0.31580055E+04</pdfrwt>
<pdfrwt beam="2">  1       -2 0.22832601E+00 0.31580055E+04</pdfrwt>
<totfact> 0.74477909E-01</totfact>
</mgrwt>
</event>
<event>
 6    1  0.2047711E-005  0.5069695E+04  0.7818608E-02  0.7817845E-01
          2   -1    0    0  501    0  0.00000000000E+00  0.00000000000E+00  0.26461978814E+04  0.26461978814E+04  0.00000000000E+00 0. -1.
         -2   -1    0    0    0  501 -0.00000000000E+00 -0.00000000000E+00 -0.24281829733E+04  0.24281829733E+04  0.00000000000E+00 0.  1.
         23    2    1    2    0    0 -0.45819353884E+02 -0.75730774160E+03 -0.23110326264E+04  0.24339839412E+04  0.88270024990E+02 0.  0.
         11    1    3    3    0    0 -0.11825873501E+02 -0.49947312980E+02 -0.23326791334E+03  0.23884828815E+03  0.00000000000E+00 0. -1.
        -11    1    3    3    0    0 -0.33993480383E+02 -0.70736042862E+03 -0.20777647130E+04  0.21951356531E+04  0.00000000000E+00 0.  1.
         22    1    1    2    0    0  0.45819353884E+02  0.75730774160E+03  0.25290475346E+04  0.26403969135E+04  0.00000000000E+00 0. -1.
<mgrwt>
<rscale>  0 0.50696953E+04</rscale>
<asrwt>0</asrwt>
<pdfrwt beam="1">  1        2 0.40710737E+00 0.50696953E+04</pdfrwt>
<pdfrwt beam="2">  1       -2 0.37356661E+00 0.50696953E+04</pdfrwt>
<totfact> 0.22798555E-02</totfact>
</mgrwt>
</event>
<event>
 6    1  0.2047711E-005  0.1902216E+04  0.7818608E-02  0.8653754E-01
          2   -1    0    0  501    0  0.00000000000E+00  0.00000000000E+00  0.31348271269E+04  0.31348271269E+04  0.00000000000E+00 0. -1.
         -2   -1    0    0    0  501 -0.00000000000E+00 -0.00000000000E+00 -0.28856660190E+03  0.28856660190E+03  0.00000000000E+00 0.  1.
         23    2    1    2    0    0  0.56324985474E+03  0.59380113099E+03  0.56191424401E+03  0.99685543042E+03  0.90127407057E+02 0.  0.
         13    1    3    3    0    0  0.51083467322E+03  0.49940787239E+03  0.47079258252E+03  0.85557345805E+03  0.00000000000E+00 0. -1.
        -13    1    3    3    0    0  0.52415181527E+02  0.94393258609E+02  0.91121661488E+02  0.14128197237E+03  0.00000000000E+00 0.  1.
         22    1    1    2    0    0 -0.56324985474E+03 -0.59380113099E+03  0.22843462810E+04  0.24265382984E+04  0.00000000000E+00 0. -1.
<mgrwt>
<rscale>  0 0.19022160E+04</rscale>
<asrwt>0</asrwt>
<pdfrwt beam="1">  1        2 0.48228107E+00 0.19022160E+04</pdfrwt>
<pdfrwt beam="2">  1       -2 0.44394864E-01 0.19022160E+04</pdfrwt>
<totfact> 0.64653788E+00</totfact>
</mgrwt>
</event>
<event>
 6    1  0.2047711E-005  0.2887837E+04  0.7818608E-02  0.8276505E-01
         -2   -1    0    0    0  501 -0.00000000000E+00  0.00000000000E+00  0.73126750232E+03  0.73126750232E+03  0.00000000000E+00 0.  1.
          2   -1    0    0  501    0  0.00000000000E+00 -0.00000000000E+00 -0.28510783555E+04  0.28510783555E+04  0.00000000000E+00 0. -1.
         23    2    1    2    0    0  0.12396470006E+03  0.11189469099E+04 -0.21796900616E+04  0.24549617380E+04  0.91536532583E+02 0.  0.
         11    1    3    3    0    0  0.21670752678E+02  0.38848209801E+03 -0.67182810255E+03  0.77636393616E+03  0.00000000000E+00 0. -1.
        -11    1    3    3    0    0  0.10229394738E+03  0.73046481187E+03 -0.15078619590E+04  0.16785978019E+04  0.00000000000E+00 0.  1.
         22    1    1    2    0    0 -0.12396470006E+03 -0.11189469099E+04  0.59879208341E+02  0.11273841198E+04  0.00000000000E+00 0.  1.
<mgrwt>
<rscale>  0 0.28878372E+04</rscale>
<asrwt>0</asrwt>
<pdfrwt beam="1">  1        2 0.43862743E+00 0.28878372E+04</pdfrwt>
<pdfrwt beam="2">  1       -2 0.11250269E+00 0.28878372E+04</pdfrwt>
<totfact> 0.11564585E+00</totfact>
</mgrwt>
</event>
<event>
 6    1  0.2047711E-005  0.3270234E+04  0.7818608E-02  0.8170511E-01
          2   -1    0    0  501    0  0.00000000000E+00  0.00000000000E+00  0.88694451908E+03  0.88694451908E+03  0.00000000000E+00 0.  1.
         -2   -1    0    0    0  501 -0.00000000000E+00 -0.00000000000E+00 -0.30144024956E+04  0.30144024956E+04  0.00000000000E+00 0. -1.
         23    2    1    2    0    0 -0.15145933025E+04 -0.39156661686E+03 -0.16255027432E+04  0.22583995585E+04  0.10388508251E+03 0.  0.
         13    1    3    3    0    0 -0.13809104560E+04 -0.33371812956E+03 -0.15019069373E+04  0.20673669064E+04  0.00000000000E+00 0. -1.
        -13    1    3    3    0    0 -0.13368284650E+03 -0.57848487296E+02 -0.12359580594E+03  0.19103265212E+03  0.00000000000E+00 0.  1.
         22    1    1    2    0    0  0.15145933025E+04  0.39156661686E+03 -0.50195523326E+03  0.16429474561E+04  0.00000000000E+00 0.  1.
<mgrwt>
<rscale>  0 0.32702341E+04</rscale>
<asrwt>0</asrwt>
<pdfrwt beam="1">  1        2 0.13645300E+00 0.32702341E+04</pdfrwt>
<pdfrwt beam="2">  1       -2 0.46375424E+00 0.32702341E+04</pdfrwt>
<totfact> 0.70473057E-02</totfact>
</mgrwt>
</event>
<event>
 6    1  0.2047711E-005  0.5887725E+03  0.7818608E-02  0.9928977E-01
         -2   -1    0    0    0  501 -0.00000000000E+00  0.00000000000E+00  0.28243055652E+03  0.28243055652E+03  0.00000000000E+00 0.  1.
          2   -1    0    0  501    0  0.00000000000E+00 -0.00000000000E+00 -0.30684808645E+03  0.30684808645E+03  0.00000000000E+00 0. -1.
         23    2    1    2    0    0 -0.18062161959E+03  0.59569324480E+02  0.20325266895E+03  0.29261992771E+03  0.90233590046E+02 0.  0.
         11    1    3    3    0    0 -0.13633063237E+03  0.83242312055E+02  0.16342407436E+03  0.22852297897E+03  0.00000000000E+00 0. -1.
        -11    1    3    3    0    0 -0.44290987219E+02 -0.23672987575E+02  0.39828594591E+02  0.64096948731E+02  0.00000000000E+00 0.  1.
         22    1    1    2    0    0  0.18062161959E+03 -0.59569324480E+02 -0.22767019889E+03  0.29665871526E+03  0.00000000000E+00 0. -1.
<mgrwt>
<rscale>  0 0.58877254E+03</rscale>
<asrwt>0</asrwt>
<pdfrwt beam="1">  1        2 0.47207398E-01 0.58877254E+03</pdfrwt>
<pdfrwt beam="2">  1       -2 0.43450855E-01 0.58877254E+03</pdfrwt>
<totfact> 0.54191276E+02</totfact>
</mgrwt>
</event>
<event>
 6    1  0.2047711E-005  0.8781236E+03  0.7818608E-02  0.9453349E-01
          1   -1    0    0  501    0  0.00000000000E+00  0.00000000000E+00  0.14997861307E+03  0.14997861307E+03  0.00000000000E+00 0. -1.
         -1   -1    0    0    0  501 -0.00000000000E+00 -0.00000000000E+00 -0.12853516339E+04  0.12853516339E+04  0.00000000000E+00 0.  1.
         23    2    1    2    0    0 -0.14412212363E+03 -0.39237471408E+03 -0.76701559765E+03  0.87818009307E+03  0.90323009565E+02 0.  0.
         13    1    3    3    0    0 -0.69719918914E+02 -0.23145928188E+03 -0.52693884477E+03  0.57974029736E+03  0.00000000000E+00 0.  1.
        -13    1    3    3    0    0 -0.74402204712E+02 -0.16091543220E+03 -0.24007675288E+03  0.29843979571E+03  0.00000000000E+00 0. -1.
         22    1    1    2    0    0  0.14412212363E+03  0.39237471408E+03 -0.36835742313E+03  0.55715015386E+03  0.00000000000E+00 0. -1.
<mgrwt>
<rscale>  0 0.87812358E+03</rscale>
<asrwt>0</asrwt>
<pdfrwt beam="1">  1        1 0.23073632E-01 0.87812358E+03</pdfrwt>
<pdfrwt beam="2">  1       -1 0.19774641E+00 0.87812358E+03</pdfrwt>
<totfact> 0.34313788E+01</totfact>
</mgrwt>
</event>
<event>
 6    1  0.2047711E-005  0.1263509E+04  0.7818608E-02  0.9059014E-01
          1   -1    0    0  501    0  0.00000000000E+00  0.00000000000E+00  0.17425894783E+04  0.17425894783E+04  0.00000000000E+00 0. -1.
         -1   -1    0    0    0  501 -0.00000000000E+00 -0.00000000000E+00 -0.22903475804E+03  0.22903475804E+03  0.00000000000E+00 0.  1.
         23    2    1    2    0    0 -0.60932447003E+03 -0.42140118966E+02  0.99197392608E+03  0.11684439177E+04  0.90536287318E+02 0.  0.
         13    1    3    3    0    0 -0.46858021668E+03 -0.40123657986E+02  0.82890254224E+03  0.95302505315E+03  0.00000000000E+00 0.  1.
        -13    1    3    3    0    0 -0.14074425336E+03 -0.20164609806E+01  0.16307138384E+03  0.21541886453E+03  0.00000000000E+00 0. -1.
         22    1    1    2    0    0  0.60932447003E+03  0.42140118966E+02  0.52158079413E+03  0.80318031862E+03  0.00000000000E+00 0. -1.
<mgrwt>
<rscale>  0 0.12635087E+04</rscale>
<asrwt>0</asrwt>
<pdfrwt beam="1">  1        1 0.26809068E+00 0.12635087E+04</pdfrwt>
<pdfrwt beam="2">  1       -1 0.35236118E-01 0.12635087E+04</pdfrwt>
<totfact> 0.33680394E+01</totfact>
</mgrwt>
</event>
<event>
 6    1  0.2047711E-005  0.1311234E+04  0.7818608E-02  0.9020703E-01
         -2   -1    0    0    0  501 -0.00000000000E+00  0.00000000000E+00  0.14307979979E+04  0.14307979979E+04  0.00000000000E+00 0.  1.
          2   -1    0    0  501    0  0.00000000000E+00 -0.00000000000E+00 -0.30041547697E+03  0.30041547697E+03  0.00000000000E+00 0. -1.
         23    2    1    2    0    0 -0.30739831480E+03  0.52620972930E+03  0.26306435072E+03  0.67119875257E+03  0.99571630896E+02 0.  0.
         11    1    3    3    0    0 -0.44551926961E+02  0.15652756926E+03  0.51600787535E+02  0.17072901162E+03  0.00000000000E+00 0.  1.
        -11    1    3    3    0    0 -0.26284638784E+03  0.36968216004E+03  0.21146356319E+03  0.50046974095E+03  0.00000000000E+00 0. -1.
         22    1    1    2    0    0  0.30739831480E+03 -0.52620972930E+03  0.86731817023E+03  0.10600147223E+04  0.00000000000E+00 0.  1.
<mgrwt>
<rscale>  0 0.13112343E+04</rscale>
<asrwt>0</asrwt>
<pdfrwt beam="1">  1        2 0.46217767E-01 0.13112343E+04</pdfrwt>
<pdfrwt beam="2">  1       -2 0.22012276E+00 0.13112343E+04</pdfrwt>
<totfact> 0.10591322E+01</totfact>
</mgrwt>
</event>
<event>
 6    1  0.2047711E-005  0.6116208E+03  0.7818608E-02  0.9881586E-01
         -2   -1    0    0    0  501 -0.00000000000E+00  0.00000000000E+00  0.41742285276E+03  0.41742285276E+03  0.00000000000E+00 0.  1.
          2   -1    0    0  501    0  0.00000000000E+00 -0.00000000000E+00 -0.22404142568E+03  0.22404142568E+03  0.00000000000E+00 0. -1.
         23    2    1    2    0    0  0.11297817751E+03 -0.13562729394E+03  0.35136462447E+03  0.40457290648E+03  0.95201396403E+02 0.  0.
         11    1    3    3    0    0  0.87093646546E+02 -0.12007458533E+03  0.19333246233E+03  0.24368145252E+03  0.00000000000E+00 0. -1.
        -11    1    3    3    0    0  0.25884530967E+02 -0.15552708607E+02  0.15803216214E+03  0.16089145397E+03  0.00000000000E+00 0.  1.
         22    1    1    2    0    0 -0.11297817751E+03  0.13562729394E+03 -0.15798319739E+03  0.23689137197E+03  0.00000000000E+00 0. -1.
<mgrwt>
<rscale>  0 0.61162083E+03</rscale>
<asrwt>0</asrwt>
<pdfrwt beam="1">  1        2 0.34467912E-01 0.61162083E+03</pdfrwt>
<pdfrwt beam="2">  1       -2 0.64218900E-01 0.61162083E+03</pdfrwt>
<totfact> 0.34441086E+02</totfact>
</mgrwt>
</event>
<event>
 6    1  0.2047711E-005  0.7504824E+03  0.7818608E-02  0.9634594E-01
          2   -1    0    0  501    0  0.00000000000E+00  0.00000000000E+00  0.35163378814E+03  0.35163378814E+03  0.00000000000E+00 0. -1.
         -2   -1    0    0    0  501 -0.00000000000E+00 -0.00000000000E+00 -0.40043348159E+03  0.40043348159E+03  0.00000000000E+00 0.  1.
         23    2    1    2    0    0  0.33615256434E+03  0.13778646971E+03 -0.94016456629E+02  0.38596863081E+03  0.90271989598E+02 0.  0.
         13    1    3    3    0    0  0.49839270454E+02  0.57857163079E+02 -0.96733357652E+01  0.76973876242E+02  0.00000000000E+00 0. -1.
        -13    1    3    3    0    0  0.28631329388E+03  0.79929306632E+02 -0.84343120864E+02  0.30899475457E+03  0.00000000000E+00 0.  1.
         22    1    1    2    0    0 -0.33615256434E+03 -0.13778646971E+03  0.45216763185E+02  0.36609863892E+03  0.00000000000E+00 0.  1.
<mgrwt>
<rscale>  0 0.75048236E+03</rscale>
<asrwt>0</asrwt>
<pdfrwt beam="1">  1        2 0.54097506E-01 0.75048236E+03</pdfrwt>
<pdfrwt beam="2">  1       -2 0.61605151E-01 0.75048236E+03</pdfrwt>
<totfact> 0.22712758E+02</totfact>
</mgrwt>
</event>
<event>
 6    1  0.2047711E-005  0.2489580E+04  0.7818608E-02  0.8406707E-01
          1   -1    0    0  501    0  0.00000000000E+00  0.00000000000E+00  0.10805171490E+04  0.10805171490E+04  0.00000000000E+00 0. -1.
         -1   -1    0    0    0  501 -0.00000000000E+00 -0.00000000000E+00 -0.14340379828E+04  0.14340379828E+04  0.00000000000E+00 0.  1.
         23    2    1    2    0    0 -0.93552142185E+03 -0.30944749701E+03  0.58848376358E+03  0.11513490778E+04  0.91287867850E+02 0.  0.
         13    1    3    3    0    0 -0.18480204077E+03 -0.58743551392E+02  0.15956731535E+03  0.25112611818E+03  0.00000000000E+00 0. -1.
        -13    1    3    3    0    0 -0.75071938108E+03 -0.25070394562E+03  0.42891644823E+03  0.90022295963E+03  0.00000000000E+00 0.  1.
         22    1    1    2    0    0  0.93552142185E+03  0.30944749701E+03 -0.94200459743E+03  0.13632060540E+04  0.00000000000E+00 0.  1.
<mgrwt>
<rscale>  0 0.24895804E+04</rscale>
<asrwt>0</asrwt>
<pdfrwt beam="1">  1        1 0.16623341E+00 0.24895804E+04</pdfrwt>
<pdfrwt beam="2">  1       -1 0.22062123E+00 0.24895804E+04</pdfrwt>
<totfact> 0.12712670E+00</totfact>
</mgrwt>
</event>
<event>
 6    1  0.2047711E-005  0.2347601E+04  0.7818608E-02  0.8459386E-01
          2   -1    0    0  501    0  0.00000000000E+00  0.00000000000E+00  0.16909180258E+04  0.16909180258E+04  0.00000000000E+00 0. -1.
         -2   -1    0    0    0  501 -0.00000000000E+00 -0.00000000000E+00 -0.81482826037E+03  0.81482826037E+03  0.00000000000E+00 0.  1.
         23    2    1    2    0    0 -0.10064612076E+04  0.54735344638E+03  0.17496370916E+03  0.11625643534E+04  0.91562103418E+02 0.  0.
         13    1    3    3    0    0 -0.68519630517E+03  0.36109945561E+03  0.16021296579E+03  0.79092034230E+03  0.00000000000E+00 0.  1.
        -13    1    3    3    0    0 -0.32126490239E+03  0.18625399077E+03  0.14750743367E+02  0.37164401114E+03  0.00000000000E+00 0. -1.
         22    1    1    2    0    0  0.10064612076E+04 -0.54735344638E+03  0.70112605625E+03  0.13431819327E+04  0.00000000000E+00 0. -1.
<mgrwt>
<rscale>  0 0.23476012E+04</rscale>
<asrwt>0</asrwt>
<pdfrwt beam="1">  1        2 0.26014123E+00 0.23476012E+04</pdfrwt>
<pdfrwt beam="2">  1       -2 0.12535819E+00 0.23476012E+04</pdfrwt>
<totfact> 0.42660696E+00</totfact>
</mgrwt>
</event>
<event>
 6    1  0.2047711E-005  0.1138170E+04  0.7818608E-02  0.9168767E-01
         -2   -1    0    0    0  501 -0.00000000000E+00  0.00000000000E+00  0.54144922898E+03  0.54144922898E+03  0.00000000000E+00 0. -1.
          2   -1    0    0  501    0  0.00000000000E+00 -0.00000000000E+00 -0.59813142088E+03  0.59813142088E+03  0.00000000000E+00 0.  1.
         23    2    1    2    0    0 -0.33940824684E+03 -0.45112431521E+03 -0.64296840865E+02  0.57498425537E+03  0.88100535618E+02 0.  0.
         11    1    3    3    0    0 -0.19021320519E+03 -0.18022338043E+03 -0.24790910380E+02  0.26320357049E+03  0.00000000000E+00 0. -1.
        -11    1    3    3    0    0 -0.14919504166E+03 -0.27090093478E+03 -0.39505930485E+02  0.31178068488E+03  0.00000000000E+00 0.  1.
         22    1    1    2    0    0  0.33940824684E+03  0.45112431521E+03  0.76146489694E+01  0.56459639450E+03  0.00000000000E+00 0. -1.
<mgrwt>
<rscale>  0 0.11381701E+04</rscale>
<asrwt>0</asrwt>
<pdfrwt beam="1">  1        2 0.92020218E-01 0.11381701E+04</pdfrwt>
<pdfrwt beam="2">  1       -2 0.83299882E-01 0.11381701E+04</pdfrwt>
<totfact> 0.62249716E+01</totfact>
</mgrwt>
</event>
<event>
 6    1  0.2047711E-005  0.2360196E+04  0.7818608E-02  0.8454558E-01
         -3   -1    0    0    0  501 -0.00000000000E+00  0.00000000000E+00  0.23108188559E+04  0.23108188559E+04  0.00000000000E+00 0.  1.
          3   -1    0    0  501    0  0.00000000000E+00 -0.00000000000E+00 -0.60265719011E+03  0.60265719011E+03  0.00000000000E+00 0. -1.
         23    2    1    2    0    0 -0.81242385932E+03 -0.84396343782E+03  0.10122554320E+04  0.15509077733E+04  0.91362191986E+02 0.  0.
         11    1    3    3    0    0 -0.31095836325E+03 -0.28424382877E+03  0.31847700447E+03  0.52812617833E+03  0.00000000000E+00 0. -1.
        -11    1    3    3    0    0 -0.50146549608E+03 -0.55971960905E+03  0.69377842757E+03  0.10227815950E+04  0.00000000000E+00 0.  1.
         22    1    1    2    0    0  0.81242385932E+03  0.84396343782E+03  0.69590623379E+03  0.13625682727E+04  0.00000000000E+00 0.  1.
<mgrwt>
<rscale>  0 0.23601963E+04</rscale>
<asrwt>0</asrwt>
<pdfrwt beam="1">  1        3 0.92716492E-01 0.23601963E+04</pdfrwt>
<pdfrwt beam="2">  1       -3 0.35551059E+00 0.23601963E+04</pdfrwt>
<totfact> 0.45756902E-02</totfact>
</mgrwt>
</event>
<event>
 6    1  0.2047711E-005  0.1256883E+04  0.7818608E-02  0.9064474E-01
          2   -1    0    0  501    0  0.00000000000E+00  0.00000000000E+00  0.67030210140E+03  0.67030210140E+03  0.00000000000E+00 0. -1.
         -2   -1    0    0    0  501 -0.00000000000E+00 -0.00000000000E+00 -0.58919477771E+03  0.58919477771E+03  0.00000000000E+00 0.  1.
         23    2    1    2    0    0 -0.52080720360E+03  0.14360153795E+03  0.35609020255E+03  0.65329796069E+03  0.90202262049E+02 0.  0.
         13    1    3    3    0    0 -0.30628160402E+03  0.79125667572E+02  0.26032459742E+03  0.40968059297E+03  0.00000000000E+00 0. -1.
        -13    1    3    3    0    0 -0.21452559958E+03  0.64475870375E+02  0.95765605125E+02  0.24361736773E+03  0.00000000000E+00 0.  1.
         22    1    1    2    0    0  0.52080720360E+03 -0.14360153795E+03 -0.27498287886E+03  0.60619891841E+03  0.00000000000E+00 0.  1.
<mgrwt>
<rscale>  0 0.12568826E+04</rscale>
<asrwt>0</asrwt>
<pdfrwt beam="1">  1        2 0.10312340E+00 0.12568826E+04</pdfrwt>
<pdfrwt beam="2">  1       -2 0.90645350E-01 0.12568826E+04</pdfrwt>
<totfact> 0.44237309E+01</totfact>
</mgrwt>
</event>
<event>
 6    1  0.2047711E-005  0.1658374E+04  0.7818608E-02  0.8785468E-01
          2   -1    0    0  501    0  0.00000000000E+00  0.00000000000E+00  0.23444617035E+04  0.23444617035E+04  0.00000000000E+00 0. -1.
         -2   -1    0    0    0  501 -0.00000000000E+00 -0.00000000000E+00 -0.29326601939E+03  0.29326601939E+03  0.00000000000E+00 0.  1.
         23    2    1    2    0    0 -0.13124956341E+03  0.19891739849E+03  0.22878248560E+04  0.23018885585E+04  0.88055576028E+02 0.  0.
         11    1    3    3    0    0 -0.12179035121E+02  0.45087855323E+02  0.21823161156E+03  0.22317320601E+03  0.00000000000E+00 0.  1.
        -11    1    3    3    0    0 -0.11907052829E+03  0.15382954316E+03  0.20695932445E+04  0.20787153525E+04  0.00000000000E+00 0. -1.
         22    1    1    2    0    0  0.13124956341E+03 -0.19891739849E+03 -0.23662917196E+03  0.33583916439E+03  0.00000000000E+00 0.  1.
<mgrwt>
<rscale>  0 0.16583738E+04</rscale>
<asrwt>0</asrwt>
<pdfrwt beam="1">  1        2 0.36068640E+00 0.16583738E+04</pdfrwt>
<pdfrwt beam="2">  1       -2 0.45117851E-01 0.16583738E+04</pdfrwt>
<totfact> 0.19043242E+01</totfact>
</mgrwt>
</event>
<event>
 6    1  0.2047711E-005  0.1998904E+04  0.7818608E-02  0.8607133E-01
          2   -1    0    0  501    0  0.00000000000E+00  0.00000000000E+00  0.33501383755E+04  0.33501383755E+04  0.00000000000E+00 0. -1.
         -2   -1    0    0    0  501 -0.00000000000E+00 -0.00000000000E+00 -0.29816802954E+03  0.29816802954E+03  0.00000000000E+00 0.  1.
         23    2    1    2    0    0  0.39205382238E+03  0.45876678557E+03  0.29784233636E+04  0.30403735783E+04  0.93234110896E+02 0.  0.
         11    1    3    3    0    0  0.15467198051E+03  0.24374488331E+03  0.15242333311E+04  0.15513291840E+04  0.00000000000E+00 0. -1.
        -11    1    3    3    0    0  0.23738184186E+03  0.21502190226E+03  0.14541900325E+04  0.14890443942E+04  0.00000000000E+00 0.  1.
         22    1    1    2    0    0 -0.39205382238E+03 -0.45876678557E+03  0.73546982300E+02  0.60793282670E+03  0.00000000000E+00 0.  1.
<mgrwt>
<rscale>  0 0.19989039E+04</rscale>
<asrwt>0</asrwt>
<pdfrwt beam="1">  1        2 0.51540588E+00 0.19989039E+04</pdfrwt>
<pdfrwt beam="2">  1       -2 0.45872007E-01 0.19989039E+04</pdfrwt>
<totfact> 0.43352914E+00</totfact>
</mgrwt>
</event>
<event>
 6    1  0.2047711E-005  0.1765430E+04  0.7818608E-02  0.8724902E-01
         -2   -1    0    0    0  501 -0.00000000000E+00  0.00000000000E+00  0.35737377372E+03  0.35737377372E+03  0.00000000000E+00 0. -1.
          2   -1    0    0  501    0  0.00000000000E+00 -0.00000000000E+00 -0.21803111874E+04  0.21803111874E+04  0.00000000000E+00 0.  1.
         23    2    1    2    0    0  0.42962941638E+03  0.71722030140E+03 -0.52883551731E+03  0.99700780013E+03  0.12398045405E+03 0.  0.
         13    1    3    3    0    0  0.24395492386E+03  0.36460454114E+03 -0.20855587500E+03  0.48574276041E+03  0.00000000000E+00 0. -1.
        -13    1    3    3    0    0  0.18567449253E+03  0.35261576026E+03 -0.32027964231E+03  0.51126503972E+03  0.00000000000E+00 0.  1.
         22    1    1    2    0    0 -0.42962941638E+03 -0.71722030140E+03 -0.12941018963E+04  0.15406771610E+04  0.00000000000E+00 0.  1.
<mgrwt>
<rscale>  0 0.17654303E+04</rscale>
<asrwt>0</asrwt>
<pdfrwt beam="1">  1        2 0.33543249E+00 0.17654303E+04</pdfrwt>
<pdfrwt beam="2">  1       -2 0.54980581E-01 0.17654303E+04</pdfrwt>
<totfact> 0.15607033E+01</totfact>
</mgrwt>
</event>
<event>
 6    1  0.2047711E-005  0.3402244E+04  0.7818608E-02  0.8137356E-01
         -2   -1    0    0    0  501 -0.00000000000E+00  0.00000000000E+00  0.11798982457E+04  0.11798982457E+04  0.00000000000E+00 0.  1.
          2   -1    0    0  501    0  0.00000000000E+00 -0.00000000000E+00 -0.24525981063E+04  0.24525981063E+04  0.00000000000E+00 0. -1.
         23    2    1    2    0    0  0.11231406679E+03  0.16054910196E+03 -0.24396486920E+04  0.24492127685E+04  0.91471202858E+02 0.  0.
         13    1    3    3    0    0  0.10983508359E+03  0.81578387796E+02 -0.14728096648E+04  0.14791507995E+04  0.00000000000E+00 0. -1.
        -13    1    3    3    0    0  0.24789832073E+01  0.78970714161E+02 -0.96683902720E+03  0.97006196893E+03  0.00000000000E+00 0.  1.
         22    1    1    2    0    0 -0.11231406679E+03 -0.16054910196E+03  0.11669488314E+04  0.11832835835E+04  0.00000000000E+00 0.  1.
<mgrwt>
<rscale>  0 0.34022441E+04</rscale>
<asrwt>0</asrwt>
<pdfrwt beam="1">  1        2 0.37732278E+00 0.34022441E+04</pdfrwt>
<pdfrwt beam="2">  1       -2 0.18152281E+00 0.34022441E+04</pdfrwt>
<totfact> 0.54353896E-01</totfact>
</mgrwt>
</event>
<event>
 6    1  0.2047711E-005  0.2910726E+04  0.7818608E-02  0.8269693E-01
         -2   -1    0    0    0  501 -0.00000000000E+00  0.00000000000E+00  0.95397818973E+03  0.95397818973E+03  0.00000000000E+00 0.  1.
          2   -1    0    0  501    0  0.00000000000E+00 -0.00000000000E+00 -0.22202619735E+04  0.22202619735E+04  0.00000000000E+00 0. -1.
         23    2    1    2    0    0  0.13122955057E+04  0.50123585379E+03 -0.22488678485E+03  0.14255650691E+04  0.91130812240E+02 0.  0.
         11    1    3    3    0    0  0.57434240225E+03  0.21672437729E+03 -0.52624352387E+02  0.61612334252E+03  0.00000000000E+00 0.  1.
        -11    1    3    3    0    0  0.73795310345E+03  0.28451147651E+03 -0.17226243246E+03  0.80944172662E+03  0.00000000000E+00 0. -1.
         22    1    1    2    0    0 -0.13122955057E+04 -0.50123585379E+03 -0.10413969990E+04  0.17486750941E+04  0.00000000000E+00 0. -1.
<mgrwt>
<rscale>  0 0.29107260E+04</rscale>
<asrwt>0</asrwt>
<pdfrwt beam="1">  1        2 0.34157876E+00 0.29107260E+04</pdfrwt>
<pdfrwt beam="2">  1       -2 0.14676588E+00 0.29107260E+04</pdfrwt>
<totfact> 0.13765945E+00</totfact>
</mgrwt>
</event>
<event>
 6    1  0.2047711E-005  0.1882065E+04  0.7818608E-02  0.8663835E-01
         -1   -1    0    0    0  501 -0.00000000000E+00  0.00000000000E+00  0.17131824943E+04  0.17131824943E+04  0.00000000000E+00 0.  1.
          1   -1    0    0  501    0  0.00000000000E+00 -0.00000000000E+00 -0.51689907143E+03  0.51689907143E+03  0.00000000000E+00 0. -1.
         23    2    1    2    0    0 -0.59614049528E+02  0.52957548197E+03 -0.31605922731E+03  0.62659027558E+03  0.93369761009E+02 0.  0.
         13    1    3    3    0    0 -0.69809365788E+02  0.21110482570E+03 -0.13434877983E+03  0.25978489107E+03  0.00000000000E+00 0.  1.
        -13    1    3    3    0    0  0.10195316260E+02  0.31847065627E+03 -0.18171044748E+03  0.36680538451E+03  0.00000000000E+00 0. -1.
         22    1    1    2    0    0  0.59614049528E+02 -0.52957548197E+03  0.15123426502E+04  0.16034912901E+04  0.00000000000E+00 0.  1.
<mgrwt>
<rscale>  0 0.18820653E+04</rscale>
<asrwt>0</asrwt>
<pdfrwt beam="1">  1        1 0.79522935E-01 0.18820653E+04</pdfrwt>
<pdfrwt beam="2">  1       -1 0.26356654E+00 0.18820653E+04</pdfrwt>
<totfact> 0.22564598E+00</totfact>
</mgrwt>
</event>
<event>
 6    1  0.2047711E-005  0.1706472E+04  0.7818608E-02  0.8757682E-01
         -2   -1    0    0    0  501 -0.00000000000E+00  0.00000000000E+00  0.20312307185E+04  0.20312307185E+04  0.00000000000E+00 0.  1.
          2   -1    0    0  501    0  0.00000000000E+00 -0.00000000000E+00 -0.35840893989E+03  0.35840893989E+03  0.00000000000E+00 0. -1.
         23    2    1    2    0    0 -0.54288420864E+03 -0.31904444207E+02  0.17550777823E+04  0.18396331060E+04  0.90613381828E+02 0.  0.
         13    1    3    3    0    0 -0.23374891807E+03  0.35047698914E+01  0.89401553683E+03  0.92407500789E+03  0.00000000000E+00 0.  1.
        -13    1    3    3    0    0 -0.30913529058E+03 -0.35409214099E+02  0.86106224551E+03  0.91555809808E+03  0.00000000000E+00 0. -1.
         22    1    1    2    0    0  0.54288420864E+03  0.31904444207E+02 -0.82256003734E+02  0.55000655242E+03  0.00000000000E+00 0. -1.
<mgrwt>
<rscale>  0 0.17064715E+04</rscale>
<asrwt>0</asrwt>
<pdfrwt beam="1">  1        2 0.55139838E-01 0.17064715E+04</pdfrwt>
<pdfrwt beam="2">  1       -2 0.31249703E+00 0.17064715E+04</pdfrwt>
<totfact> 0.22859049E+00</totfact>
</mgrwt>
</event>
<event>
 6    1  0.2047711E-005  0.1104824E+04  0.7818608E-02  0.9200503E-01
          2   -1    0    0  501    0  0.00000000000E+00  0.00000000000E+00  0.16695041032E+03  0.16695041032E+03  0.00000000000E+00 0. -1.
         -2   -1    0    0    0  501 -0.00000000000E+00 -0.00000000000E+00 -0.18278418200E+04  0.18278418200E+04  0.00000000000E+00 0.  1.
         23    2    1    2    0    0 -0.20626120242E+03 -0.23434662809E+03 -0.16506434523E+04  0.16824349887E+04  0.92204441165E+02 0.  0.
         13    1    3    3    0    0 -0.20294191821E+03 -0.22008376211E+03 -0.14142421852E+04  0.14455805903E+04  0.00000000000E+00 0. -1.
        -13    1    3    3    0    0 -0.33192842112E+01 -0.14262865979E+02 -0.23640126711E+03  0.23685439850E+03  0.00000000000E+00 0.  1.
         22    1    1    2    0    0  0.20626120242E+03  0.23434662809E+03 -0.10247957337E+02  0.31235724155E+03  0.00000000000E+00 0. -1.
<mgrwt>
<rscale>  0 0.11048239E+04</rscale>
<asrwt>0</asrwt>
<pdfrwt beam="1">  1        2 0.25684677E-01 0.11048239E+04</pdfrwt>
<pdfrwt beam="2">  1       -2 0.28120645E+00 0.11048239E+04</pdfrwt>
<totfact> 0.88131578E+00</totfact>
</mgrwt>
</event>
<event>
 6    1  0.2047711E-005  0.9097721E+03  0.7818608E-02  0.9413448E-01
          2   -1    0    0  501    0  0.00000000000E+00  0.00000000000E+00  0.18871527257E+04  0.18871527257E+04  0.00000000000E+00 0. -1.
         -2   -1    0    0    0  501 -0.00000000000E+00 -0.00000000000E+00 -0.10964736646E+03  0.10964736646E+03  0.00000000000E+00 0.  1.
         23    2    1    2    0    0  0.96462008855E+02  0.17619233122E+03  0.17822236717E+04  0.17958749339E+04  0.92178662033E+02 0.  0.
         13    1    3    3    0    0 -0.66516060192E+01  0.20517085851E+01  0.27928259011E+03  0.27936932278E+03  0.00000000000E+00 0. -1.
        -13    1    3    3    0    0  0.10311361487E+03  0.17414062263E+03  0.15029410816E+04  0.15165056112E+04  0.00000000000E+00 0.  1.
         22    1    1    2    0    0 -0.96462008855E+02 -0.17619233122E+03 -0.47183124489E+01  0.20092515822E+03  0.00000000000E+00 0.  1.
<mgrwt>
<rscale>  0 0.90977212E+03</rscale>
<asrwt>0</asrwt>
<pdfrwt beam="1">  1        2 0.29033116E+00 0.90977212E+03</pdfrwt>
<pdfrwt beam="2">  1       -2 0.16868827E-01 0.90977212E+03</pdfrwt>
<totfact> 0.22335665E+02</totfact>
</mgrwt>
</event>
<event>
 6    1  0.2047711E-005  0.3757661E+04  0.7818608E-02  0.8055302E-01
         -2   -1    0    0    0  501 -0.00000000000E+00  0.00000000000E+00  0.13964894838E+04  0.13964894838E+04  0.00000000000E+00 0.  1.
          2   -1    0    0  501    0  0.00000000000E+00 -0.00000000000E+00 -0.25277692948E+04  0.25277692948E+04  0.00000000000E+00 0. -1.
         23    2    1    2    0    0 -0.47884060533E+03  0.11585715832E+04  0.89399643147E+03  0.15423855038E+04  0.90260646122E+02 0.  0.
         11    1    3    3    0    0 -0.23610242290E+03  0.58802541793E+03  0.39701083978E+03  0.74775387202E+03  0.00000000000E+00 0. -1.
        -11    1    3    3    0    0 -0.24273818243E+03  0.57054616525E+03  0.49698559169E+03  0.79463163179E+03  0.00000000000E+00 0.  1.
         22    1    1    2    0    0  0.47884060533E+03 -0.11585715832E+04 -0.20252762424E+04  0.23818732747E+04  0.00000000000E+00 0. -1.
<mgrwt>
<rscale>  0 0.37576606E+04</rscale>
<asrwt>0</asrwt>
<pdfrwt beam="1">  1        2 0.38888758E+00 0.37576606E+04</pdfrwt>
<pdfrwt beam="2">  1       -2 0.21484454E+00 0.37576606E+04</pdfrwt>
<totfact> 0.28765073E-01</totfact>
</mgrwt>
</event>
<event>
 6    1  0.2047711E-005  0.2858694E+04  0.7818608E-02  0.8285274E-01
         -1   -1    0    0    0  501 -0.00000000000E+00  0.00000000000E+00  0.17393672513E+04  0.17393672513E+04  0.00000000000E+00 0. -1.
          1   -1    0    0  501    0  0.00000000000E+00 -0.00000000000E+00 -0.11745838255E+04  0.11745838255E+04  0.00000000000E+00 0.  1.
         23    2    1    2    0    0  0.26016477342E+03  0.65457576848E+03  0.15487859783E+04  0.17038204353E+04  0.90060663842E+02 0.  0.
         11    1    3    3    0    0  0.63851352811E+02  0.11483435365E+03  0.22041447128E+03  0.25660565696E+03  0.00000000000E+00 0. -1.
        -11    1    3    3    0    0  0.19631342061E+03  0.53974141482E+03  0.13283715071E+04  0.14472147784E+04  0.00000000000E+00 0.  1.
         22    1    1    2    0    0 -0.26016477342E+03 -0.65457576848E+03 -0.98400255253E+03  0.12101306415E+04  0.00000000000E+00 0.  1.
<mgrwt>
<rscale>  0 0.28586939E+04</rscale>
<asrwt>0</asrwt>
<pdfrwt beam="1">  1        1 0.18070520E+00 0.28586939E+04</pdfrwt>
<pdfrwt beam="2">  1       -1 0.26759496E+00 0.28586939E+04</pdfrwt>
<totfact> 0.51462446E-01</totfact>
</mgrwt>
</event>
<event>
 6    1  0.2047711E-005  0.1399910E+04  0.7818608E-02  0.8953884E-01
         -1   -1    0    0    0  501 -0.00000000000E+00  0.00000000000E+00  0.37510317680E+03  0.37510317680E+03  0.00000000000E+00 0.  1.
          1   -1    0    0  501    0  0.00000000000E+00 -0.00000000000E+00 -0.13061385439E+04  0.13061385439E+04  0.00000000000E+00 0. -1.
         23    2    1    2    0    0  0.21604986315E+03 -0.61022264654E+03 -0.15686351773E+03  0.67208797916E+03  0.89704330022E+02 0.  0.
         11    1    3    3    0    0  0.67908728659E+02 -0.11384476087E+03 -0.58151024783E+02  0.14475415948E+03  0.00000000000E+00 0. -1.
        -11    1    3    3    0    0  0.14814113449E+03 -0.49637788567E+03 -0.98712492948E+02  0.52733381968E+03  0.00000000000E+00 0.  1.
         22    1    1    2    0    0 -0.21604986315E+03  0.61022264654E+03 -0.77417184936E+03  0.10091537415E+04  0.00000000000E+00 0. -1.
<mgrwt>
<rscale>  0 0.13999096E+04</rscale>
<asrwt>0</asrwt>
<pdfrwt beam="1">  1        1 0.20094439E+00 0.13999096E+04</pdfrwt>
<pdfrwt beam="2">  1       -1 0.57708180E-01 0.13999096E+04</pdfrwt>
<totfact> 0.26555211E+01</totfact>
</mgrwt>
</event>
<event>
 6    1  0.2047711E-005  0.1309799E+04  0.7818608E-02  0.9021830E-01
          2   -1    0    0  501    0  0.00000000000E+00  0.00000000000E+00  0.23476750515E+04  0.23476750515E+04  0.00000000000E+00 0. -1.
         -2   -1    0    0    0  501 -0.00000000000E+00 -0.00000000000E+00 -0.18268864518E+03  0.18268864518E+03  0.00000000000E+00 0.  1.
         23    2    1    2    0    0  0.47887609479E+03 -0.14753891768E+03  0.18929769401E+04  0.19602065288E+04  0.89207024741E+02 0.  0.
         13    1    3    3    0    0  0.23259317018E+03 -0.10114968447E+03  0.81890894163E+03  0.85728798905E+03  0.00000000000E+00 0.  1.
        -13    1    3    3    0    0  0.24628292462E+03 -0.46389233211E+02  0.10740679985E+04  0.11029185397E+04  0.00000000000E+00 0. -1.
         22    1    1    2    0    0 -0.47887609479E+03  0.14753891768E+03  0.27200946619E+03  0.57015716789E+03  0.00000000000E+00 0.  1.
<mgrwt>
<rscale>  0 0.13097993E+04</rscale>
<asrwt>0</asrwt>
<pdfrwt beam="1">  1        2 0.36118076E+00 0.13097993E+04</pdfrwt>
<pdfrwt beam="2">  1       -2 0.28105947E-01 0.13097993E+04</pdfrwt>
<totfact> 0.48448172E+01</totfact>
</mgrwt>
</event>
<event>
 6    1  0.2047711E-005  0.6689268E+03  0.7818608E-02  0.9771898E-01
         -2   -1    0    0    0  501 -0.00000000000E+00  0.00000000000E+00  0.67761899178E+02  0.67761899178E+02  0.00000000000E+00 0.  1.
          2   -1    0    0  501    0  0.00000000000E+00 -0.00000000000E+00 -0.16508655071E+04  0.16508655071E+04  0.00000000000E+00 0. -1.
         23    2    1    2    0    0 -0.83213646861E+02  0.24938979541E+03 -0.13103362084E+04  0.13397846482E+04  0.94457098574E+02 0.  0.
         11    1    3    3    0    0 -0.73505730671E+02  0.16877517430E+03 -0.68911628669E+03  0.71328073610E+03  0.00000000000E+00 0.  1.
        -11    1    3    3    0    0 -0.97079161899E+01  0.80614621110E+02 -0.62121992173E+03  0.62650391214E+03  0.00000000000E+00 0. -1.
         22    1    1    2    0    0  0.83213646861E+02 -0.24938979541E+03 -0.27276739945E+03  0.37884275799E+03  0.00000000000E+00 0.  1.
<mgrwt>
<rscale>  0 0.66892685E+03</rscale>
<asrwt>0</asrwt>
<pdfrwt beam="1">  1        2 0.25397928E+00 0.66892685E+03</pdfrwt>
<pdfrwt beam="2">  1       -2 0.10424909E-01 0.66892685E+03</pdfrwt>
<totfact> 0.68322954E+02</totfact>
</mgrwt>
</event>
<event>
 6    1  0.2047711E-005  0.7069240E+03  0.7818608E-02  0.9705464E-01
         -2   -1    0    0    0  501 -0.00000000000E+00  0.00000000000E+00  0.55468956447E+02  0.55468956447E+02  0.00000000000E+00 0.  1.
          2   -1    0    0  501    0  0.00000000000E+00 -0.00000000000E+00 -0.22523479300E+04  0.22523479300E+04  0.00000000000E+00 0. -1.
         23    2    1    2    0    0  0.90334349557E+02 -0.33461624954E+03 -0.11995765820E+04  0.12520042187E+04  0.91663833688E+02 0.  0.
         11    1    3    3    0    0  0.39279787804E+02 -0.26709795304E+03 -0.98522111330E+03  0.10215404350E+04  0.00000000000E+00 0. -1.
        -11    1    3    3    0    0  0.51054561753E+02 -0.67518296499E+02 -0.21435546870E+03  0.23046378370E+03  0.00000000000E+00 0.  1.
         22    1    1    2    0    0 -0.90334349557E+02  0.33461624954E+03 -0.99730239157E+03  0.10558126678E+04  0.00000000000E+00 0.  1.
<mgrwt>
<rscale>  0 0.70692401E+03</rscale>
<asrwt>0</asrwt>
<pdfrwt beam="1">  1        2 0.34651509E+00 0.70692401E+03</pdfrwt>
<pdfrwt beam="2">  1       -2 0.85336850E-02 0.70692401E+03</pdfrwt>
<totfact> 0.44253542E+02</totfact>
</mgrwt>
</event>
<event>
 6    1  0.2047711E-005  0.4120097E+04  0.7818608E-02  0.7980748E-01
         -2   -1    0    0    0  501 -0.00000000000E+00  0.00000000000E+00  0.14683621758E+04  0.14683621758E+04  0.00000000000E+00 0.  1.
          2   -1    0    0  501    0  0.00000000000E+00 -0.00000000000E+00 -0.28901594694E+04  0.28901594694E+04  0.00000000000E+00 0. -1.
         23    2    1    2    0    0 -0.41243908287E+03 -0.54832934043E+03 -0.27648795419E+04  0.28503303481E+04  0.95148040045E+02 0.  0.
         11    1    3    3    0    0 -0.19257059775E+03 -0.19316291014E+03 -0.12056491548E+04  0.12361169967E+04  0.00000000000E+00 0. -1.
        -11    1    3    3    0    0 -0.21986848511E+03 -0.35516643028E+03 -0.15592303871E+04  0.16142133514E+04  0.00000000000E+00 0.  1.
         22    1    1    2    0    0  0.41243908287E+03  0.54832934043E+03  0.13430822483E+04  0.15081912970E+04  0.00000000000E+00 0.  1.
<mgrwt>
<rscale>  0 0.41200975E+04</rscale>
<asrwt>0</asrwt>
<pdfrwt beam="1">  1        2 0.44463992E+00 0.41200975E+04</pdfrwt>
<pdfrwt beam="2">  1       -2 0.22590187E+00 0.41200975E+04</pdfrwt>
<totfact> 0.14432810E-01</totfact>
</mgrwt>
</event>
<event>
 6    1  0.2047711E-005  0.4159315E+04  0.7818608E-02  0.7973157E-01
         -1   -1    0    0    0  501 -0.00000000000E+00  0.00000000000E+00  0.15341066916E+04  0.15341066916E+04  0.00000000000E+00 0.  1.
          1   -1    0    0  501    0  0.00000000000E+00 -0.00000000000E+00 -0.28192147145E+04  0.28192147145E+04  0.00000000000E+00 0. -1.
         23    2    1    2    0    0  0.10556628844E+04  0.14652776436E+04 -0.17199663068E+04  0.24957519120E+04  0.95030580512E+02 0.  0.
         13    1    3    3    0    0  0.79542297261E+03  0.11049158656E+04 -0.13519344205E+04  0.19186618912E+04  0.00000000000E+00 0.  1.
        -13    1    3    3    0    0  0.26023991178E+03  0.36036177807E+03 -0.36803188628E+03  0.57709002079E+03  0.00000000000E+00 0. -1.
         22    1    1    2    0    0 -0.10556628844E+04 -0.14652776436E+04  0.43485828385E+03  0.18575694941E+04  0.00000000000E+00 0.  1.
<mgrwt>
<rscale>  0 0.41593154E+04</rscale>
<asrwt>0</asrwt>
<pdfrwt beam="1">  1        1 0.43372533E+00 0.41593154E+04</pdfrwt>
<pdfrwt beam="2">  1       -1 0.23601642E+00 0.41593154E+04</pdfrwt>
<totfact> 0.53713854E-02</totfact>
</mgrwt>
</event>
<event>
 6    1  0.2047711E-005  0.3085751E+03  0.7818608E-02  0.1081031E+00
          2   -1    0    0  501    0  0.00000000000E+00  0.00000000000E+00  0.64440355500E+03  0.64440355500E+03  0.00000000000E+00 0. -1.
         -2   -1    0    0    0  501 -0.00000000000E+00 -0.00000000000E+00 -0.36940588928E+02  0.36940588928E+02  0.00000000000E+00 0.  1.
         23    2    1    2    0    0 -0.71022769127E+02 -0.11941324477E+03  0.26749493651E+03  0.31408127092E+03  0.88259542984E+02 0.  0.
         13    1    3    3    0    0 -0.81212149294E+02 -0.10491817887E+03  0.17341975751E+03  0.21835212329E+03  0.00000000000E+00 0.  1.
        -13    1    3    3    0    0  0.10189380166E+02 -0.14495065901E+02  0.94075178998E+02  0.95729147637E+02  0.00000000000E+00 0. -1.
         22    1    1    2    0    0  0.71022769127E+02  0.11941324477E+03  0.33996802956E+03  0.36726287300E+03  0.00000000000E+00 0. -1.
<mgrwt>
<rscale>  0 0.30857509E+03</rscale>
<asrwt>0</asrwt>
<pdfrwt beam="1">  1        2 0.99139000E-01 0.30857509E+03</pdfrwt>
<pdfrwt beam="2">  1       -2 0.56831680E-02 0.30857509E+03</pdfrwt>
<totfact> 0.74641971E+03</totfact>
</mgrwt>
</event>
<event>
 6    1  0.2047711E-005  0.6926822E+03  0.7818608E-02  0.9729829E-01
          1   -1    0    0  501    0  0.00000000000E+00  0.00000000000E+00  0.58452529576E+03  0.58452529576E+03  0.00000000000E+00 0. -1.
         -1   -1    0    0    0  501 -0.00000000000E+00 -0.00000000000E+00 -0.20521296496E+03  0.20521296496E+03  0.00000000000E+00 0.  1.
         23    2    1    2    0    0 -0.24493500987E+03 -0.99651988463E+02  0.43751671900E+03  0.51897742776E+03  0.89403653459E+02 0.  0.
         13    1    3    3    0    0 -0.95832587093E+02 -0.34358547662E+01  0.10588493441E+03  0.14285415354E+03  0.00000000000E+00 0.  1.
        -13    1    3    3    0    0 -0.14910242277E+03 -0.96216133697E+02  0.33163178459E+03  0.37612327422E+03  0.00000000000E+00 0. -1.
         22    1    1    2    0    0  0.24493500987E+03  0.99651988463E+02 -0.58204388195E+02  0.27076083297E+03  0.00000000000E+00 0.  1.
<mgrwt>
<rscale>  0 0.69268223E+03</rscale>
<asrwt>0</asrwt>
<pdfrwt beam="1">  1        1 0.89926968E-01 0.69268223E+03</pdfrwt>
<pdfrwt beam="2">  1       -1 0.31571226E-01 0.69268223E+03</pdfrwt>
<totfact> 0.33549674E+02</totfact>
</mgrwt>
</event>
<event>
 6    1  0.2047711E-005  0.2876232E+04  0.7818608E-02  0.8279985E-01
         -2   -1    0    0    0  501 -0.00000000000E+00  0.00000000000E+00  0.66791646160E+03  0.66791646160E+03  0.00000000000E+00 0.  1.
          2   -1    0    0  501    0  0.00000000000E+00 -0.00000000000E+00 -0.30964606312E+04  0.30964606312E+04  0.00000000000E+00 0. -1.
         23    2    1    2    0    0  0.35759084636E+03 -0.69499313460E+02 -0.30343384178E+04  0.30574909358E+04  0.91322620191E+02 0.  0.
         13    1    3    3    0    0  0.28155930695E+03 -0.65539149872E+02 -0.20604293910E+04  0.20806105592E+04  0.00000000000E+00 0. -1.
        -13    1    3    3    0    0  0.76031539407E+02 -0.39601635877E+01 -0.97390902674E+03  0.97688037663E+03  0.00000000000E+00 0.  1.
         22    1    1    2    0    0 -0.35759084636E+03  0.69499313460E+02  0.60579424813E+03  0.70688615705E+03  0.00000000000E+00 0.  1.
<mgrwt>
<rscale>  0 0.28762316E+04</rscale>
<asrwt>0</asrwt>
<pdfrwt beam="1">  1        2 0.47637856E+00 0.28762316E+04</pdfrwt>
<pdfrwt beam="2">  1       -2 0.10275638E+00 0.28762316E+04</pdfrwt>
<totfact> 0.10121538E+00</totfact>
</mgrwt>
</event>
<event>
 6    1  0.2047711E-005  0.1298365E+04  0.7818608E-02  0.9030863E-01
          2   -1    0    0  501    0  0.00000000000E+00  0.00000000000E+00  0.12498110114E+04  0.12498110114E+04  0.00000000000E+00 0. -1.
         -2   -1    0    0    0  501 -0.00000000000E+00 -0.00000000000E+00 -0.33720140609E+03  0.33720140609E+03  0.00000000000E+00 0.  1.
         23    2    1    2    0    0  0.24729731565E+03 -0.59385166997E+03  0.39099150368E+03  0.75882088639E+03  0.95493525531E+02 0.  0.
         13    1    3    3    0    0  0.21007145137E+03 -0.45845647467E+03  0.34518931268E+03  0.61112029539E+03  0.00000000000E+00 0. -1.
        -13    1    3    3    0    0  0.37225864284E+02 -0.13539519530E+03  0.45802190997E+02  0.14770059100E+03  0.00000000000E+00 0.  1.
         22    1    1    2    0    0 -0.24729731565E+03  0.59385166997E+03  0.52161810165E+03  0.82819153113E+03  0.00000000000E+00 0. -1.
<mgrwt>
<rscale>  0 0.12983652E+04</rscale>
<asrwt>0</asrwt>
<pdfrwt beam="1">  1        2 0.19227861E+00 0.12983652E+04</pdfrwt>
<pdfrwt beam="2">  1       -2 0.51877140E-01 0.12983652E+04</pdfrwt>
<totfact> 0.60842057E+01</totfact>
</mgrwt>
</event>
<event>
 6    1  0.2047711E-005  0.2122874E+04  0.7818608E-02  0.8551234E-01
          2   -1    0    0  501    0  0.00000000000E+00  0.00000000000E+00  0.82267392968E+03  0.82267392968E+03  0.00000000000E+00 0. -1.
         -2   -1    0    0    0  501 -0.00000000000E+00 -0.00000000000E+00 -0.13694955808E+04  0.13694955808E+04  0.00000000000E+00 0.  1.
         23    2    1    2    0    0  0.55874921332E+03 -0.54863403279E+03 -0.10110539848E+04  0.12818335039E+04  0.87561328881E+02 0.  0.
         11    1    3    3    0    0  0.22823449717E+03 -0.16624836033E+03 -0.37474052836E+03  0.46921206997E+03  0.00000000000E+00 0. -1.
        -11    1    3    3    0    0  0.33051471615E+03 -0.38238567246E+03 -0.63631345640E+03  0.81262143394E+03  0.00000000000E+00 0.  1.
         22    1    1    2    0    0 -0.55874921332E+03  0.54863403279E+03  0.46423233363E+03  0.91033600659E+03  0.00000000000E+00 0. -1.
<mgrwt>
<rscale>  0 0.21228738E+04</rscale>
<asrwt>0</asrwt>
<pdfrwt beam="1">  1        2 0.12656522E+00 0.21228738E+04</pdfrwt>
<pdfrwt beam="2">  1       -2 0.21069163E+00 0.21228738E+04</pdfrwt>
<totfact> 0.34575712E+00</totfact>
</mgrwt>
</event>
<event>
 6    1  0.2047711E-005  0.2804743E+04  0.7818608E-02  0.8301797E-01
         -2   -1    0    0    0  501 -0.00000000000E+00  0.00000000000E+00  0.14343399327E+04  0.14343399327E+04  0.00000000000E+00 0.  1.
          2   -1    0    0  501    0  0.00000000000E+00 -0.00000000000E+00 -0.13711153206E+04  0.13711153206E+04  0.00000000000E+00 0. -1.
         23    2    1    2    0    0  0.93844086120E+03  0.45627880281E+03 -0.90333177746E+03  0.13831005682E+04  0.89984919871E+02 0.  0.
         13    1    3    3    0    0  0.50465614611E+03  0.28242012796E+03 -0.53886774189E+03  0.79045391879E+03  0.00000000000E+00 0. -1.
        -13    1    3    3    0    0  0.43378471508E+03  0.17385867486E+03 -0.36446403557E+03  0.59264664943E+03  0.00000000000E+00 0.  1.
         22    1    1    2    0    0 -0.93844086120E+03 -0.45627880281E+03  0.96655638962E+03  0.14223546851E+04  0.00000000000E+00 0.  1.
<mgrwt>
<rscale>  0 0.28047427E+04</rscale>
<asrwt>0</asrwt>
<pdfrwt beam="1">  1        2 0.21094082E+00 0.28047427E+04</pdfrwt>
<pdfrwt beam="2">  1       -2 0.22066768E+00 0.28047427E+04</pdfrwt>
<totfact> 0.12799988E+00</totfact>
</mgrwt>
</event>
<event>
 6    1  0.2047711E-005  0.2162031E+04  0.7818608E-02  0.8534400E-01
         -2   -1    0    0    0  501 -0.00000000000E+00  0.00000000000E+00  0.12830032092E+04  0.12830032092E+04  0.00000000000E+00 0.  1.
          2   -1    0    0  501    0  0.00000000000E+00 -0.00000000000E+00 -0.91082732691E+03  0.91082732691E+03  0.00000000000E+00 0. -1.
         23    2    1    2    0    0  0.99622032110E+03  0.23975700225E+03  0.53023180414E+03  0.11570470377E+04  0.87599845553E+02 0.  0.
         11    1    3    3    0    0  0.37620344137E+03  0.78191178226E+02  0.24498762888E+03  0.45569927360E+03  0.00000000000E+00 0.  1.
        -11    1    3    3    0    0  0.62001687973E+03  0.16156582403E+03  0.28524417527E+03  0.70134776407E+03  0.00000000000E+00 0. -1.
         22    1    1    2    0    0 -0.99622032110E+03 -0.23975700225E+03 -0.15805592182E+03  0.10367834985E+04  0.00000000000E+00 0.  1.
<mgrwt>
<rscale>  0 0.21620309E+04</rscale>
<asrwt>0</asrwt>
<pdfrwt beam="1">  1        2 0.14012728E+00 0.21620309E+04</pdfrwt>
<pdfrwt beam="2">  1       -2 0.19738511E+00 0.21620309E+04</pdfrwt>
<totfact> 0.36570408E+00</totfact>
</mgrwt>
</event>
<event>
 6    1  0.2047711E-005  0.1336693E+04  0.7818608E-02  0.9000963E-01
          2   -1    0    0  501    0  0.00000000000E+00  0.00000000000E+00  0.77806260919E+03  0.77806260919E+03  0.00000000000E+00 0. -1.
         -2   -1    0    0    0  501 -0.00000000000E+00 -0.00000000000E+00 -0.57410164668E+03  0.57410164668E+03  0.00000000000E+00 0.  1.
         23    2    1    2    0    0  0.13705227402E+03 -0.11867847046E+03 -0.54522150481E+03  0.58135800620E+03  0.88559228223E+02 0.  0.
         11    1    3    3    0    0  0.13029260031E+03 -0.61300000749E+02 -0.38991434153E+03  0.41565255384E+03  0.00000000000E+00 0. -1.
        -11    1    3    3    0    0  0.67596737154E+01 -0.57378469715E+02 -0.15530716328E+03  0.16570545236E+03  0.00000000000E+00 0.  1.
         22    1    1    2    0    0 -0.13705227402E+03  0.11867847046E+03  0.74918246733E+03  0.77080624966E+03  0.00000000000E+00 0. -1.
<mgrwt>
<rscale>  0 0.13366930E+04</rscale>
<asrwt>0</asrwt>
<pdfrwt beam="1">  1        2 0.11970194E+00 0.13366930E+04</pdfrwt>
<pdfrwt beam="2">  1       -2 0.88323330E-01 0.13366930E+04</pdfrwt>
<totfact> 0.38577055E+01</totfact>
</mgrwt>
</event>
<event>
 6    1  0.2047711E-005  0.1261980E+04  0.7818608E-02  0.9060271E-01
         -2   -1    0    0    0  501 -0.00000000000E+00  0.00000000000E+00  0.38581590209E+03  0.38581590209E+03  0.00000000000E+00 0.  1.
          2   -1    0    0  501    0  0.00000000000E+00 -0.00000000000E+00 -0.10319647619E+04  0.10319647619E+04  0.00000000000E+00 0. -1.
         23    2    1    2    0    0 -0.15972742439E+03  0.59149073469E+03 -0.17082509178E+03  0.64234090243E+03  0.89702194070E+02 0.  0.
         11    1    3    3    0    0 -0.88353685428E+02  0.45880998763E+03 -0.14693414756E+03  0.48979855267E+03  0.00000000000E+00 0. -1.
        -11    1    3    3    0    0 -0.71373738957E+02  0.13268074706E+03 -0.23890944222E+02  0.15254234975E+03  0.00000000000E+00 0.  1.
         22    1    1    2    0    0  0.15972742439E+03 -0.59149073469E+03 -0.47532376799E+03  0.77543976152E+03  0.00000000000E+00 0. -1.
<mgrwt>
<rscale>  0 0.12619801E+04</rscale>
<asrwt>0</asrwt>
<pdfrwt beam="1">  1        2 0.15876381E+00 0.12619801E+04</pdfrwt>
<pdfrwt beam="2">  1       -2 0.59356292E-01 0.12619801E+04</pdfrwt>
<totfact> 0.62579414E+01</totfact>
</mgrwt>
</event>
<event>
 6    1  0.2047711E-005  0.1277250E+04  0.7818608E-02  0.9047803E-01
         -2   -1    0    0    0  501 -0.00000000000E+00  0.00000000000E+00  0.11899989234E+03  0.11899989234E+03  0.00000000000E+00 0. -1.
          2   -1    0    0  501    0  0.00000000000E+00 -0.00000000000E+00 -0.34272470979E+04  0.34272470979E+04  0.00000000000E+00 0.  1.
         23    2    1    2    0    0 -0.34303472730E+03 -0.51107825649E+03 -0.12250782446E+04  0.13740437934E+04  0.91136339863E+02 0.  0.
         13    1    3    3    0    0 -0.30183314124E+03 -0.39178836930E+03 -0.10122330196E+04  0.11265953388E+04  0.00000000000E+00 0. -1.
        -13    1    3    3    0    0 -0.41201586062E+02 -0.11928988719E+03 -0.21284522499E+03  0.24744845460E+03  0.00000000000E+00 0.  1.
         22    1    1    2    0    0  0.34303472730E+03  0.51107825649E+03 -0.20831689610E+04  0.21722031969E+04  0.00000000000E+00 0.  1.
<mgrwt>
<rscale>  0 0.12772502E+04</rscale>
<asrwt>0</asrwt>
<pdfrwt beam="1">  1        2 0.52726872E+00 0.12772502E+04</pdfrwt>
<pdfrwt beam="2">  1       -2 0.18307678E-01 0.12772502E+04</pdfrwt>
<totfact> 0.22824353E+01</totfact>
</mgrwt>
</event>
<event>
 6    1  0.2047711E-005  0.1526090E+04  0.7818608E-02  0.8867286E-01
          2   -1    0    0  501    0  0.00000000000E+00  0.00000000000E+00  0.91822522114E+03  0.91822522114E+03  0.00000000000E+00 0. -1.
         -2   -1    0    0    0  501 -0.00000000000E+00 -0.00000000000E+00 -0.63409050247E+03  0.63409050247E+03  0.00000000000E+00 0.  1.
         23    2    1    2    0    0  0.19508436467E+02 -0.50042521225E+03  0.72447247727E+03  0.88545493319E+03  0.91455433119E+02 0.  0.
         13    1    3    3    0    0  0.50314071226E+02 -0.28867299674E+03  0.37874170407E+03  0.47886207118E+03  0.00000000000E+00 0.  1.
        -13    1    3    3    0    0 -0.30805634758E+02 -0.21175221552E+03  0.34573077319E+03  0.40659286201E+03  0.00000000000E+00 0. -1.
         22    1    1    2    0    0 -0.19508436467E+02  0.50042521225E+03 -0.44033775859E+03  0.66686079041E+03  0.00000000000E+00 0.  1.
<mgrwt>
<rscale>  0 0.15260903E+04</rscale>
<asrwt>0</asrwt>
<pdfrwt beam="1">  1        2 0.14126542E+00 0.15260903E+04</pdfrwt>
<pdfrwt beam="2">  1       -2 0.97552385E-01 0.15260903E+04</pdfrwt>
<totfact> 0.24077457E+01</totfact>
</mgrwt>
</event>
<event>
 6    1  0.2047711E-005  0.2852054E+04  0.7818608E-02  0.8287288E-01
          1   -1    0    0  501    0  0.00000000000E+00  0.00000000000E+00  0.17209395746E+04  0.17209395746E+04  0.00000000000E+00 0. -1.
         -1   -1    0    0    0  501 -0.00000000000E+00 -0.00000000000E+00 -0.11816525653E+04  0.11816525653E+04  0.00000000000E+00 0.  1.
         23    2    1    2    0    0 -0.63640428763E+03 -0.12140413268E+04 -0.12502994443E+03  0.13793640627E+04  0.90033160159E+02 0.  0.
         13    1    3    3    0    0 -0.47159231106E+03 -0.85089945986E+03 -0.54399329294E+02  0.97436568375E+03  0.00000000000E+00 0. -1.
        -13    1    3    3    0    0 -0.16481197657E+03 -0.36314186690E+03 -0.70630615139E+02  0.40499837890E+03  0.00000000000E+00 0.  1.
         22    1    1    2    0    0  0.63640428763E+03  0.12140413268E+04  0.66431695369E+03  0.15232280773E+04  0.00000000000E+00 0.  1.
<mgrwt>
<rscale>  0 0.28520538E+04</rscale>
<asrwt>0</asrwt>
<pdfrwt beam="1">  1        1 0.26475994E+00 0.28520538E+04</pdfrwt>
<pdfrwt beam="2">  1       -1 0.18179270E+00 0.28520538E+04</pdfrwt>
<totfact> 0.80308430E-01</totfact>
</mgrwt>
</event>
<event>
 6    1  0.2047711E-005  0.1599562E+04  0.7818608E-02  0.8820817E-01
         -1   -1    0    0    0  501 -0.00000000000E+00  0.00000000000E+00  0.98259104664E+03  0.98259104664E+03  0.00000000000E+00 0.  1.
          1   -1    0    0  501    0  0.00000000000E+00 -0.00000000000E+00 -0.65098229446E+03  0.65098229446E+03  0.00000000000E+00 0. -1.
         23    2    1    2    0    0 -0.83202068682E+02 -0.14795737367E+03  0.96183024921E+03  0.98089186904E+03  0.90650216729E+02 0.  0.
         11    1    3    3    0    0 -0.21620909608E+02 -0.10940376325E+03  0.43464092174E+03  0.44871970983E+03  0.00000000000E+00 0.  1.
        -11    1    3    3    0    0 -0.61581159074E+02 -0.38553610418E+02  0.52718932748E+03  0.53217215921E+03  0.00000000000E+00 0. -1.
         22    1    1    2    0    0  0.83202068682E+02  0.14795737367E+03 -0.63022149703E+03  0.65268147207E+03  0.00000000000E+00 0. -1.
<mgrwt>
<rscale>  0 0.15995617E+04</rscale>
<asrwt>0</asrwt>
<pdfrwt beam="1">  1        1 0.10015112E+00 0.15995617E+04</pdfrwt>
<pdfrwt beam="2">  1       -1 0.15116785E+00 0.15995617E+04</pdfrwt>
<totfact> 0.99632523E+00</totfact>
</mgrwt>
</event>
<event>
 6    1  0.2047711E-005  0.1914137E+04  0.7818608E-02  0.8647851E-01
          2   -1    0    0  501    0  0.00000000000E+00  0.00000000000E+00  0.13753031008E+04  0.13753031008E+04  0.00000000000E+00 0. -1.
         -2   -1    0    0    0  501 -0.00000000000E+00 -0.00000000000E+00 -0.66602033857E+03  0.66602033857E+03  0.00000000000E+00 0.  1.
         23    2    1    2    0    0  0.49593779165E+03 -0.62856288142E+02  0.12229576653E+04  0.13245479430E+04  0.94321768501E+02 0.  0.
         13    1    3    3    0    0  0.28758576156E+03 -0.58308680565E+02  0.60523172996E+03  0.67261498603E+03  0.00000000000E+00 0. -1.
        -13    1    3    3    0    0  0.20835203009E+03 -0.45476075772E+01  0.61772593535E+03  0.65193295697E+03  0.00000000000E+00 0.  1.
         22    1    1    2    0    0 -0.49593779165E+03  0.62856288142E+02 -0.51367490308E+03  0.71677549637E+03  0.00000000000E+00 0.  1.
<mgrwt>
<rscale>  0 0.19141367E+04</rscale>
<asrwt>0</asrwt>
<pdfrwt beam="1">  1        2 0.21158509E+00 0.19141367E+04</pdfrwt>
<pdfrwt beam="2">  1       -2 0.10246467E+00 0.19141367E+04</pdfrwt>
<totfact> 0.10903314E+01</totfact>
</mgrwt>
</event>
<event>
 6    1  0.2047711E-005  0.1200584E+04  0.7818608E-02  0.9112345E-01
          2   -1    0    0  501    0  0.00000000000E+00  0.00000000000E+00  0.34337961780E+04  0.34337961780E+04  0.00000000000E+00 0. -1.
         -2   -1    0    0    0  501 -0.00000000000E+00 -0.00000000000E+00 -0.10494234606E+03  0.10494234606E+03  0.00000000000E+00 0.  1.
         23    2    1    2    0    0 -0.56444938047E+03  0.90960183432E+02  0.21785939569E+04  0.22542251383E+04  0.91555922799E+02 0.  0.
         11    1    3    3    0    0 -0.20110891158E+03  0.56976736423E+02  0.65529880130E+03  0.68782822114E+03  0.00000000000E+00 0. -1.
        -11    1    3    3    0    0 -0.36334046889E+03  0.33983447010E+02  0.15232951556E+04  0.15663969171E+04  0.00000000000E+00 0.  1.
         22    1    1    2    0    0  0.56444938047E+03 -0.90960183432E+02  0.11502598751E+04  0.12845133858E+04  0.00000000000E+00 0.  1.
<mgrwt>
<rscale>  0 0.12005842E+04</rscale>
<asrwt>0</asrwt>
<pdfrwt beam="1">  1        2 0.52827625E+00 0.12005842E+04</pdfrwt>
<pdfrwt beam="2">  1       -2 0.16144979E-01 0.12005842E+04</pdfrwt>
<totfact> 0.28303173E+01</totfact>
</mgrwt>
</event>
<event>
 6    1  0.2047711E-005  0.2026542E+04  0.7818608E-02  0.8594311E-01
          2   -1    0    0  501    0  0.00000000000E+00  0.00000000000E+00  0.71449178891E+03  0.71449178891E+03  0.00000000000E+00 0. -1.
         -2   -1    0    0    0  501 -0.00000000000E+00 -0.00000000000E+00 -0.14369901826E+04  0.14369901826E+04  0.00000000000E+00 0.  1.
         23    2    1    2    0    0  0.98974917996E+03 -0.19752232603E+03 -0.43251559151E+03  0.11013826742E+04  0.85764501466E+02 0.  0.
         13    1    3    3    0    0  0.96078745706E+03 -0.18242063577E+03 -0.43091679389E+03  0.10686810138E+04  0.00000000000E+00 0. -1.
        -13    1    3    3    0    0  0.28961722895E+02 -0.15101690252E+02 -0.15987976174E+01  0.32701660436E+02  0.00000000000E+00 0.  1.
         22    1    1    2    0    0 -0.98974917996E+03  0.19752232603E+03 -0.28998280214E+03  0.10500992972E+04  0.00000000000E+00 0. -1.
<mgrwt>
<rscale>  0 0.20265416E+04</rscale>
<asrwt>0</asrwt>
<pdfrwt beam="1">  1        2 0.10992181E+00 0.20265416E+04</pdfrwt>
<pdfrwt beam="2">  1       -2 0.22107541E+00 0.20265416E+04</pdfrwt>
<totfact> 0.35988140E+00</totfact>
</mgrwt>
</event>
<event>
 6    1  0.2047711E-005  0.1270113E+04  0.7818608E-02  0.9053608E-01
         -2   -1    0    0    0  501 -0.00000000000E+00  0.00000000000E+00  0.35733989894E+03  0.35733989894E+03  0.00000000000E+00 0.  1.
          2   -1    0    0  501    0  0.00000000000E+00 -0.00000000000E+00 -0.11286077012E+04  0.11286077012E+04  0.00000000000E+00 0. -1.
         23    2    1    2    0    0  0.54687966152E+03 -0.28798288464E+03 -0.54035129744E+03  0.82614919290E+03  0.92365893310E+02 0.  0.
         11    1    3    3    0    0  0.25822604302E+03 -0.12876321595E+03 -0.19226347180E+03  0.34673606340E+03  0.00000000000E+00 0. -1.
        -11    1    3    3    0    0  0.28865361850E+03 -0.15921966869E+03 -0.34808782564E+03  0.47941312949E+03  0.00000000000E+00 0.  1.
         22    1    1    2    0    0 -0.54687966152E+03  0.28798288464E+03 -0.23091650485E+03  0.65979840727E+03  0.00000000000E+00 0.  1.
<mgrwt>
<rscale>  0 0.12701127E+04</rscale>
<asrwt>0</asrwt>
<pdfrwt beam="1">  1        2 0.17363195E+00 0.12701127E+04</pdfrwt>
<pdfrwt beam="2">  1       -2 0.54975369E-01 0.12701127E+04</pdfrwt>
<totfact> 0.63938568E+01</totfact>
</mgrwt>
</event>
<event>
 6    1  0.2047711E-005  0.4679072E+04  0.7818608E-02  0.7880015E-01
          2   -1    0    0  501    0  0.00000000000E+00  0.00000000000E+00  0.25260489819E+04  0.25260489819E+04  0.00000000000E+00 0. -1.
         -2   -1    0    0    0  501 -0.00000000000E+00 -0.00000000000E+00 -0.21667944661E+04  0.21667944661E+04  0.00000000000E+00 0.  1.
         23    2    1    2    0    0 -0.12513472595E+04  0.11928722433E+04 -0.14000691611E+04  0.22262599906E+04  0.85004336141E+02 0.  0.
         11    1    3    3    0    0 -0.97778560258E+03  0.88210760134E+03 -0.10679659877E+04  0.16955028328E+04  0.00000000000E+00 0. -1.
        -11    1    3    3    0    0 -0.27356165694E+03  0.31076464195E+03 -0.33210317335E+03  0.53075715782E+03  0.00000000000E+00 0.  1.
         22    1    1    2    0    0  0.12513472595E+04 -0.11928722433E+04  0.17593236769E+04  0.24665834575E+04  0.00000000000E+00 0. -1.
<mgrwt>
<rscale>  0 0.46790721E+04</rscale>
<asrwt>0</asrwt>
<pdfrwt beam="1">  1        2 0.38862292E+00 0.46790721E+04</pdfrwt>
<pdfrwt beam="2">  1       -2 0.33335300E+00 0.46790721E+04</pdfrwt>
<totfact> 0.49674741E-02</totfact>
</mgrwt>
</event>
<event>
 6    1  0.2047711E-005  0.3929769E+04  0.7818608E-02  0.8018866E-01
          2   -1    0    0  501    0  0.00000000000E+00  0.00000000000E+00  0.28343476365E+04  0.28343476365E+04  0.00000000000E+00 0. -1.
         -2   -1    0    0    0  501 -0.00000000000E+00 -0.00000000000E+00 -0.13621375713E+04  0.13621375713E+04  0.00000000000E+00 0.  1.
         23    2    1    2    0    0  0.17335998975E+04 -0.24216645242E+03  0.16870096354E+04  0.24329228894E+04  0.95389102920E+02 0.  0.
         11    1    3    3    0    0  0.12900709001E+04 -0.17631033018E+03  0.11960979974E+04  0.17680550555E+04  0.00000000000E+00 0. -1.
        -11    1    3    3    0    0  0.44352899736E+03 -0.65856122242E+02  0.49091163801E+03  0.66486783399E+03  0.00000000000E+00 0.  1.
         22    1    1    2    0    0 -0.17335998975E+04  0.24216645242E+03 -0.21479957018E+03  0.17635623183E+04  0.00000000000E+00 0.  1.
<mgrwt>
<rscale>  0 0.39297692E+04</rscale>
<asrwt>0</asrwt>
<pdfrwt beam="1">  1        2 0.43605348E+00 0.39297692E+04</pdfrwt>
<pdfrwt beam="2">  1       -2 0.20955963E+00 0.39297692E+04</pdfrwt>
<totfact> 0.20146672E-01</totfact>
</mgrwt>
</event>
<event>
 6    1  0.2047711E-005  0.1336940E+04  0.7818608E-02  0.9000773E-01
         -2   -1    0    0    0  501 -0.00000000000E+00  0.00000000000E+00  0.19798790685E+03  0.19798790685E+03  0.00000000000E+00 0.  1.
          2   -1    0    0  501    0  0.00000000000E+00 -0.00000000000E+00 -0.22569675645E+04  0.22569675645E+04  0.00000000000E+00 0. -1.
         23    2    1    2    0    0  0.46614183039E+03 -0.90490728690E+02 -0.18905019728E+04  0.19511087602E+04  0.85737429780E+02 0.  0.
         13    1    3    3    0    0  0.24904423675E+03 -0.85471256824E+02 -0.94554748773E+03  0.98152351940E+03  0.00000000000E+00 0. -1.
        -13    1    3    3    0    0  0.21709759364E+03 -0.50194718661E+01 -0.94495448512E+03  0.96958524082E+03  0.00000000000E+00 0.  1.
         22    1    1    2    0    0 -0.46614183039E+03  0.90490728690E+02 -0.16847768477E+03  0.50384671110E+03  0.00000000000E+00 0.  1.
<mgrwt>
<rscale>  0 0.13369402E+04</rscale>
<asrwt>0</asrwt>
<pdfrwt beam="1">  1        2 0.34722577E+00 0.13369402E+04</pdfrwt>
<pdfrwt beam="2">  1       -2 0.30459679E-01 0.13369402E+04</pdfrwt>
<totfact> 0.46834960E+01</totfact>
</mgrwt>
</event>
<event>
 6    1  0.2047711E-005  0.2008988E+04  0.7818608E-02  0.8602430E-01
          2   -1    0    0  501    0  0.00000000000E+00  0.00000000000E+00  0.34392529304E+04  0.34392529304E+04  0.00000000000E+00 0. -1.
         -2   -1    0    0    0  501 -0.00000000000E+00 -0.00000000000E+00 -0.29338019095E+03  0.29338019095E+03  0.00000000000E+00 0.  1.
         23    2    1    2    0    0 -0.43317541221E+03  0.25432688541E+03  0.31879134218E+04  0.32285591968E+04  0.92083659905E+02 0.  0.
         11    1    3    3    0    0 -0.17111159712E+03  0.70137821806E+02  0.14025288414E+04  0.14146680330E+04  0.00000000000E+00 0. -1.
        -11    1    3    3    0    0 -0.26206381509E+03  0.18418906361E+03  0.17853845803E+04  0.18138911638E+04  0.00000000000E+00 0.  1.
         22    1    1    2    0    0  0.43317541221E+03 -0.25432688541E+03 -0.42040682330E+02  0.50407392450E+03  0.00000000000E+00 0.  1.
<mgrwt>
<rscale>  0 0.20089885E+04</rscale>
<asrwt>0</asrwt>
<pdfrwt beam="1">  1        2 0.52911581E+00 0.20089885E+04</pdfrwt>
<pdfrwt beam="2">  1       -2 0.45135416E-01 0.20089885E+04</pdfrwt>
<totfact> 0.38920122E+00</totfact>
</mgrwt>
</event>
<event>
 6    1  0.2047711E-005  0.3897511E+04  0.7818608E-02  0.8025547E-01
         -2   -1    0    0    0  501 -0.00000000000E+00  0.00000000000E+00  0.17789077478E+04  0.17789077478E+04  0.00000000000E+00 0.  1.
          2   -1    0    0  501    0  0.00000000000E+00 -0.00000000000E+00 -0.21348205229E+04  0.21348205229E+04  0.00000000000E+00 0. -1.
         23    2    1    2    0    0 -0.99905485408E+03 -0.20447204611E+03  0.14883555503E+04  0.18063020976E+04  0.87210117309E+02 0.  0.
         13    1    3    3    0    0 -0.81303035340E+03 -0.14250171247E+03  0.12452527951E+04  0.14939811302E+04  0.00000000000E+00 0. -1.
        -13    1    3    3    0    0 -0.18602450068E+03 -0.61970333645E+02  0.24310275520E+03  0.31232096742E+03  0.00000000000E+00 0.  1.
         22    1    1    2    0    0  0.99905485408E+03  0.20447204611E+03 -0.18442683254E+04  0.21074261731E+04  0.00000000000E+00 0. -1.
<mgrwt>
<rscale>  0 0.38975114E+04</rscale>
<asrwt>0</asrwt>
<pdfrwt beam="1">  1        2 0.32843393E+00 0.38975114E+04</pdfrwt>
<pdfrwt beam="2">  1       -2 0.27367812E+00 0.38975114E+04</pdfrwt>
<totfact> 0.20568478E-01</totfact>
</mgrwt>
</event>
<event>
 6    1  0.2047711E-005  0.1931427E+04  0.7818608E-02  0.8639369E-01
         -2   -1    0    0    0  501 -0.00000000000E+00  0.00000000000E+00  0.82245817544E+03  0.82245817544E+03  0.00000000000E+00 0. -1.
          2   -1    0    0  501    0  0.00000000000E+00 -0.00000000000E+00 -0.11339212729E+04  0.11339212729E+04  0.00000000000E+00 0.  1.
         23    2    1    2    0    0  0.22934356811E+03  0.89399281618E+03 -0.43672584930E+03  0.10249759994E+04  0.89580713800E+02 0.  0.
         13    1    3    3    0    0  0.21994656530E+03  0.74450239886E+03 -0.38478071230E+03  0.86643898230E+03  0.00000000000E+00 0.  1.
        -13    1    3    3    0    0  0.93970028127E+01  0.14949041733E+03 -0.51945137004E+02  0.15853701711E+03  0.00000000000E+00 0. -1.
         22    1    1    2    0    0 -0.22934356811E+03 -0.89399281618E+03  0.12526275188E+03  0.93140344891E+03  0.00000000000E+00 0. -1.
<mgrwt>
<rscale>  0 0.19314273E+04</rscale>
<asrwt>0</asrwt>
<pdfrwt beam="1">  1        2 0.17444943E+00 0.19314273E+04</pdfrwt>
<pdfrwt beam="2">  1       -2 0.12653203E+00 0.19314273E+04</pdfrwt>
<totfact> 0.90219238E+00</totfact>
</mgrwt>
</event>
<event>
 6    1  0.2047711E-005  0.1255792E+04  0.7818608E-02  0.9065377E-01
          2   -1    0    0  501    0  0.00000000000E+00  0.00000000000E+00  0.14604490555E+04  0.14604490555E+04  0.00000000000E+00 0. -1.
         -2   -1    0    0    0  501 -0.00000000000E+00 -0.00000000000E+00 -0.26995342368E+03  0.26995342368E+03  0.00000000000E+00 0.  1.
         23    2    1    2    0    0  0.75648995113E+02  0.31158307900E+03  0.13367017829E+04  0.13780063609E+04  0.96556142745E+02 0.  0.
         11    1    3    3    0    0  0.68597310256E+02  0.21204608596E+03  0.73362668358E+03  0.76673153347E+03  0.00000000000E+00 0. -1.
        -11    1    3    3    0    0  0.70516848568E+01  0.99536993039E+02  0.60307509933E+03  0.61127482745E+03  0.00000000000E+00 0.  1.
         22    1    1    2    0    0 -0.75648995113E+02 -0.31158307900E+03 -0.14620615105E+03  0.35239611829E+03  0.00000000000E+00 0.  1.
<mgrwt>
<rscale>  0 0.12557917E+04</rscale>
<asrwt>0</asrwt>
<pdfrwt beam="1">  1        2 0.22468447E+00 0.12557917E+04</pdfrwt>
<pdfrwt beam="2">  1       -2 0.41531297E-01 0.12557917E+04</pdfrwt>
<totfact> 0.72145468E+01</totfact>
</mgrwt>
</event>
<event>
 6    1  0.2047711E-005  0.2729768E+04  0.7818608E-02  0.8325411E-01
         -2   -1    0    0    0  501 -0.00000000000E+00  0.00000000000E+00  0.20099224992E+04  0.20099224992E+04  0.00000000000E+00 0.  1.
          2   -1    0    0  501    0  0.00000000000E+00 -0.00000000000E+00 -0.92685551119E+03  0.92685551119E+03  0.00000000000E+00 0. -1.
         23    2    1    2    0    0  0.93033834355E+03  0.55057568000E+03 -0.35154232499E+03  0.11404576342E+04  0.91643855732E+02 0.  0.
         11    1    3    3    0    0  0.24635952035E+03  0.12696123615E+03 -0.12906602113E+03  0.30572897566E+03  0.00000000000E+00 0. -1.
        -11    1    3    3    0    0  0.68397882321E+03  0.42361444385E+03 -0.22247630387E+03  0.83472865855E+03  0.00000000000E+00 0.  1.
         22    1    1    2    0    0 -0.93033834355E+03 -0.55057568000E+03  0.14346093130E+04  0.17963203761E+04  0.00000000000E+00 0.  1.
<mgrwt>
<rscale>  0 0.27297676E+04</rscale>
<asrwt>0</asrwt>
<pdfrwt beam="1">  1        2 0.14259316E+00 0.27297676E+04</pdfrwt>
<pdfrwt beam="2">  1       -2 0.30921884E+00 0.27297676E+04</pdfrwt>
<totfact> 0.68685621E-01</totfact>
</mgrwt>
</event>
<event>
 6    1  0.2047711E-005  0.2698286E+04  0.7818608E-02  0.8335561E-01
         -2   -1    0    0    0  501 -0.00000000000E+00  0.00000000000E+00  0.62649074525E+03  0.62649074525E+03  0.00000000000E+00 0.  1.
          2   -1    0    0  501    0  0.00000000000E+00 -0.00000000000E+00 -0.29053700119E+04  0.29053700119E+04  0.00000000000E+00 0. -1.
         23    2    1    2    0    0  0.63993986074E+03  0.11747825995E+04 -0.92870903770E+03  0.16311775040E+04  0.92749077936E+02 0.  0.
         11    1    3    3    0    0  0.16891938509E+03  0.23962747108E+03 -0.22559933627E+03  0.36993262100E+03  0.00000000000E+00 0. -1.
        -11    1    3    3    0    0  0.47102047566E+03  0.93515512846E+03 -0.70310970144E+03  0.12612448830E+04  0.00000000000E+00 0.  1.
         22    1    1    2    0    0 -0.63993986074E+03 -0.11747825995E+04 -0.13501702290E+04  0.19006832531E+04  0.00000000000E+00 0.  1.
<mgrwt>
<rscale>  0 0.26982864E+04</rscale>
<asrwt>0</asrwt>
<pdfrwt beam="1">  1        2 0.44698000E+00 0.26982864E+04</pdfrwt>
<pdfrwt beam="2">  1       -2 0.96383192E-01 0.26982864E+04</pdfrwt>
<totfact> 0.15756818E+00</totfact>
</mgrwt>
</event>
<event>
 6    1  0.2047711E-005  0.1628590E+04  0.7818608E-02  0.8803174E-01
         -2   -1    0    0    0  501 -0.00000000000E+00  0.00000000000E+00  0.75515077055E+03  0.75515077055E+03  0.00000000000E+00 0. -1.
          2   -1    0    0  501    0  0.00000000000E+00 -0.00000000000E+00 -0.87807141311E+03  0.87807141311E+03  0.00000000000E+00 0.  1.
         23    2    1    2    0    0 -0.44715423360E+03  0.58627733567E+03  0.27906055528E+03  0.79342643090E+03  0.89345871709E+02 0.  0.
         11    1    3    3    0    0 -0.20408738222E+03  0.25508652797E+03  0.77118043824E+02  0.33566052645E+03  0.00000000000E+00 0.  1.
        -11    1    3    3    0    0 -0.24306685138E+03  0.33119080770E+03  0.20194251146E+03  0.45776590445E+03  0.00000000000E+00 0. -1.
         22    1    1    2    0    0  0.44715423360E+03 -0.58627733567E+03 -0.40198119784E+03  0.83979575277E+03  0.00000000000E+00 0.  1.
<mgrwt>
<rscale>  0 0.16285899E+04</rscale>
<asrwt>0</asrwt>
<pdfrwt beam="1">  1        2 0.13508791E+00 0.16285899E+04</pdfrwt>
<pdfrwt beam="2">  1       -2 0.11617704E+00 0.16285899E+04</pdfrwt>
<totfact> 0.16702078E+01</totfact>
</mgrwt>
</event>
<event>
 6    1  0.2047711E-005  0.2394756E+04  0.7818608E-02  0.8441469E-01
         -2   -1    0    0    0  501 -0.00000000000E+00  0.00000000000E+00  0.77903745997E+03  0.77903745997E+03  0.00000000000E+00 0.  1.
          2   -1    0    0  501    0  0.00000000000E+00 -0.00000000000E+00 -0.18403666945E+04  0.18403666945E+04  0.00000000000E+00 0. -1.
         23    2    1    2    0    0 -0.39291985664E+02 -0.11368337478E+04 -0.13131970457E+03  0.11501007290E+04  0.10748019189E+03 0.  0.
         13    1    3    3    0    0  0.33684034724E+02 -0.52324025654E+03 -0.46347383118E+02  0.52636779934E+03  0.00000000000E+00 0. -1.
        -13    1    3    3    0    0 -0.72976020388E+02 -0.61359349129E+03 -0.84972321454E+02  0.62373292965E+03  0.00000000000E+00 0.  1.
         22    1    1    2    0    0  0.39291985664E+02  0.11368337478E+04 -0.93000953000E+03  0.14693034255E+04  0.00000000000E+00 0.  1.
<mgrwt>
<rscale>  0 0.23947564E+04</rscale>
<asrwt>0</asrwt>
<pdfrwt beam="1">  1        2 0.28313333E+00 0.23947564E+04</pdfrwt>
<pdfrwt beam="2">  1       -2 0.11985192E+00 0.23947564E+04</pdfrwt>
<totfact> 0.39269762E+00</totfact>
</mgrwt>
</event>
<event>
 6    1  0.2047711E-005  0.1828776E+04  0.7818608E-02  0.8691145E-01
          2   -1    0    0  501    0  0.00000000000E+00  0.00000000000E+00  0.34771458949E+04  0.34771458949E+04  0.00000000000E+00 0. -1.
         -2   -1    0    0    0  501 -0.00000000000E+00 -0.00000000000E+00 -0.24045738789E+03  0.24045738789E+03  0.00000000000E+00 0.  1.
         23    2    1    2    0    0 -0.54280111333E+02  0.65537651589E+03  0.29072087140E+04  0.29820615490E+04  0.91454182719E+02 0.  0.
         11    1    3    3    0    0 -0.78641614698E+02  0.49631720237E+03  0.22517662117E+04  0.23071554653E+04  0.00000000000E+00 0. -1.
        -11    1    3    3    0    0  0.24361503365E+02  0.15905931352E+03  0.65544250224E+03  0.67490608370E+03  0.00000000000E+00 0.  1.
         22    1    1    2    0    0  0.54280111333E+02 -0.65537651589E+03  0.32947979301E+03  0.73554173374E+03  0.00000000000E+00 0.  1.
<mgrwt>
<rscale>  0 0.18287760E+04</rscale>
<asrwt>0</asrwt>
<pdfrwt beam="1">  1        2 0.53494549E+00 0.18287760E+04</pdfrwt>
<pdfrwt beam="2">  1       -2 0.36993447E-01 0.18287760E+04</pdfrwt>
<totfact> 0.55119989E+00</totfact>
</mgrwt>
</event>
<event>
 6    1  0.2047711E-005  0.2246257E+04  0.7818608E-02  0.8499418E-01
          2   -1    0    0  501    0  0.00000000000E+00  0.00000000000E+00  0.46661751203E+03  0.46661751203E+03  0.00000000000E+00 0. -1.
         -2   -1    0    0    0  501 -0.00000000000E+00 -0.00000000000E+00 -0.27033226751E+04  0.27033226751E+04  0.00000000000E+00 0.  1.
         23    2    1    2    0    0 -0.10004730832E+04  0.15645659609E+02 -0.40597590027E+03  0.10836130770E+04  0.90607351099E+02 0.  0.
         11    1    3    3    0    0 -0.92781112345E+03 -0.92075898090E+01 -0.37742848887E+03  0.10016838447E+04  0.00000000000E+00 0. -1.
        -11    1    3    3    0    0 -0.72661959760E+02  0.24853249418E+02 -0.28547411405E+02  0.81929232272E+02  0.00000000000E+00 0.  1.
         22    1    1    2    0    0  0.10004730832E+04 -0.15645659609E+02 -0.18307292628E+04  0.20863271102E+04  0.00000000000E+00 0.  1.
<mgrwt>
<rscale>  0 0.22462571E+04</rscale>
<asrwt>0</asrwt>
<pdfrwt beam="1">  1        2 0.71787311E-01 0.22462571E+04</pdfrwt>
<pdfrwt beam="2">  1       -2 0.41589579E+00 0.22462571E+04</pdfrwt>
<totfact> 0.35490754E-01</totfact>
</mgrwt>
</event>
<event>
 6    1  0.2047711E-005  0.1579299E+04  0.7818608E-02  0.8833367E-01
          2   -1    0    0  501    0  0.00000000000E+00  0.00000000000E+00  0.10975277465E+04  0.10975277465E+04  0.00000000000E+00 0. -1.
         -2   -1    0    0    0  501 -0.00000000000E+00 -0.00000000000E+00 -0.56813705267E+03  0.56813705267E+03  0.00000000000E+00 0.  1.
         23    2    1    2    0    0  0.29268219109E+03  0.39909116482E+03  0.91066144596E+03  0.10409216446E+04  0.96317070730E+02 0.  0.
         11    1    3    3    0    0  0.16803362427E+03  0.14823102356E+03  0.40274971846E+03  0.46088509517E+03  0.00000000000E+00 0.  1.
        -11    1    3    3    0    0  0.12464856683E+03  0.25086014126E+03  0.50791172750E+03  0.58003654938E+03  0.00000000000E+00 0. -1.
         22    1    1    2    0    0 -0.29268219109E+03 -0.39909116482E+03 -0.38127075213E+03  0.62474315463E+03  0.00000000000E+00 0.  1.
<mgrwt>
<rscale>  0 0.15792988E+04</rscale>
<asrwt>0</asrwt>
<pdfrwt beam="1">  1        2 0.16885042E+00 0.15792988E+04</pdfrwt>
<pdfrwt beam="2">  1       -2 0.87405701E-01 0.15792988E+04</pdfrwt>
<totfact> 0.23741245E+01</totfact>
</mgrwt>
</event>
<event>
 6    1  0.2047711E-005  0.2660828E+04  0.7818608E-02  0.8347828E-01
          2   -1    0    0  501    0  0.00000000000E+00  0.00000000000E+00  0.32858216918E+04  0.32858216918E+04  0.00000000000E+00 0. -1.
         -2   -1    0    0    0  501 -0.00000000000E+00 -0.00000000000E+00 -0.53867849662E+03  0.53867849662E+03  0.00000000000E+00 0.  1.
         23    2    1    2    0    0  0.50478835135E+02 -0.68539635104E+03 -0.25952365300E+03  0.74028848901E+03  0.91423463444E+02 0.  0.
         11    1    3    3    0    0 -0.11134442835E+02 -0.41739487248E+03 -0.13933525629E+03  0.44017811058E+03  0.00000000000E+00 0. -1.
        -11    1    3    3    0    0  0.61613277970E+02 -0.26800147857E+03 -0.12018839671E+03  0.30011037843E+03  0.00000000000E+00 0.  1.
         22    1    1    2    0    0 -0.50478835135E+02  0.68539635104E+03  0.30066668482E+04  0.30842116995E+04  0.00000000000E+00 0. -1.
<mgrwt>
<rscale>  0 0.26608281E+04</rscale>
<asrwt>0</asrwt>
<pdfrwt beam="1">  1        2 0.50551102E+00 0.26608281E+04</pdfrwt>
<pdfrwt beam="2">  1       -2 0.82873617E-01 0.26608281E+04</pdfrwt>
<totfact> 0.12788241E+00</totfact>
</mgrwt>
</event>
<event>
 6    1  0.2047711E-005  0.4379896E+04  0.7818608E-02  0.7932008E-01
          2   -1    0    0  501    0  0.00000000000E+00  0.00000000000E+00  0.20045876952E+04  0.20045876952E+04  0.00000000000E+00 0. -1.
         -2   -1    0    0    0  501 -0.00000000000E+00 -0.00000000000E+00 -0.23924478479E+04  0.23924478479E+04  0.00000000000E+00 0.  1.
         23    2    1    2    0    0 -0.34990541559E+02  0.18902178408E+04  0.91380427584E+03  0.21017189837E+04  0.89647131132E+02 0.  0.
         13    1    3    3    0    0 -0.19819089486E+02  0.78360131418E+03  0.33035691741E+03  0.85062301213E+03  0.00000000000E+00 0. -1.
        -13    1    3    3    0    0 -0.15171452072E+02  0.11066165266E+04  0.58344735842E+03  0.12510959715E+04  0.00000000000E+00 0.  1.
         22    1    1    2    0    0  0.34990541559E+02 -0.18902178408E+04 -0.13016644285E+04  0.22953165595E+04  0.00000000000E+00 0.  1.
<mgrwt>
<rscale>  0 0.43798957E+04</rscale>
<asrwt>0</asrwt>
<pdfrwt beam="1">  1        2 0.30839811E+00 0.43798957E+04</pdfrwt>
<pdfrwt beam="2">  1       -2 0.36806890E+00 0.43798957E+04</pdfrwt>
<totfact> 0.60695308E-02</totfact>
</mgrwt>
</event>
<event>
 6    1  0.2047711E-005  0.2286789E+04  0.7818608E-02  0.8483148E-01
         -2   -1    0    0    0  501 -0.00000000000E+00  0.00000000000E+00  0.12317069548E+04  0.12317069548E+04  0.00000000000E+00 0.  1.
          2   -1    0    0  501    0  0.00000000000E+00 -0.00000000000E+00 -0.10614139388E+04  0.10614139388E+04  0.00000000000E+00 0. -1.
         23    2    1    2    0    0  0.91631584287E+03 -0.27546340807E+03 -0.53917280342E+03  0.11019632374E+04  0.90004730644E+02 0.  0.
         11    1    3    3    0    0  0.77382334645E+03 -0.26586435855E+03 -0.46102671840E+03  0.93916562104E+03  0.00000000000E+00 0.  1.
        -11    1    3    3    0    0  0.14249249642E+03 -0.95990495235E+01 -0.78146085017E+02  0.16279761636E+03  0.00000000000E+00 0. -1.
         22    1    1    2    0    0 -0.91631584287E+03  0.27546340807E+03  0.70946581945E+03  0.11911576563E+04  0.00000000000E+00 0.  1.
<mgrwt>
<rscale>  0 0.22867890E+04</rscale>
<asrwt>0</asrwt>
<pdfrwt beam="1">  1        2 0.16329445E+00 0.22867890E+04</pdfrwt>
<pdfrwt beam="2">  1       -2 0.18949338E+00 0.22867890E+04</pdfrwt>
<totfact> 0.32640895E+00</totfact>
</mgrwt>
</event>
<event>
 6    1  0.2047711E-005  0.1080150E+04  0.7818608E-02  0.9224758E-01
          2   -1    0    0  501    0  0.00000000000E+00  0.00000000000E+00  0.32693700463E+04  0.32693700463E+04  0.00000000000E+00 0. -1.
         -2   -1    0    0    0  501 -0.00000000000E+00 -0.00000000000E+00 -0.89216253890E+02  0.89216253890E+02  0.00000000000E+00 0.  1.
         23    2    1    2    0    0 -0.32480989459E+03 -0.29459727200E+03  0.64136354214E+03  0.78220415556E+03  0.90593197881E+02 0.  0.
         13    1    3    3    0    0 -0.89772277613E+02 -0.13817015642E+03  0.25712326265E+03  0.30538897516E+03  0.00000000000E+00 0. -1.
        -13    1    3    3    0    0 -0.23503761697E+03 -0.15642711558E+03  0.38424027950E+03  0.47681518041E+03  0.00000000000E+00 0.  1.
         22    1    1    2    0    0  0.32480989459E+03  0.29459727200E+03  0.25387902503E+04  0.25763821446E+04  0.00000000000E+00 0. -1.
<mgrwt>
<rscale>  0 0.10801499E+04</rscale>
<asrwt>0</asrwt>
<pdfrwt beam="1">  1        2 0.50297991E+00 0.10801499E+04</pdfrwt>
<pdfrwt beam="2">  1       -2 0.13725580E-01 0.10801499E+04</pdfrwt>
<totfact> 0.48603245E+01</totfact>
</mgrwt>
</event>
<event>
 6    1  0.2047711E-005  0.4513116E+04  0.7818608E-02  0.7908345E-01
         -2   -1    0    0    0  501 -0.00000000000E+00  0.00000000000E+00  0.19625894449E+04  0.19625894449E+04  0.00000000000E+00 0.  1.
          2   -1    0    0  501    0  0.00000000000E+00 -0.00000000000E+00 -0.25945589964E+04  0.25945589964E+04  0.00000000000E+00 0. -1.
         23    2    1    2    0    0  0.13961827724E+04 -0.17092949416E+04 -0.78640141400E+03  0.23447143221E+04  0.90788417981E+02 0.  0.
         13    1    3    3    0    0  0.77565477049E+03 -0.88214564466E+03 -0.43436594170E+03  0.12523957173E+04  0.00000000000E+00 0.  1.
        -13    1    3    3    0    0  0.62052800191E+03 -0.82714929698E+03 -0.35203547230E+03  0.10923186048E+04  0.00000000000E+00 0. -1.
         22    1    1    2    0    0 -0.13961827724E+04  0.17092949416E+04  0.15443186255E+03  0.22124341192E+04  0.00000000000E+00 0. -1.
<mgrwt>
<rscale>  0 0.45131160E+04</rscale>
<asrwt>0</asrwt>
<pdfrwt beam="1">  1        2 0.39916292E+00 0.45131160E+04</pdfrwt>
<pdfrwt beam="2">  1       -2 0.30193684E+00 0.45131160E+04</pdfrwt>
<totfact> 0.71763143E-02</totfact>
</mgrwt>
</event>
<event>
 6    1  0.2047711E-005  0.5300033E+03  0.7818608E-02  0.1006231E+00
          2   -1    0    0  501    0  0.00000000000E+00  0.00000000000E+00  0.55872847874E+03  0.55872847874E+03  0.00000000000E+00 0. -1.
         -2   -1    0    0    0  501 -0.00000000000E+00 -0.00000000000E+00 -0.12568874042E+03  0.12568874042E+03  0.00000000000E+00 0.  1.
         23    2    1    2    0    0  0.16711713871E+03 -0.18288506399E+03  0.13350103483E+03  0.29570328890E+03  0.90789999920E+02 0.  0.
         11    1    3    3    0    0  0.13336893310E+03 -0.93174233442E+02  0.11187401717E+03  0.19744494375E+03  0.00000000000E+00 0. -1.
        -11    1    3    3    0    0  0.33748205615E+02 -0.89710830548E+02  0.21627017653E+02  0.98258345154E+02  0.00000000000E+00 0.  1.
         22    1    1    2    0    0 -0.16711713871E+03  0.18288506399E+03  0.29953870350E+03  0.38871393026E+03  0.00000000000E+00 0. -1.
<mgrwt>
<rscale>  0 0.53000332E+03</rscale>
<asrwt>0</asrwt>
<pdfrwt beam="1">  1        2 0.85958226E-01 0.53000332E+03</pdfrwt>
<pdfrwt beam="2">  1       -2 0.19336730E-01 0.53000332E+03</pdfrwt>
<totfact> 0.12250244E+03</totfact>
</mgrwt>
</event>
<event>
 6    1  0.2047711E-005  0.2267173E+04  0.7818608E-02  0.8490978E-01
          2   -1    0    0  501    0  0.00000000000E+00  0.00000000000E+00  0.14763221540E+04  0.14763221540E+04  0.00000000000E+00 0.  1.
         -2   -1    0    0    0  501 -0.00000000000E+00 -0.00000000000E+00 -0.87041838685E+03  0.87041838685E+03  0.00000000000E+00 0. -1.
         23    2    1    2    0    0 -0.39698761354E+03 -0.45689306566E+03  0.12925572359E+04  0.14314026662E+04  0.10889878695E+03 0.  0.
         11    1    3    3    0    0 -0.22253965051E+03 -0.33247309701E+03  0.81027569524E+03  0.90366418462E+03  0.00000000000E+00 0.  1.
        -11    1    3    3    0    0 -0.17444796303E+03 -0.12441996865E+03  0.48228154069E+03  0.52773848154E+03  0.00000000000E+00 0. -1.
         22    1    1    2    0    0  0.39698761354E+03  0.45689306566E+03 -0.68665346875E+03  0.91533787472E+03  0.00000000000E+00 0. -1.
<mgrwt>
<rscale>  0 0.22671726E+04</rscale>
<asrwt>0</asrwt>
<pdfrwt beam="1">  1        2 0.22712648E+00 0.22671726E+04</pdfrwt>
<pdfrwt beam="2">  1       -2 0.13391052E+00 0.22671726E+04</pdfrwt>
<totfact> 0.47941504E+00</totfact>
</mgrwt>
</event>
<event>
 6    1  0.2047711E-005  0.2180253E+04  0.7818608E-02  0.8526693E-01
         -2   -1    0    0    0  501 -0.00000000000E+00  0.00000000000E+00  0.86729900924E+03  0.86729900924E+03  0.00000000000E+00 0.  1.
          2   -1    0    0  501    0  0.00000000000E+00 -0.00000000000E+00 -0.13702025158E+04  0.13702025158E+04  0.00000000000E+00 0. -1.
         23    2    1    2    0    0  0.80860751719E+03  0.37639837233E+03  0.38793599034E+03  0.97689973987E+03  0.91197135978E+02 0.  0.
         13    1    3    3    0    0  0.39180660270E+03  0.15573512976E+03  0.14114700144E+03  0.44462154758E+03  0.00000000000E+00 0. -1.
        -13    1    3    3    0    0  0.41680091449E+03  0.22066324258E+03  0.24678898890E+03  0.53227819229E+03  0.00000000000E+00 0.  1.
         22    1    1    2    0    0 -0.80860751719E+03 -0.37639837233E+03 -0.89083949690E+03  0.12606017852E+04  0.00000000000E+00 0. -1.
<mgrwt>
<rscale>  0 0.21802525E+04</rscale>
<asrwt>0</asrwt>
<pdfrwt beam="1">  1        2 0.21080039E+00 0.21802525E+04</pdfrwt>
<pdfrwt beam="2">  1       -2 0.13343062E+00 0.21802525E+04</pdfrwt>
<totfact> 0.56025344E+00</totfact>
</mgrwt>
</event>
<event>
 6    1  0.2047711E-005  0.3067159E+03  0.7818608E-02  0.1081931E+00
         -2   -1    0    0    0  501 -0.00000000000E+00  0.00000000000E+00  0.15932264280E+02  0.15932264280E+02  0.00000000000E+00 0.  1.
          2   -1    0    0  501    0  0.00000000000E+00 -0.00000000000E+00 -0.14761652303E+04  0.14761652303E+04  0.00000000000E+00 0. -1.
         23    2    1    2    0    0 -0.61323013150E+02  0.10079983781E+03 -0.11589985803E+04  0.11685804558E+04  0.91550277312E+02 0.  0.
         13    1    3    3    0    0  0.20977443058E+02  0.30096905675E+02 -0.18859318633E+03  0.19212825607E+03  0.00000000000E+00 0.  1.
        -13    1    3    3    0    0 -0.82300456208E+02  0.70702932139E+02 -0.97040539400E+03  0.97645219976E+03  0.00000000000E+00 0. -1.
         22    1    1    2    0    0  0.61323013150E+02 -0.10079983781E+03 -0.30123438569E+03  0.32351703876E+03  0.00000000000E+00 0.  1.
<mgrwt>
<rscale>  0 0.30671586E+03</rscale>
<asrwt>0</asrwt>
<pdfrwt beam="1">  1        2 0.22710233E+00 0.30671586E+03</pdfrwt>
<pdfrwt beam="2">  1       -2 0.24511178E-02 0.30671586E+03</pdfrwt>
<totfact> 0.80584361E+03</totfact>
</mgrwt>
</event>
<event>
 6    1  0.2047711E-005  0.1121605E+04  0.7818608E-02  0.9184387E-01
         -2   -1    0    0    0  501 -0.00000000000E+00  0.00000000000E+00  0.17036741250E+03  0.17036741250E+03  0.00000000000E+00 0.  1.
          2   -1    0    0  501    0  0.00000000000E+00 -0.00000000000E+00 -0.18460062684E+04  0.18460062684E+04  0.00000000000E+00 0. -1.
         23    2    1    2    0    0 -0.35946510981E+02 -0.32153561462E+02 -0.18411764312E+04  0.18439535776E+04  0.88927737407E+02 0.  0.
         11    1    3    3    0    0 -0.45816989111E+02  0.50647238809E+01 -0.47425477046E+03  0.47648970107E+03  0.00000000000E+00 0. -1.
        -11    1    3    3    0    0  0.98704781303E+01 -0.37218285343E+02 -0.13669216607E+04  0.13674638766E+04  0.00000000000E+00 0.  1.
         22    1    1    2    0    0  0.35946510981E+02  0.32153561462E+02  0.16553757531E+03  0.17242010326E+03  0.00000000000E+00 0.  1.
<mgrwt>
<rscale>  0 0.11216048E+04</rscale>
<asrwt>0</asrwt>
<pdfrwt beam="1">  1        2 0.28400097E+00 0.11216048E+04</pdfrwt>
<pdfrwt beam="2">  1       -2 0.26210371E-01 0.11216048E+04</pdfrwt>
<totfact> 0.10626524E+02</totfact>
</mgrwt>
</event>
<event>
 6    1  0.2047711E-005  0.2349769E+04  0.7818608E-02  0.8458552E-01
         -2   -1    0    0    0  501 -0.00000000000E+00  0.00000000000E+00  0.61216855958E+03  0.61216855958E+03  0.00000000000E+00 0.  1.
          2   -1    0    0  501    0  0.00000000000E+00 -0.00000000000E+00 -0.22548592530E+04  0.22548592530E+04  0.00000000000E+00 0. -1.
         23    2    1    2    0    0 -0.10510426755E+04 -0.52098124940E+03 -0.81721309934E+03  0.14326201208E+04  0.91929281805E+02 0.  0.
         11    1    3    3    0    0 -0.10258734146E+03 -0.78870168838E+02 -0.73463765699E+02  0.14880050749E+03  0.00000000000E+00 0. -1.
        -11    1    3    3    0    0 -0.94845533404E+03 -0.44211108056E+03 -0.74374933365E+03  0.12838196133E+04  0.00000000000E+00 0.  1.
         22    1    1    2    0    0  0.10510426755E+04  0.52098124940E+03 -0.82547759409E+03  0.14344076918E+04  0.00000000000E+00 0.  1.
<mgrwt>
<rscale>  0 0.23497693E+04</rscale>
<asrwt>0</asrwt>
<pdfrwt beam="1">  1        2 0.34690142E+00 0.23497693E+04</pdfrwt>
<pdfrwt beam="2">  1       -2 0.94179779E-01 0.23497693E+04</pdfrwt>
<totfact> 0.41289252E+00</totfact>
</mgrwt>
</event>
<event>
 6    1  0.2047711E-005  0.4451362E+04  0.7818608E-02  0.7919208E-01
          2   -1    0    0  501    0  0.00000000000E+00  0.00000000000E+00  0.38358374635E+04  0.38358374635E+04  0.00000000000E+00 0. -1.
         -2   -1    0    0    0  501 -0.00000000000E+00 -0.00000000000E+00 -0.12914141607E+04  0.12914141607E+04  0.00000000000E+00 0.  1.
         23    2    1    2    0    0  0.12225793665E+04  0.14036774079E+04  0.26762325254E+04  0.32611368785E+04  0.88219256453E+02 0.  0.
         11    1    3    3    0    0  0.64447958821E+03  0.79673073730E+03  0.15125137547E+04  0.18269733620E+04  0.00000000000E+00 0. -1.
        -11    1    3    3    0    0  0.57809977826E+03  0.60694667061E+03  0.11637187707E+04  0.14341635165E+04  0.00000000000E+00 0.  1.
         22    1    1    2    0    0 -0.12225793665E+04 -0.14036774079E+04 -0.13180922271E+03  0.18661147457E+04  0.00000000000E+00 0.  1.
<mgrwt>
<rscale>  0 0.44513615E+04</rscale>
<asrwt>0</asrwt>
<pdfrwt beam="1">  1        2 0.59012883E+00 0.44513615E+04</pdfrwt>
<pdfrwt beam="2">  1       -2 0.19867910E+00 0.44513615E+04</pdfrwt>
<totfact> 0.47433715E-02</totfact>
</mgrwt>
</event>
<event>
 6    1  0.2047711E-005  0.3035421E+04  0.7818608E-02  0.8233688E-01
         -2   -1    0    0    0  501 -0.00000000000E+00  0.00000000000E+00  0.18321251103E+04  0.18321251103E+04  0.00000000000E+00 0.  1.
          2   -1    0    0  501    0  0.00000000000E+00 -0.00000000000E+00 -0.12572533416E+04  0.12572533416E+04  0.00000000000E+00 0. -1.
         23    2    1    2    0    0  0.20942159917E+03 -0.14519783837E+04 -0.10288653441E+03  0.14733787766E+04  0.90336854624E+02 0.  0.
         11    1    3    3    0    0  0.10439951943E+03 -0.58144227275E+03 -0.80906121646E+02  0.59625512721E+03  0.00000000000E+00 0.  1.
        -11    1    3    3    0    0  0.10502207974E+03 -0.87053611100E+03 -0.21980412767E+02  0.87712364939E+03  0.00000000000E+00 0. -1.
         22    1    1    2    0    0 -0.20942159917E+03  0.14519783837E+04  0.67775830308E+03  0.16159996753E+04  0.00000000000E+00 0. -1.
<mgrwt>
<rscale>  0 0.30354212E+04</rscale>
<asrwt>0</asrwt>
<pdfrwt beam="1">  1        2 0.19342359E+00 0.30354212E+04</pdfrwt>
<pdfrwt beam="2">  1       -2 0.28186540E+00 0.30354212E+04</pdfrwt>
<totfact> 0.61323159E-01</totfact>
</mgrwt>
</event>
<event>
 6    1  0.2047711E-005  0.3073190E+03  0.7818608E-02  0.1081638E+00
         -2   -1    0    0    0  501 -0.00000000000E+00  0.00000000000E+00  0.82977011499E+02  0.82977011499E+02  0.00000000000E+00 0.  1.
          2   -1    0    0  501    0  0.00000000000E+00 -0.00000000000E+00 -0.28455163549E+03  0.28455163549E+03  0.00000000000E+00 0. -1.
         23    2    1    2    0    0  0.90909112857E+02 -0.27333913387E+02 -0.23294148421E+03  0.26755120183E+03  0.91160851854E+02 0.  0.
         13    1    3    3    0    0  0.20466589570E+02 -0.52587366196E+02 -0.10989122253E+03  0.12353296386E+03  0.00000000000E+00 0. -1.
        -13    1    3    3    0    0  0.70442523288E+02  0.25253452809E+02 -0.12305026169E+03  0.14401823797E+03  0.00000000000E+00 0.  1.
         22    1    1    2    0    0 -0.90909112857E+02  0.27333913387E+02  0.31366860219E+02  0.99977445164E+02  0.00000000000E+00 0.  1.
<mgrwt>
<rscale>  0 0.30731902E+03</rscale>
<asrwt>0</asrwt>
<pdfrwt beam="1">  1        2 0.43777174E-01 0.30731902E+03</pdfrwt>
<pdfrwt beam="2">  1       -2 0.12765694E-01 0.30731902E+03</pdfrwt>
<totfact> 0.51673516E+03</totfact>
</mgrwt>
</event>
<event>
 6    1  0.2047711E-005  0.1669257E+04  0.7818608E-02  0.8779095E-01
          2   -1    0    0  501    0  0.00000000000E+00  0.00000000000E+00  0.84559638638E+03  0.84559638638E+03  0.00000000000E+00 0. -1.
         -2   -1    0    0    0  501 -0.00000000000E+00 -0.00000000000E+00 -0.82380242715E+03  0.82380242715E+03  0.00000000000E+00 0.  1.
         23    2    1    2    0    0  0.19518210458E+03 -0.81235676380E+02 -0.79322267709E+03  0.82740866718E+03  0.10347752414E+03 0.  0.
         13    1    3    3    0    0  0.12326997285E+03 -0.10233709878E+03 -0.52346735684E+03  0.54743624439E+03  0.00000000000E+00 0.  1.
        -13    1    3    3    0    0  0.71912131726E+02  0.21101422405E+02 -0.26975532025E+03  0.27997242278E+03  0.00000000000E+00 0. -1.
         22    1    1    2    0    0 -0.19518210458E+03  0.81235676380E+02  0.81501663632E+03  0.84199014635E+03  0.00000000000E+00 0. -1.
<mgrwt>
<rscale>  0 0.16692565E+04</rscale>
<asrwt>0</asrwt>
<pdfrwt beam="1">  1        2 0.13009175E+00 0.16692565E+04</pdfrwt>
<pdfrwt beam="2">  1       -2 0.12673883E+00 0.16692565E+04</pdfrwt>
<totfact> 0.14118031E+01</totfact>
</mgrwt>
</event>
<event>
 6    1  0.2047711E-005  0.1190001E+04  0.7818608E-02  0.9121654E-01
          2   -1    0    0  501    0  0.00000000000E+00  0.00000000000E+00  0.89656756361E+03  0.89656756361E+03  0.00000000000E+00 0. -1.
         -2   -1    0    0    0  501 -0.00000000000E+00 -0.00000000000E+00 -0.39486782941E+03  0.39486782941E+03  0.00000000000E+00 0.  1.
         23    2    1    2    0    0 -0.14759878303E+03  0.82964726000E+02 -0.36277912495E+03  0.41053117323E+03  0.90876862755E+02 0.  0.
         13    1    3    3    0    0 -0.12673582725E+03  0.38768070914E+02 -0.19497383450E+03  0.23575353522E+03  0.00000000000E+00 0. -1.
        -13    1    3    3    0    0 -0.20862955777E+02  0.44196655086E+02 -0.16780529045E+03  0.17477763801E+03  0.00000000000E+00 0.  1.
         22    1    1    2    0    0  0.14759878303E+03 -0.82964726000E+02  0.86447885915E+03  0.88090421978E+03  0.00000000000E+00 0. -1.
<mgrwt>
<rscale>  0 0.11900012E+04</rscale>
<asrwt>0</asrwt>
<pdfrwt beam="1">  1        2 0.13793347E+00 0.11900012E+04</pdfrwt>
<pdfrwt beam="2">  1       -2 0.60748897E-01 0.11900012E+04</pdfrwt>
<totfact> 0.73446451E+01</totfact>
</mgrwt>
</event>
<event>
 6    1  0.2047711E-005  0.5213581E+04  0.7818608E-02  0.7796379E-01
         -2   -1    0    0    0  501 -0.00000000000E+00  0.00000000000E+00  0.27867072924E+04  0.27867072924E+04  0.00000000000E+00 0.  1.
          2   -1    0    0  501    0  0.00000000000E+00 -0.00000000000E+00 -0.24384894627E+04  0.24384894627E+04  0.00000000000E+00 0. -1.
         23    2    1    2    0    0 -0.16292272604E+04  0.19414429081E+04 -0.43349897810E+03  0.25729028047E+04  0.91243888581E+02 0.  0.
         13    1    3    3    0    0 -0.11178977670E+04  0.12756204802E+04 -0.31317877047E+03  0.17248141840E+04  0.00000000000E+00 0.  1.
        -13    1    3    3    0    0 -0.51132949339E+03  0.66582242787E+03 -0.12032020763E+03  0.84808862074E+03  0.00000000000E+00 0. -1.
         22    1    1    2    0    0  0.16292272604E+04 -0.19414429081E+04  0.78171680778E+03  0.26522939503E+04  0.00000000000E+00 0.  1.
<mgrwt>
<rscale>  0 0.52135809E+04</rscale>
<asrwt>0</asrwt>
<pdfrwt beam="1">  1        2 0.37515222E+00 0.52135809E+04</pdfrwt>
<pdfrwt beam="2">  1       -2 0.42872420E+00 0.52135809E+04</pdfrwt>
<totfact> 0.13009843E-02</totfact>
</mgrwt>
</event>
<event>
 6    1  0.2047711E-005  0.3909297E+04  0.7818608E-02  0.8023098E-01
         -2   -1    0    0    0  501 -0.00000000000E+00  0.00000000000E+00  0.24235252693E+04  0.24235252693E+04  0.00000000000E+00 0.  1.
          2   -1    0    0  501    0  0.00000000000E+00 -0.00000000000E+00 -0.15764847305E+04  0.15764847305E+04  0.00000000000E+00 0. -1.
         23    2    1    2    0    0  0.78104193141E+03  0.51143994918E+03 -0.13321656786E+04  0.16292428121E+04  0.90384872790E+02 0.  0.
         11    1    3    3    0    0  0.35084993322E+03  0.17877139864E+03 -0.58230531576E+03  0.70294691790E+03  0.00000000000E+00 0. -1.
        -11    1    3    3    0    0  0.43019199819E+03  0.33266855055E+03 -0.74986036283E+03  0.92629589418E+03  0.00000000000E+00 0.  1.
         22    1    1    2    0    0 -0.78104193141E+03 -0.51143994918E+03  0.21792062174E+04  0.23707671877E+04  0.00000000000E+00 0.  1.
<mgrwt>
<rscale>  0 0.39092969E+04</rscale>
<asrwt>0</asrwt>
<pdfrwt beam="1">  1        2 0.24253611E+00 0.39092969E+04</pdfrwt>
<pdfrwt beam="2">  1       -2 0.37285004E+00 0.39092969E+04</pdfrwt>
<totfact> 0.10164227E-01</totfact>
</mgrwt>
</event>
<event>
 6    1  0.2047711E-005  0.4509643E+04  0.7818608E-02  0.7908951E-01
          2   -1    0    0  501    0  0.00000000000E+00  0.00000000000E+00  0.32221032550E+04  0.32221032550E+04  0.00000000000E+00 0. -1.
         -2   -1    0    0    0  501 -0.00000000000E+00 -0.00000000000E+00 -0.15779195903E+04  0.15779195903E+04  0.00000000000E+00 0.  1.
         23    2    1    2    0    0  0.26517446100E+03 -0.11920037743E+04  0.28388014197E+04  0.30917189866E+04  0.93500260709E+02 0.  0.
         13    1    3    3    0    0  0.53853163434E+02 -0.42895865418E+03  0.10502330487E+04  0.11357355092E+04  0.00000000000E+00 0.  1.
        -13    1    3    3    0    0  0.21132129757E+03 -0.76304512015E+03  0.17885683710E+04  0.19559834774E+04  0.00000000000E+00 0. -1.
         22    1    1    2    0    0 -0.26517446100E+03  0.11920037743E+04 -0.11946177551E+04  0.17083038587E+04  0.00000000000E+00 0.  1.
<mgrwt>
<rscale>  0 0.45096429E+04</rscale>
<asrwt>0</asrwt>
<pdfrwt beam="1">  1        2 0.49570819E+00 0.45096429E+04</pdfrwt>
<pdfrwt beam="2">  1       -2 0.24275686E+00 0.45096429E+04</pdfrwt>
<totfact> 0.67564545E-02</totfact>
</mgrwt>
</event>
<event>
 6    1  0.2047711E-005  0.2415172E+04  0.7818608E-02  0.8433845E-01
         -2   -1    0    0    0  501 -0.00000000000E+00  0.00000000000E+00  0.67728890431E+03  0.67728890431E+03  0.00000000000E+00 0.  1.
          2   -1    0    0  501    0  0.00000000000E+00 -0.00000000000E+00 -0.21530898297E+04  0.21530898297E+04  0.00000000000E+00 0. -1.
         23    2    1    2    0    0  0.83731736211E+03  0.33066037681E+03 -0.16791476214E+04  0.19074559157E+04  0.91731598047E+02 0.  0.
         11    1    3    3    0    0  0.66293110144E+03  0.25355411117E+03 -0.13963315664E+04  0.15663681483E+04  0.00000000000E+00 0. -1.
        -11    1    3    3    0    0  0.17438626067E+03  0.77106265643E+02 -0.28281605501E+03  0.34108776742E+03  0.00000000000E+00 0.  1.
         22    1    1    2    0    0 -0.83731736211E+03 -0.33066037681E+03  0.20334669609E+03  0.92292281828E+03  0.00000000000E+00 0.  1.
<mgrwt>
<rscale>  0 0.24151719E+04</rscale>
<asrwt>0</asrwt>
<pdfrwt beam="1">  1        2 0.33124459E+00 0.24151719E+04</pdfrwt>
<pdfrwt beam="2">  1       -2 0.10419829E+00 0.24151719E+04</pdfrwt>
<totfact> 0.36893265E+00</totfact>
</mgrwt>
</event>
<event>
 6    1  0.2047711E-005  0.3372967E+04  0.7818608E-02  0.8144573E-01
         -1   -1    0    0    0  501 -0.00000000000E+00  0.00000000000E+00  0.14168000670E+04  0.14168000670E+04  0.00000000000E+00 0.  1.
          1   -1    0    0  501    0  0.00000000000E+00 -0.00000000000E+00 -0.20075003983E+04  0.20075003983E+04  0.00000000000E+00 0. -1.
         23    2    1    2    0    0 -0.20239134211E+03 -0.21727036477E+03 -0.19797179862E+04  0.20038995669E+04  0.90341034894E+02 0.  0.
         11    1    3    3    0    0 -0.13866684419E+03 -0.83249043489E+02 -0.99349845382E+03  0.10065774062E+04  0.00000000000E+00 0.  1.
        -11    1    3    3    0    0 -0.63724497916E+02 -0.13402132128E+03 -0.98621953237E+03  0.99732216070E+03  0.00000000000E+00 0. -1.
         22    1    1    2    0    0  0.20239134211E+03  0.21727036477E+03  0.13890176549E+04  0.14204008984E+04  0.00000000000E+00 0.  1.
<mgrwt>
<rscale>  0 0.33729671E+04</rscale>
<asrwt>0</asrwt>
<pdfrwt beam="1">  1        1 0.30884622E+00 0.33729671E+04</pdfrwt>
<pdfrwt beam="2">  1       -1 0.21796924E+00 0.33729671E+04</pdfrwt>
<totfact> 0.27580579E-01</totfact>
</mgrwt>
</event>
<event>
 6    1  0.2047711E-005  0.3025254E+04  0.7818608E-02  0.8236556E-01
          2   -1    0    0  501    0  0.00000000000E+00  0.00000000000E+00  0.88501829338E+03  0.88501829338E+03  0.00000000000E+00 0.  1.
         -2   -1    0    0    0  501 -0.00000000000E+00 -0.00000000000E+00 -0.25853028411E+04  0.25853028411E+04  0.00000000000E+00 0. -1.
         23    2    1    2    0    0  0.14096991156E+04 -0.22652939995E+03 -0.28269585863E+03  0.14583258917E+04  0.90720959850E+02 0.  0.
         11    1    3    3    0    0  0.84629582768E+03 -0.11080119652E+03 -0.20641411461E+03  0.87812318032E+03  0.00000000000E+00 0. -1.
        -11    1    3    3    0    0  0.56340328788E+03 -0.11572820343E+03 -0.76281744019E+02  0.58020271141E+03  0.00000000000E+00 0.  1.
         22    1    1    2    0    0 -0.14096991156E+04  0.22652939995E+03 -0.14175886891E+04  0.20119952428E+04  0.00000000000E+00 0. -1.
<mgrwt>
<rscale>  0 0.30252539E+04</rscale>
<asrwt>0</asrwt>
<pdfrwt beam="1">  1        2 0.13615666E+00 0.30252539E+04</pdfrwt>
<pdfrwt beam="2">  1       -2 0.39773890E+00 0.30252539E+04</pdfrwt>
<totfact> 0.19678219E-01</totfact>
</mgrwt>
</event>
<event>
 6    1  0.2047711E-005  0.4503204E+04  0.7818608E-02  0.7910076E-01
         -2   -1    0    0    0  501 -0.00000000000E+00  0.00000000000E+00  0.19507050146E+04  0.19507050146E+04  0.00000000000E+00 0.  1.
          2   -1    0    0  501    0  0.00000000000E+00 -0.00000000000E+00 -0.25989130105E+04  0.25989130105E+04  0.00000000000E+00 0. -1.
         23    2    1    2    0    0  0.18555875823E+04  0.36207627920E+03  0.90951564635E+03  0.20999634672E+04  0.91232368279E+02 0.  0.
         13    1    3    3    0    0  0.33812647052E+03  0.45359999320E+02  0.13270579788E+03  0.36605719280E+03  0.00000000000E+00 0.  1.
        -13    1    3    3    0    0  0.15174611118E+04  0.31671627988E+03  0.77680984847E+03  0.17339062744E+04  0.00000000000E+00 0. -1.
         22    1    1    2    0    0 -0.18555875823E+04 -0.36207627920E+03 -0.15577236422E+04  0.24496545579E+04  0.00000000000E+00 0. -1.
<mgrwt>
<rscale>  0 0.45032045E+04</rscale>
<asrwt>0</asrwt>
<pdfrwt beam="1">  1        2 0.39983277E+00 0.45032045E+04</pdfrwt>
<pdfrwt beam="2">  1       -2 0.30010847E+00 0.45032045E+04</pdfrwt>
<totfact> 0.73263483E-02</totfact>
</mgrwt>
</event>
<event>
 6    1  0.2047711E-005  0.4598161E+04  0.7818608E-02  0.7893674E-01
         -2   -1    0    0    0  501 -0.00000000000E+00  0.00000000000E+00  0.15401837535E+04  0.15401837535E+04  0.00000000000E+00 0.  1.
          2   -1    0    0  501    0  0.00000000000E+00 -0.00000000000E+00 -0.34319088506E+04  0.34319088506E+04  0.00000000000E+00 0. -1.
         23    2    1    2    0    0  0.14358821889E+04 -0.10986731647E+04 -0.24803112391E+04  0.30707052080E+04  0.91903472371E+02 0.  0.
         13    1    3    3    0    0  0.13716634443E+04 -0.10334797931E+04 -0.23266290221E+04  0.28918408832E+04  0.00000000000E+00 0. -1.
        -13    1    3    3    0    0  0.64218744599E+02 -0.65193371664E+02 -0.15368221707E+03  0.17886432487E+03  0.00000000000E+00 0.  1.
         22    1    1    2    0    0 -0.14358821889E+04  0.10986731647E+04  0.58858614207E+03  0.19013873961E+04  0.00000000000E+00 0.  1.
<mgrwt>
<rscale>  0 0.45981606E+04</rscale>
<asrwt>0</asrwt>
<pdfrwt beam="1">  1        2 0.52798598E+00 0.45981606E+04</pdfrwt>
<pdfrwt beam="2">  1       -2 0.23695135E+00 0.45981606E+04</pdfrwt>
<totfact> 0.52638566E-02</totfact>
</mgrwt>
</event>
<event>
 6    1  0.2047711E-005  0.1449768E+04  0.7818608E-02  0.8918561E-01
         -2   -1    0    0    0  501 -0.00000000000E+00  0.00000000000E+00  0.31276254989E+03  0.31276254989E+03  0.00000000000E+00 0.  1.
          2   -1    0    0  501    0  0.00000000000E+00 -0.00000000000E+00 -0.16800513891E+04  0.16800513891E+04  0.00000000000E+00 0. -1.
         23    2    1    2    0    0  0.54314328979E+03 -0.11366966390E+03 -0.13218370557E+04  0.14360453243E+04  0.83949662314E+02 0.  0.
         11    1    3    3    0    0  0.49489046792E+03 -0.98253680891E+02 -0.11280238177E+04  0.12357216897E+04  0.00000000000E+00 0. -1.
        -11    1    3    3    0    0  0.48252821866E+02 -0.15415983009E+02 -0.19381323804E+03  0.20032363463E+03  0.00000000000E+00 0.  1.
         22    1    1    2    0    0 -0.54314328979E+03  0.11366966390E+03 -0.45451783530E+02  0.55676861474E+03  0.00000000000E+00 0.  1.
<mgrwt>
<rscale>  0 0.14497685E+04</rscale>
<asrwt>0</asrwt>
<pdfrwt beam="1">  1        2 0.25846944E+00 0.14497685E+04</pdfrwt>
<pdfrwt beam="2">  1       -2 0.48117316E-01 0.14497685E+04</pdfrwt>
<totfact> 0.39918472E+01</totfact>
</mgrwt>
</event>
<event>
 6    1  0.5404520E-005  0.3244691E+04  0.7818608E-02  0.8177113E-01
         -2   -1    0    0    0  501 -0.00000000000E+00  0.00000000000E+00  0.11538999313E+04  0.11538999313E+04  0.00000000000E+00 0.  1.
          2   -1    0    0  501    0  0.00000000000E+00 -0.00000000000E+00 -0.22809648182E+04  0.22809648182E+04  0.00000000000E+00 0. -1.
         23    2    1    2    0    0 -0.26286420283E+03  0.58976894648E+01 -0.22573941025E+04  0.22743577449E+04  0.87992306713E+02 0.  0.
         11    1    3    3    0    0 -0.87292323443E+02 -0.28239297255E+02 -0.54743240617E+03  0.55506724544E+03  0.00000000000E+00 0.  1.
        -11    1    3    3    0    0 -0.17557187939E+03  0.34136986720E+02 -0.17099616963E+04  0.17192904995E+04  0.00000000000E+00 0. -1.
         22    1    1    2    0    0  0.26286420283E+03 -0.58976894648E+01  0.11303292156E+04  0.11605070045E+04  0.00000000000E+00 0.  1.
<mgrwt>
<rscale>  0 0.32446911E+04</rscale>
<asrwt>0</asrwt>
<pdfrwt beam="1">  1        2 0.35091766E+00 0.32446911E+04</pdfrwt>
<pdfrwt beam="2">  1       -2 0.17752307E+00 0.32446911E+04</pdfrwt>
<totfact> 0.73558854E-01</totfact>
</mgrwt>
</event>
<event>
 6    1  0.2047711E-005  0.2926770E+04  0.7818608E-02  0.8264957E-01
         -2   -1    0    0    0  501 -0.00000000000E+00  0.00000000000E+00  0.19511026788E+04  0.19511026788E+04  0.00000000000E+00 0.  1.
          2   -1    0    0  501    0  0.00000000000E+00 -0.00000000000E+00 -0.10975823396E+04  0.10975823396E+04  0.00000000000E+00 0. -1.
         23    2    1    2    0    0 -0.60975275358E+00 -0.40427775436E+03 -0.10363050073E+04  0.11161010708E+04  0.91173777859E+02 0.  0.
         13    1    3    3    0    0  0.10181941816E+02 -0.33610751127E+03 -0.93403690077E+03  0.99272194650E+03  0.00000000000E+00 0.  1.
        -13    1    3    3    0    0 -0.10791694570E+02 -0.68170243091E+02 -0.10226810650E+03  0.12337912433E+03  0.00000000000E+00 0. -1.
         22    1    1    2    0    0  0.60975275358E+00  0.40427775436E+03  0.18898253465E+04  0.19325839476E+04  0.00000000000E+00 0.  1.
<mgrwt>
<rscale>  0 0.29267701E+04</rscale>
<asrwt>0</asrwt>
<pdfrwt beam="1">  1        2 0.16885882E+00 0.29267701E+04</pdfrwt>
<pdfrwt beam="2">  1       -2 0.30016964E+00 0.29267701E+04</pdfrwt>
<totfact> 0.59690841E-01</totfact>
</mgrwt>
</event>
<event>
 6    1  0.2047711E-005  0.2384519E+04  0.7818608E-02  0.8445322E-01
          2   -1    0    0  501    0  0.00000000000E+00  0.00000000000E+00  0.15233156812E+04  0.15233156812E+04  0.00000000000E+00 0. -1.
         -2   -1    0    0    0  501 -0.00000000000E+00 -0.00000000000E+00 -0.93315044283E+03  0.93315044283E+03  0.00000000000E+00 0.  1.
         23    2    1    2    0    0 -0.70999506881E+03 -0.89259827847E+03 -0.55839738578E+02  0.11456850154E+04  0.93012867984E+02 0.  0.
         13    1    3    3    0    0 -0.60936179987E+03 -0.79656373346E+03 -0.25109233338E+02  0.10032278197E+04  0.00000000000E+00 0. -1.
        -13    1    3    3    0    0 -0.10063326894E+03 -0.96034545019E+02 -0.30730505240E+02  0.14245719570E+03  0.00000000000E+00 0.  1.
         22    1    1    2    0    0  0.70999506881E+03  0.89259827847E+03  0.64600497692E+03  0.13107811086E+04  0.00000000000E+00 0.  1.
<mgrwt>
<rscale>  0 0.23845190E+04</rscale>
<asrwt>0</asrwt>
<pdfrwt beam="1">  1        2 0.23435626E+00 0.23845190E+04</pdfrwt>
<pdfrwt beam="2">  1       -2 0.14356161E+00 0.23845190E+04</pdfrwt>
<totfact> 0.37302129E+00</totfact>
</mgrwt>
</event>
<event>
 6    1  0.2047711E-005  0.1673308E+04  0.7818608E-02  0.8776736E-01
          2   -1    0    0  501    0  0.00000000000E+00  0.00000000000E+00  0.10305339540E+04  0.10305339540E+04  0.00000000000E+00 0. -1.
         -2   -1    0    0    0  501 -0.00000000000E+00 -0.00000000000E+00 -0.67924952826E+03  0.67924952826E+03  0.00000000000E+00 0.  1.
         23    2    1    2    0    0 -0.73115198276E+03  0.33042381364E+03 -0.56617163918E+02  0.80970191633E+03  0.92997696467E+02 0.  0.
         13    1    3    3    0    0 -0.32923043850E+03  0.18888477294E+03  0.20197941695E+01  0.37957109828E+03  0.00000000000E+00 0.  1.
        -13    1    3    3    0    0 -0.40192154426E+03  0.14153904070E+03 -0.58636958088E+02  0.43013081805E+03  0.00000000000E+00 0. -1.
         22    1    1    2    0    0  0.73115198276E+03 -0.33042381364E+03  0.40790158970E+03  0.90008156597E+03  0.00000000000E+00 0. -1.
<mgrwt>
<rscale>  0 0.16733077E+04</rscale>
<asrwt>0</asrwt>
<pdfrwt beam="1">  1        2 0.15854368E+00 0.16733077E+04</pdfrwt>
<pdfrwt beam="2">  1       -2 0.10449993E+00 0.16733077E+04</pdfrwt>
<totfact> 0.17076806E+01</totfact>
</mgrwt>
</event>
<event>
 6    1  0.2047711E-005  0.1430335E+04  0.7818608E-02  0.8932149E-01
         -2   -1    0    0    0  501 -0.00000000000E+00  0.00000000000E+00  0.70667613365E+03  0.70667613365E+03  0.00000000000E+00 0.  1.
          2   -1    0    0  501    0  0.00000000000E+00 -0.00000000000E+00 -0.72376053666E+03  0.72376053666E+03  0.00000000000E+00 0. -1.
         23    2    1    2    0    0  0.17821270551E+03  0.84879490515E+02  0.67582705507E+03  0.70995725696E+03  0.91284182846E+02 0.  0.
         11    1    3    3    0    0  0.12421268972E+03  0.53021885728E+02  0.30083804543E+03  0.32976300920E+03  0.00000000000E+00 0. -1.
        -11    1    3    3    0    0  0.54000015785E+02  0.31857604786E+02  0.37498900964E+03  0.38019424777E+03  0.00000000000E+00 0.  1.
         22    1    1    2    0    0 -0.17821270551E+03 -0.84879490515E+02 -0.69291145808E+03  0.72047941334E+03  0.00000000000E+00 0. -1.
<mgrwt>
<rscale>  0 0.14303346E+04</rscale>
<asrwt>0</asrwt>
<pdfrwt beam="1">  1        2 0.11134777E+00 0.14303346E+04</pdfrwt>
<pdfrwt beam="2">  1       -2 0.10871941E+00 0.14303346E+04</pdfrwt>
<totfact> 0.25776888E+01</totfact>
</mgrwt>
</event>
<event>
 6    1  0.2047711E-005  0.3105369E+04  0.7818608E-02  0.8214266E-01
          2   -1    0    0  501    0  0.00000000000E+00  0.00000000000E+00  0.25978544521E+04  0.25978544521E+04  0.00000000000E+00 0. -1.
         -2   -1    0    0    0  501 -0.00000000000E+00 -0.00000000000E+00 -0.92800756735E+03  0.92800756735E+03  0.00000000000E+00 0.  1.
         23    2    1    2    0    0  0.21014083288E+03  0.74280892178E+03  0.23635064488E+04  0.24880335873E+04  0.90687011252E+02 0.  0.
         13    1    3    3    0    0  0.81743280398E+02  0.32851244724E+03  0.89806939903E+03  0.95975571754E+03  0.00000000000E+00 0.  1.
        -13    1    3    3    0    0  0.12839755248E+03  0.41429647454E+03  0.14654370498E+04  0.15282778697E+04  0.00000000000E+00 0. -1.
         22    1    1    2    0    0 -0.21014083288E+03 -0.74280892178E+03 -0.69365956402E+03  0.10378284322E+04  0.00000000000E+00 0.  1.
<mgrwt>
<rscale>  0 0.31053686E+04</rscale>
<asrwt>0</asrwt>
<pdfrwt beam="1">  1        2 0.39966991E+00 0.31053686E+04</pdfrwt>
<pdfrwt beam="2">  1       -2 0.14277040E+00 0.31053686E+04</pdfrwt>
<totfact> 0.88366323E-01</totfact>
</mgrwt>
</event>
<event>
 6    1  0.2047711E-005  0.4915627E+04  0.7818608E-02  0.7841656E-01
         -2   -1    0    0    0  501 -0.00000000000E+00  0.00000000000E+00  0.24331543647E+04  0.24331543647E+04  0.00000000000E+00 0.  1.
          2   -1    0    0  501    0  0.00000000000E+00 -0.00000000000E+00 -0.24827224122E+04  0.24827224122E+04  0.00000000000E+00 0. -1.
         23    2    1    2    0    0  0.17239870627E+04 -0.44101637760E+03 -0.17190690639E+04  0.24758234002E+04  0.88748098368E+02 0.  0.
         13    1    3    3    0    0  0.51440917492E+03 -0.13351784040E+03 -0.45786718925E+03  0.70148854298E+03  0.00000000000E+00 0.  1.
        -13    1    3    3    0    0  0.12095778877E+04 -0.30749853720E+03 -0.12612018747E+04  0.17743348572E+04  0.00000000000E+00 0. -1.
         22    1    1    2    0    0 -0.17239870627E+04  0.44101637760E+03  0.16695010164E+04  0.24400533768E+04  0.00000000000E+00 0.  1.
<mgrwt>
<rscale>  0 0.49156269E+04</rscale>
<asrwt>0</asrwt>
<pdfrwt beam="1">  1        2 0.38195729E+00 0.49156269E+04</pdfrwt>
<pdfrwt beam="2">  1       -2 0.37433144E+00 0.49156269E+04</pdfrwt>
<totfact> 0.28440232E-02</totfact>
</mgrwt>
</event>
<event>
 6    1  0.2047711E-005  0.3388212E+04  0.7818608E-02  0.8140805E-01
          2   -1    0    0  501    0  0.00000000000E+00  0.00000000000E+00  0.99328144905E+03  0.99328144905E+03  0.00000000000E+00 0. -1.
         -2   -1    0    0    0  501 -0.00000000000E+00 -0.00000000000E+00 -0.28894083060E+04  0.28894083060E+04  0.00000000000E+00 0.  1.
         23    2    1    2    0    0 -0.79851937932E+03 -0.92777225889E+03 -0.22887827944E+04  0.25971652517E+04  0.91356997535E+02 0.  0.
         11    1    3    3    0    0 -0.23528646995E+03 -0.29403517488E+03 -0.79067911605E+03  0.87577957932E+03  0.00000000000E+00 0.  1.
        -11    1    3    3    0    0 -0.56323290937E+03 -0.63373708401E+03 -0.14981036784E+04  0.17213856724E+04  0.00000000000E+00 0. -1.
         22    1    1    2    0    0  0.79851937932E+03  0.92777225889E+03  0.39265593749E+03  0.12855245034E+04  0.00000000000E+00 0. -1.
<mgrwt>
<rscale>  0 0.33882123E+04</rscale>
<asrwt>0</asrwt>
<pdfrwt beam="1">  1        2 0.15281253E+00 0.33882123E+04</pdfrwt>
<pdfrwt beam="2">  1       -2 0.44452435E+00 0.33882123E+04</pdfrwt>
<totfact> 0.79494751E-02</totfact>
</mgrwt>
</event>
<event>
 6    1  0.2047711E-005  0.1894546E+04  0.7818608E-02  0.8657576E-01
         -1   -1    0    0    0  501 -0.00000000000E+00  0.00000000000E+00  0.76365300305E+03  0.76365300305E+03  0.00000000000E+00 0.  1.
          1   -1    0    0  501    0  0.00000000000E+00 -0.00000000000E+00 -0.11750442987E+04  0.11750442987E+04  0.00000000000E+00 0. -1.
         23    2    1    2    0    0 -0.35935229628E+03  0.31148431242E+03 -0.10419066738E+04  0.11489465868E+04  0.91390332380E+02 0.  0.
         13    1    3    3    0    0 -0.11977505226E+03  0.16279970358E+03 -0.45063717706E+03  0.49388629458E+03  0.00000000000E+00 0. -1.
        -13    1    3    3    0    0 -0.23957724402E+03  0.14868460884E+03 -0.59126949669E+03  0.65506029224E+03  0.00000000000E+00 0.  1.
         22    1    1    2    0    0  0.35935229628E+03 -0.31148431242E+03  0.63051537809E+03  0.78975071493E+03  0.00000000000E+00 0.  1.
<mgrwt>
<rscale>  0 0.18945460E+04</rscale>
<asrwt>0</asrwt>
<pdfrwt beam="1">  1        1 0.18077605E+00 0.18945460E+04</pdfrwt>
<pdfrwt beam="2">  1       -1 0.11748508E+00 0.18945460E+04</pdfrwt>
<totfact> 0.68025589E+00</totfact>
</mgrwt>
</event>
<event>
 6    1  0.2047711E-005  0.1721458E+04  0.7818608E-02  0.8749220E-01
         -2   -1    0    0    0  501 -0.00000000000E+00  0.00000000000E+00  0.50341867709E+03  0.50341867709E+03  0.00000000000E+00 0.  1.
          2   -1    0    0  501    0  0.00000000000E+00 -0.00000000000E+00 -0.14716464932E+04  0.14716464932E+04  0.00000000000E+00 0. -1.
         23    2    1    2    0    0 -0.25966033607E+03  0.74681290062E+03 -0.10227258013E+03  0.80244781182E+03  0.91158166951E+02 0.  0.
         11    1    3    3    0    0 -0.96462629560E+02  0.40487210194E+03 -0.35456894809E+02  0.41771240013E+03  0.00000000000E+00 0.  1.
        -11    1    3    3    0    0 -0.16319770651E+03  0.34194079867E+03 -0.66815685319E+02  0.38473541169E+03  0.00000000000E+00 0. -1.
         22    1    1    2    0    0  0.25966033607E+03 -0.74681290062E+03 -0.86595523596E+03  0.11726173585E+04  0.00000000000E+00 0.  1.
<mgrwt>
<rscale>  0 0.17214579E+04</rscale>
<asrwt>0</asrwt>
<pdfrwt beam="1">  1        2 0.22640715E+00 0.17214579E+04</pdfrwt>
<pdfrwt beam="2">  1       -2 0.77449030E-01 0.17214579E+04</pdfrwt>
<totfact> 0.18600033E+01</totfact>
</mgrwt>
</event>
<event>
 6    1  0.2047711E-005  0.1398288E+04  0.7818608E-02  0.8955059E-01
          1   -1    0    0  501    0  0.00000000000E+00  0.00000000000E+00  0.29069212835E+04  0.29069212835E+04  0.00000000000E+00 0. -1.
         -1   -1    0    0    0  501 -0.00000000000E+00 -0.00000000000E+00 -0.16815123417E+03  0.16815123417E+03  0.00000000000E+00 0.  1.
         23    2    1    2    0    0  0.39749003372E+03 -0.34879547167E+03  0.38002880614E+03  0.65777715709E+03  0.92694589523E+02 0.  0.
         11    1    3    3    0    0  0.32307007130E+03 -0.31622194714E+03  0.29297419218E+03  0.53870629113E+03  0.00000000000E+00 0. -1.
        -11    1    3    3    0    0  0.74419962422E+02 -0.32573524524E+02  0.87054613968E+02  0.11907086596E+03  0.00000000000E+00 0.  1.
         22    1    1    2    0    0 -0.39749003372E+03  0.34879547167E+03  0.23587412432E+04  0.24172953606E+04  0.00000000000E+00 0. -1.
<mgrwt>
<rscale>  0 0.13982881E+04</rscale>
<asrwt>0</asrwt>
<pdfrwt beam="1">  1        1 0.44721862E+00 0.13982881E+04</pdfrwt>
<pdfrwt beam="2">  1       -1 0.25869423E-01 0.13982881E+04</pdfrwt>
<totfact> 0.90578211E+00</totfact>
</mgrwt>
</event>
<event>
 6    1  0.2047711E-005  0.2030404E+04  0.7818608E-02  0.8592536E-01
         -2   -1    0    0    0  501 -0.00000000000E+00  0.00000000000E+00  0.70262241914E+03  0.70262241914E+03  0.00000000000E+00 0.  1.
          2   -1    0    0  501    0  0.00000000000E+00 -0.00000000000E+00 -0.14668410242E+04  0.14668410242E+04  0.00000000000E+00 0. -1.
         23    2    1    2    0    0  0.49757025837E+03  0.62194702637E+03  0.28618784710E+03  0.85122674973E+03  0.91045208636E+02 0.  0.
         13    1    3    3    0    0  0.48544719023E+03  0.57564825357E+03  0.25977967945E+03  0.79656472944E+03  0.00000000000E+00 0. -1.
        -13    1    3    3    0    0  0.12123068143E+02  0.46298772798E+02  0.26408167652E+02  0.54662020294E+02  0.00000000000E+00 0.  1.
         22    1    1    2    0    0 -0.49757025837E+03 -0.62194702637E+03 -0.10504064522E+04  0.13182366936E+04  0.00000000000E+00 0. -1.
<mgrwt>
<rscale>  0 0.20304043E+04</rscale>
<asrwt>0</asrwt>
<pdfrwt beam="1">  1        2 0.22566785E+00 0.20304043E+04</pdfrwt>
<pdfrwt beam="2">  1       -2 0.10809576E+00 0.20304043E+04</pdfrwt>
<totfact> 0.84206019E+00</totfact>
</mgrwt>
</event>
<event>
 6    1  0.2047711E-005  0.2020335E+04  0.7818608E-02  0.8597172E-01
          2   -1    0    0  501    0  0.00000000000E+00  0.00000000000E+00  0.21767054437E+04  0.21767054437E+04  0.00000000000E+00 0. -1.
         -2   -1    0    0    0  501 -0.00000000000E+00 -0.00000000000E+00 -0.46879963343E+03  0.46879963343E+03  0.00000000000E+00 0.  1.
         23    2    1    2    0    0  0.98749221822E+02  0.37351358401E+03 -0.36382338247E+03  0.53805978619E+03  0.88752879592E+02 0.  0.
         11    1    3    3    0    0  0.30279772153E+02  0.21477979829E+03 -0.25049258506E+03  0.33135141696E+03  0.00000000000E+00 0. -1.
        -11    1    3    3    0    0  0.68469449669E+02  0.15873378573E+03 -0.11333079741E+03  0.20670836923E+03  0.00000000000E+00 0.  1.
         22    1    1    2    0    0 -0.98749221822E+02 -0.37351358401E+03  0.20717291928E+04  0.21074452910E+04  0.00000000000E+00 0. -1.
<mgrwt>
<rscale>  0 0.20203353E+04</rscale>
<asrwt>0</asrwt>
<pdfrwt beam="1">  1        2 0.33487775E+00 0.20203353E+04</pdfrwt>
<pdfrwt beam="2">  1       -2 0.72123022E-01 0.20203353E+04</pdfrwt>
<totfact> 0.85939843E+00</totfact>
</mgrwt>
</event>
<event>
 6    1  0.2047711E-005  0.3922222E+04  0.7818608E-02  0.8020423E-01
         -1   -1    0    0    0  501 -0.00000000000E+00  0.00000000000E+00  0.15023349665E+04  0.15023349665E+04  0.00000000000E+00 0.  1.
          1   -1    0    0  501    0  0.00000000000E+00 -0.00000000000E+00 -0.25599864386E+04  0.25599864386E+04  0.00000000000E+00 0. -1.
         23    2    1    2    0    0  0.11344603770E+04 -0.24753143667E+03  0.11063503296E+04  0.16064761420E+04  0.92099858302E+02 0.  0.
         11    1    3    3    0    0  0.53110432181E+03 -0.15262587311E+03  0.56523413247E+03  0.79047838826E+03  0.00000000000E+00 0.  1.
        -11    1    3    3    0    0  0.60335605517E+03 -0.94905563567E+02  0.54111619710E+03  0.81599775371E+03  0.00000000000E+00 0. -1.
         22    1    1    2    0    0 -0.11344603770E+04  0.24753143667E+03 -0.21640018016E+04  0.24558452631E+04  0.00000000000E+00 0. -1.
<mgrwt>
<rscale>  0 0.39222224E+04</rscale>
<asrwt>0</asrwt>
<pdfrwt beam="1">  1        1 0.39384407E+00 0.39222224E+04</pdfrwt>
<pdfrwt beam="2">  1       -1 0.23112846E+00 0.39222224E+04</pdfrwt>
<totfact> 0.89921924E-02</totfact>
</mgrwt>
</event>
<event>
 6    1  0.2047711E-005  0.4111932E+04  0.7818608E-02  0.7982339E-01
         -2   -1    0    0    0  501 -0.00000000000E+00  0.00000000000E+00  0.12048018286E+04  0.12048018286E+04  0.00000000000E+00 0.  1.
          2   -1    0    0  501    0  0.00000000000E+00 -0.00000000000E+00 -0.35084583414E+04  0.35084583414E+04  0.00000000000E+00 0. -1.
         23    2    1    2    0    0  0.45598684560E+03 -0.14988407653E+04  0.37191019802E+03  0.16127594255E+04  0.90709018338E+02 0.  0.
         11    1    3    3    0    0  0.42891752324E+03 -0.13579662767E+04  0.35951769502E+03  0.14687735099E+04  0.00000000000E+00 0. -1.
        -11    1    3    3    0    0  0.27069322355E+02 -0.14087448860E+03  0.12392503006E+02  0.14398591557E+03  0.00000000000E+00 0.  1.
         22    1    1    2    0    0 -0.45598684560E+03  0.14988407653E+04 -0.26755667109E+04  0.31005007446E+04  0.00000000000E+00 0. -1.
<mgrwt>
<rscale>  0 0.41119324E+04</rscale>
<asrwt>0</asrwt>
<pdfrwt beam="1">  1        2 0.53976282E+00 0.41119324E+04</pdfrwt>
<pdfrwt beam="2">  1       -2 0.18535413E+00 0.41119324E+04</pdfrwt>
<totfact> 0.10427188E-01</totfact>
</mgrwt>
</event>
<event>
 6    1  0.2047711E-005  0.1986474E+04  0.7818608E-02  0.8612971E-01
          1   -1    0    0  501    0  0.00000000000E+00  0.00000000000E+00  0.12105984640E+04  0.12105984640E+04  0.00000000000E+00 0. -1.
         -1   -1    0    0    0  501 -0.00000000000E+00 -0.00000000000E+00 -0.81490227304E+03  0.81490227304E+03  0.00000000000E+00 0.  1.
         23    2    1    2    0    0 -0.45448009715E+03  0.13420126114E+03  0.10858376916E+04  0.11883284561E+04  0.92297832431E+02 0.  0.
         13    1    3    3    0    0 -0.19288421749E+03  0.11380583754E+02  0.46366679458E+03  0.50231537448E+03  0.00000000000E+00 0. -1.
        -13    1    3    3    0    0 -0.26159587967E+03  0.12282067739E+03  0.62217089698E+03  0.68601308158E+03  0.00000000000E+00 0.  1.
         22    1    1    2    0    0  0.45448009715E+03 -0.13420126114E+03 -0.69014150060E+03  0.83717228099E+03  0.00000000000E+00 0.  1.
<mgrwt>
<rscale>  0 0.19864737E+04</rscale>
<asrwt>0</asrwt>
<pdfrwt beam="1">  1        1 0.18624592E+00 0.19864737E+04</pdfrwt>
<pdfrwt beam="2">  1       -1 0.12536958E+00 0.19864737E+04</pdfrwt>
<totfact> 0.54160367E+00</totfact>
</mgrwt>
</event>
<event>
 6    1  0.2047711E-005  0.1420624E+04  0.7818608E-02  0.8939024E-01
          2   -1    0    0  501    0  0.00000000000E+00  0.00000000000E+00  0.15248403488E+04  0.15248403488E+04  0.00000000000E+00 0. -1.
         -2   -1    0    0    0  501 -0.00000000000E+00 -0.00000000000E+00 -0.33088267747E+03  0.33088267747E+03  0.00000000000E+00 0.  1.
         23    2    1    2    0    0 -0.38448312934E+03 -0.58730758786E+03  0.48612873736E+03  0.85883823890E+03  0.92328174482E+02 0.  0.
         11    1    3    3    0    0 -0.31831364190E+03 -0.49194357503E+03  0.44472283728E+03  0.73560210551E+03  0.00000000000E+00 0. -1.
        -11    1    3    3    0    0 -0.66169487448E+02 -0.95364012830E+02  0.41405900083E+02  0.12323613339E+03  0.00000000000E+00 0.  1.
         22    1    1    2    0    0  0.38448312934E+03  0.58730758786E+03  0.70782893396E+03  0.99688478735E+03  0.00000000000E+00 0. -1.
<mgrwt>
<rscale>  0 0.14206242E+04</rscale>
<asrwt>0</asrwt>
<pdfrwt beam="1">  1        2 0.23459082E+00 0.14206242E+04</pdfrwt>
<pdfrwt beam="2">  1       -2 0.50905028E-01 0.14206242E+04</pdfrwt>
<totfact> 0.43562910E+01</totfact>
</mgrwt>
</event>
<event>
 6    1  0.2047711E-005  0.1546917E+04  0.7818608E-02  0.8853839E-01
         -2   -1    0    0    0  501 -0.00000000000E+00  0.00000000000E+00  0.30872783110E+03  0.30872783110E+03  0.00000000000E+00 0.  1.
          2   -1    0    0  501    0  0.00000000000E+00 -0.00000000000E+00 -0.19377532853E+04  0.19377532853E+04  0.00000000000E+00 0. -1.
         23    2    1    2    0    0 -0.52487604919E+03  0.54060534533E+02 -0.58822771728E+01  0.53972654075E+03  0.11336987779E+03 0.  0.
         11    1    3    3    0    0 -0.16385715808E+03  0.69552811200E+02  0.70066794212E+01  0.17814560156E+03  0.00000000000E+00 0.  1.
        -11    1    3    3    0    0 -0.36101889112E+03 -0.15492276667E+02 -0.12888956594E+02  0.36158093919E+03  0.00000000000E+00 0. -1.
         22    1    1    2    0    0  0.52487604919E+03 -0.54060534533E+02 -0.16231431770E+04  0.17067545757E+04  0.00000000000E+00 0. -1.
<mgrwt>
<rscale>  0 0.15469174E+04</rscale>
<asrwt>0</asrwt>
<pdfrwt beam="1">  1        2 0.29811588E+00 0.15469174E+04</pdfrwt>
<pdfrwt beam="2">  1       -2 0.47496591E-01 0.15469174E+04</pdfrwt>
<totfact> 0.29269141E+01</totfact>
</mgrwt>
</event>
<event>
 6    1  0.2047711E-005  0.1398238E+04  0.7818608E-02  0.8955095E-01
          2   -1    0    0  501    0  0.00000000000E+00  0.00000000000E+00  0.61318565949E+03  0.61318565949E+03  0.00000000000E+00 0. -1.
         -2   -1    0    0    0  501 -0.00000000000E+00 -0.00000000000E+00 -0.79709548060E+03  0.79709548060E+03  0.00000000000E+00 0.  1.
         23    2    1    2    0    0  0.40520232175E+02 -0.19653136460E+03 -0.76467590318E+03  0.79582552040E+03  0.91337591027E+02 0.  0.
         11    1    3    3    0    0  0.69058438780E+01 -0.40737724882E+02 -0.33507961402E+03  0.33761753604E+03  0.00000000000E+00 0.  1.
        -11    1    3    3    0    0  0.33614388297E+02 -0.15579363972E+03 -0.42959628916E+03  0.45820798437E+03  0.00000000000E+00 0. -1.
         22    1    1    2    0    0 -0.40520232175E+02  0.19653136460E+03  0.58076608207E+03  0.61445561969E+03  0.00000000000E+00 0. -1.
<mgrwt>
<rscale>  0 0.13982382E+04</rscale>
<asrwt>0</asrwt>
<pdfrwt beam="1">  1        2 0.94336256E-01 0.13982382E+04</pdfrwt>
<pdfrwt beam="2">  1       -2 0.12263007E+00 0.13982382E+04</pdfrwt>
<totfact> 0.23647048E+01</totfact>
</mgrwt>
</event>
<event>
 6    1  0.2047711E-005  0.1084004E+04  0.7818608E-02  0.9220925E-01
         -1   -1    0    0    0  501 -0.00000000000E+00  0.00000000000E+00  0.57958311331E+03  0.57958311331E+03  0.00000000000E+00 0. -1.
          1   -1    0    0  501    0  0.00000000000E+00 -0.00000000000E+00 -0.50685751514E+03  0.50685751514E+03  0.00000000000E+00 0.  1.
         23    2    1    2    0    0 -0.18773401770E+03  0.20091320209E+03  0.50042644855E+03  0.57797411669E+03  0.89539225969E+02 0.  0.
         11    1    3    3    0    0 -0.15228856973E+03  0.18074044838E+03  0.35153940942E+03  0.42360225982E+03  0.00000000000E+00 0.  1.
        -11    1    3    3    0    0 -0.35445447970E+02  0.20172753710E+02  0.14888703913E+03  0.15437185687E+03  0.00000000000E+00 0. -1.
         22    1    1    2    0    0  0.18773401770E+03 -0.20091320209E+03 -0.42770085037E+03  0.50846651176E+03  0.00000000000E+00 0.  1.
<mgrwt>
<rscale>  0 0.10840038E+04</rscale>
<asrwt>0</asrwt>
<pdfrwt beam="1">  1        1 0.77978079E-01 0.10840038E+04</pdfrwt>
<pdfrwt beam="2">  1       -1 0.89166633E-01 0.10840038E+04</pdfrwt>
<totfact> 0.53526575E+01</totfact>
</mgrwt>
</event>
<event>
 6    1  0.2047711E-005  0.3627937E+04  0.7818608E-02  0.8084122E-01
         -2   -1    0    0    0  501 -0.00000000000E+00  0.00000000000E+00  0.23107721308E+04  0.23107721308E+04  0.00000000000E+00 0.  1.
          2   -1    0    0  501    0  0.00000000000E+00 -0.00000000000E+00 -0.14239750027E+04  0.14239750027E+04  0.00000000000E+00 0. -1.
         23    2    1    2    0    0 -0.24335640199E+03  0.14516408246E+04 -0.64572976304E+03  0.16098654676E+04  0.90644773669E+02 0.  0.
         13    1    3    3    0    0 -0.18018470859E+03  0.96239874059E+03 -0.47114175280E+03  0.10865783066E+04  0.00000000000E+00 0. -1.
        -13    1    3    3    0    0 -0.63171693402E+02  0.48924208398E+03 -0.17458801024E+03  0.52328716103E+03  0.00000000000E+00 0.  1.
         22    1    1    2    0    0  0.24335640199E+03 -0.14516408246E+04  0.15325268912E+04  0.21248816659E+04  0.00000000000E+00 0.  1.
<mgrwt>
<rscale>  0 0.36279370E+04</rscale>
<asrwt>0</asrwt>
<pdfrwt beam="1">  1        2 0.21907308E+00 0.36279370E+04</pdfrwt>
<pdfrwt beam="2">  1       -2 0.35550340E+00 0.36279370E+04</pdfrwt>
<totfact> 0.16365873E-01</totfact>
</mgrwt>
</event>
<event>
 6    1  0.2047711E-005  0.1070631E+04  0.7818608E-02  0.9234299E-01
         -2   -1    0    0    0  501 -0.00000000000E+00  0.00000000000E+00  0.26066318226E+03  0.26066318226E+03  0.00000000000E+00 0. -1.
          2   -1    0    0  501    0  0.00000000000E+00 -0.00000000000E+00 -0.10993610277E+04  0.10993610277E+04  0.00000000000E+00 0.  1.
         23    2    1    2    0    0  0.17378046019E+03 -0.76095124539E+02  0.20801375564E+03  0.29625953102E+03  0.92248961304E+02 0.  0.
         13    1    3    3    0    0  0.15475041532E+03 -0.89428763890E+02  0.14851046591E+03  0.23238019136E+03  0.00000000000E+00 0. -1.
        -13    1    3    3    0    0  0.19030044868E+02  0.13333639351E+02  0.59503289734E+02  0.63879339658E+02  0.00000000000E+00 0.  1.
         22    1    1    2    0    0 -0.17378046019E+03  0.76095124539E+02 -0.10467116011E+04  0.10637646790E+04  0.00000000000E+00 0.  1.
<mgrwt>
<rscale>  0 0.10706315E+04</rscale>
<asrwt>0</asrwt>
<pdfrwt beam="1">  1        2 0.16913247E+00 0.10706315E+04</pdfrwt>
<pdfrwt beam="2">  1       -2 0.40102027E-01 0.10706315E+04</pdfrwt>
<totfact> 0.12752070E+02</totfact>
</mgrwt>
</event>
<event>
 6    1  0.2047711E-005  0.1039315E+04  0.7818608E-02  0.9266446E-01
         -2   -1    0    0    0  501 -0.00000000000E+00  0.00000000000E+00  0.76915153770E+03  0.76915153770E+03  0.00000000000E+00 0.  1.
          2   -1    0    0  501    0  0.00000000000E+00 -0.00000000000E+00 -0.35109310330E+03  0.35109310330E+03  0.00000000000E+00 0. -1.
         23    2    1    2    0    0  0.84413361208E+02  0.48539288376E+03  0.45876920022E+02  0.50278942255E+03  0.89222443817E+02 0.  0.
         13    1    3    3    0    0  0.53262276991E+02  0.32972419382E+03 -0.10929481997E+02  0.33417715020E+03  0.00000000000E+00 0. -1.
        -13    1    3    3    0    0  0.31151084217E+02  0.15566868994E+03  0.56806402019E+02  0.16861227235E+03  0.00000000000E+00 0.  1.
         22    1    1    2    0    0 -0.84413361208E+02 -0.48539288376E+03  0.37218151437E+03  0.61745521845E+03  0.00000000000E+00 0.  1.
<mgrwt>
<rscale>  0 0.10393148E+04</rscale>
<asrwt>0</asrwt>
<pdfrwt beam="1">  1        2 0.54014324E-01 0.10393148E+04</pdfrwt>
<pdfrwt beam="2">  1       -2 0.11833101E+00 0.10393148E+04</pdfrwt>
<totfact> 0.50423169E+01</totfact>
</mgrwt>
</event>
<event>
 6    1  0.2047711E-005  0.2132030E+04  0.7818608E-02  0.8547264E-01
         -2   -1    0    0    0  501 -0.00000000000E+00  0.00000000000E+00  0.16132633481E+04  0.16132633481E+04  0.00000000000E+00 0.  1.
          2   -1    0    0  501    0  0.00000000000E+00 -0.00000000000E+00 -0.70440315942E+03  0.70440315942E+03  0.00000000000E+00 0. -1.
         23    2    1    2    0    0 -0.95971373649E+03  0.45880737054E+03  0.47300540758E+03  0.11680909121E+04  0.95643108059E+02 0.  0.
         13    1    3    3    0    0 -0.52120675079E+03  0.22062939285E+03  0.20734004086E+03  0.60276338525E+03  0.00000000000E+00 0. -1.
        -13    1    3    3    0    0 -0.43850698570E+03  0.23817797769E+03  0.26566536672E+03  0.56532752688E+03  0.00000000000E+00 0.  1.
         22    1    1    2    0    0  0.95971373649E+03 -0.45880737054E+03  0.43585478106E+03  0.11495755954E+04  0.00000000000E+00 0. -1.
<mgrwt>
<rscale>  0 0.21320298E+04</rscale>
<asrwt>0</asrwt>
<pdfrwt beam="1">  1        2 0.10836972E+00 0.21320298E+04</pdfrwt>
<pdfrwt beam="2">  1       -2 0.24819436E+00 0.21320298E+04</pdfrwt>
<totfact> 0.24626296E+00</totfact>
</mgrwt>
</event>
<event>
 6    1  0.2047711E-005  0.1269884E+04  0.7818608E-02  0.9053795E-01
         -2   -1    0    0    0  501 -0.00000000000E+00  0.00000000000E+00  0.18262754387E+03  0.18262754387E+03  0.00000000000E+00 0.  1.
          2   -1    0    0  501    0  0.00000000000E+00 -0.00000000000E+00 -0.22075046683E+04  0.22075046683E+04  0.00000000000E+00 0. -1.
         23    2    1    2    0    0 -0.13122295121E+03  0.43983042168E+03 -0.20108633692E+03  0.50947192934E+03  0.91954712407E+02 0.  0.
         11    1    3    3    0    0 -0.10011577197E+03  0.28385890984E+03 -0.17538280841E+03  0.34836500683E+03  0.00000000000E+00 0.  1.
        -11    1    3    3    0    0 -0.31107179240E+02  0.15597151184E+03 -0.25703528503E+02  0.16110692252E+03  0.00000000000E+00 0. -1.
         22    1    1    2    0    0  0.13122295121E+03 -0.43983042168E+03 -0.18237907876E+04  0.18806602829E+04  0.00000000000E+00 0. -1.
<mgrwt>
<rscale>  0 0.12698837E+04</rscale>
<asrwt>0</asrwt>
<pdfrwt beam="1">  1        2 0.33961610E+00 0.12698837E+04</pdfrwt>
<pdfrwt beam="2">  1       -2 0.28096545E-01 0.12698837E+04</pdfrwt>
<totfact> 0.58317059E+01</totfact>
</mgrwt>
</event>
<event>
 6    1  0.2604936E-005  0.3058939E+04  0.7818608E-02  0.8227098E-01
         -2   -1    0    0    0  501 -0.00000000000E+00  0.00000000000E+00  0.10857297321E+04  0.10857297321E+04  0.00000000000E+00 0.  1.
          2   -1    0    0  501    0  0.00000000000E+00 -0.00000000000E+00 -0.21545664660E+04  0.21545664660E+04  0.00000000000E+00 0. -1.
         23    2    1    2    0    0 -0.77327753471E+03  0.19228843758E+03  0.84691521160E+03  0.11654375269E+04  0.77757730598E+02 0.  0.
         13    1    3    3    0    0 -0.33599062784E+03  0.80372353758E+02  0.31178429205E+03  0.46535885295E+03  0.00000000000E+00 0. -1.
        -13    1    3    3    0    0 -0.43728690687E+03  0.11191608382E+03  0.53513091954E+03  0.70007867400E+03  0.00000000000E+00 0.  1.
         22    1    1    2    0    0  0.77327753471E+03 -0.19228843758E+03 -0.19157519454E+04  0.20748586712E+04  0.00000000000E+00 0. -1.
<mgrwt>
<rscale>  0 0.30589389E+04</rscale>
<asrwt>0</asrwt>
<pdfrwt beam="1">  1        2 0.33147177E+00 0.30589389E+04</pdfrwt>
<pdfrwt beam="2">  1       -2 0.16703534E+00 0.30589389E+04</pdfrwt>
<totfact> 0.10441673E+00</totfact>
</mgrwt>
</event>
<event>
 6    1  0.2047711E-005  0.2979155E+04  0.7818608E-02  0.8249708E-01
          1   -1    0    0  501    0  0.00000000000E+00  0.00000000000E+00  0.18640326778E+04  0.18640326778E+04  0.00000000000E+00 0. -1.
         -1   -1    0    0    0  501 -0.00000000000E+00 -0.00000000000E+00 -0.11903445004E+04  0.11903445004E+04  0.00000000000E+00 0.  1.
         23    2    1    2    0    0 -0.29769963358E+03  0.25156741341E+03  0.18096940080E+04  0.18533690674E+04  0.89851332809E+02 0.  0.
         13    1    3    3    0    0 -0.22088029480E+03  0.13463504996E+03  0.12463929835E+04  0.12729533262E+04  0.00000000000E+00 0. -1.
        -13    1    3    3    0    0 -0.76819338783E+02  0.11693236346E+03  0.56330102452E+03  0.58041574122E+03  0.00000000000E+00 0.  1.
         22    1    1    2    0    0  0.29769963358E+03 -0.25156741341E+03 -0.11360058305E+04  0.12010081108E+04  0.00000000000E+00 0.  1.
<mgrwt>
<rscale>  0 0.29791549E+04</rscale>
<asrwt>0</asrwt>
<pdfrwt beam="1">  1        1 0.28677426E+00 0.29791549E+04</pdfrwt>
<pdfrwt beam="2">  1       -1 0.18312992E+00 0.29791549E+04</pdfrwt>
<totfact> 0.62105490E-01</totfact>
</mgrwt>
</event>
<event>
 6    1  0.2047711E-005  0.2161868E+04  0.7818608E-02  0.8534469E-01
         -2   -1    0    0    0  501 -0.00000000000E+00  0.00000000000E+00  0.69259635400E+03  0.69259635400E+03  0.00000000000E+00 0.  1.
          2   -1    0    0  501    0  0.00000000000E+00 -0.00000000000E+00 -0.16870117015E+04  0.16870117015E+04  0.00000000000E+00 0. -1.
         23    2    1    2    0    0  0.63451214305E+03  0.65072169152E+03 -0.11381410140E+04  0.14594442403E+04  0.92564265578E+02 0.  0.
         11    1    3    3    0    0  0.40288865522E+03  0.35446730591E+03 -0.70074911642E+03  0.88261863997E+03  0.00000000000E+00 0. -1.
        -11    1    3    3    0    0  0.23162348783E+03  0.29625438562E+03 -0.43739189761E+03  0.57682560034E+03  0.00000000000E+00 0.  1.
         22    1    1    2    0    0 -0.63451214305E+03 -0.65072169152E+03  0.14372566656E+03  0.92016381516E+03  0.00000000000E+00 0.  1.
<mgrwt>
<rscale>  0 0.21618679E+04</rscale>
<asrwt>0</asrwt>
<pdfrwt beam="1">  1        2 0.25954026E+00 0.21618679E+04</pdfrwt>
<pdfrwt beam="2">  1       -2 0.10655329E+00 0.21618679E+04</pdfrwt>
<totfact> 0.64880060E+00</totfact>
</mgrwt>
</event>
<event>
 6    1  0.2047711E-005  0.1346815E+04  0.7818608E-02  0.8993243E-01
          2   -1    0    0  501    0  0.00000000000E+00  0.00000000000E+00  0.47514202318E+03  0.47514202318E+03  0.00000000000E+00 0. -1.
         -2   -1    0    0    0  501 -0.00000000000E+00 -0.00000000000E+00 -0.95440379996E+03  0.95440379996E+03  0.00000000000E+00 0.  1.
         23    2    1    2    0    0  0.83984220263E+02  0.50053052144E+03  0.22424714387E+03  0.56207308374E+03  0.89750865104E+02 0.  0.
         13    1    3    3    0    0  0.20161707043E+02  0.20484778247E+03  0.45811539498E+02  0.21087390916E+03  0.00000000000E+00 0.  1.
        -13    1    3    3    0    0  0.63822513220E+02  0.29568273897E+03  0.17843560438E+03  0.35119917459E+03  0.00000000000E+00 0. -1.
         22    1    1    2    0    0 -0.83984220263E+02 -0.50053052144E+03 -0.70350892066E+03  0.86747273939E+03  0.00000000000E+00 0.  1.
<mgrwt>
<rscale>  0 0.13468145E+04</rscale>
<asrwt>0</asrwt>
<pdfrwt beam="1">  1        2 0.73098774E-01 0.13468145E+04</pdfrwt>
<pdfrwt beam="2">  1       -2 0.14683135E+00 0.13468145E+04</pdfrwt>
<totfact> 0.20217720E+01</totfact>
</mgrwt>
</event>
<event>
 6    1  0.2259833E-005  0.2777708E+04  0.7818608E-02  0.8310223E-01
          2   -1    0    0  501    0  0.00000000000E+00  0.00000000000E+00  0.11486265108E+04  0.11486265108E+04  0.00000000000E+00 0. -1.
         -2   -1    0    0    0  501 -0.00000000000E+00 -0.00000000000E+00 -0.16793239029E+04  0.16793239029E+04  0.00000000000E+00 0.  1.
         23    2    1    2    0    0 -0.43565561521E+03  0.89609796923E+03  0.71727157917E+03  0.12310114861E+04  0.90129767439E+02 0.  0.
         11    1    3    3    0    0 -0.22471125760E+03  0.38342002683E+03  0.35450620301E+03  0.56848985412E+03  0.00000000000E+00 0.  1.
        -11    1    3    3    0    0 -0.21094435761E+03  0.51267794241E+03  0.36276537616E+03  0.66252163193E+03  0.00000000000E+00 0. -1.
         22    1    1    2    0    0  0.43565561521E+03 -0.89609796923E+03 -0.12479689713E+04  0.15969389277E+04  0.00000000000E+00 0.  1.
<mgrwt>
<rscale>  0 0.27777084E+04</rscale>
<asrwt>0</asrwt>
<pdfrwt beam="1">  1        2 0.17671177E+00 0.27777084E+04</pdfrwt>
<pdfrwt beam="2">  1       -2 0.25835752E+00 0.27777084E+04</pdfrwt>
<totfact> 0.10124972E+00</totfact>
</mgrwt>
</event>
<event>
 6    1  0.2047711E-005  0.3669809E+04  0.7818608E-02  0.8074686E-01
          1   -1    0    0  501    0  0.00000000000E+00  0.00000000000E+00  0.17687322488E+04  0.17687322488E+04  0.00000000000E+00 0. -1.
         -1   -1    0    0    0  501 -0.00000000000E+00 -0.00000000000E+00 -0.19035526189E+04  0.19035526189E+04  0.00000000000E+00 0.  1.
         23    2    1    2    0    0 -0.12040933156E+04  0.13729926108E+04 -0.23445703434E+03  0.18433844092E+04  0.90258279944E+02 0.  0.
         11    1    3    3    0    0 -0.26323966627E+03  0.33021077296E+03 -0.21547793950E+02  0.42284581576E+03  0.00000000000E+00 0. -1.
        -11    1    3    3    0    0 -0.94085364937E+03  0.10427818378E+04 -0.21290924039E+03  0.14205385934E+04  0.00000000000E+00 0.  1.
         22    1    1    2    0    0  0.12040933156E+04 -0.13729926108E+04  0.99636664214E+02  0.18289004584E+04  0.00000000000E+00 0. -1.
<mgrwt>
<rscale>  0 0.36698092E+04</rscale>
<asrwt>0</asrwt>
<pdfrwt beam="1">  1        1 0.27211266E+00 0.36698092E+04</pdfrwt>
<pdfrwt beam="2">  1       -1 0.29285425E+00 0.36698092E+04</pdfrwt>
<totfact> 0.12643891E-01</totfact>
</mgrwt>
</event>
<event>
 6    1  0.2047711E-005  0.2747076E+04  0.7818608E-02  0.8319890E-01
          2   -1    0    0  501    0  0.00000000000E+00  0.00000000000E+00  0.19595281440E+04  0.19595281440E+04  0.00000000000E+00 0. -1.
         -2   -1    0    0    0  501 -0.00000000000E+00 -0.00000000000E+00 -0.96278585816E+03  0.96278585816E+03  0.00000000000E+00 0.  1.
         23    2    1    2    0    0  0.37584487417E+02 -0.11229008342E+04  0.13366505234E+04  0.17484926839E+04  0.90956950531E+02 0.  0.
         13    1    3    3    0    0 -0.20422316314E+02 -0.10003658464E+03  0.13807844681E+03  0.17172666288E+03  0.00000000000E+00 0.  1.
        -13    1    3    3    0    0  0.58006803731E+02 -0.10228642495E+04  0.11985720766E+04  0.15767660210E+04  0.00000000000E+00 0. -1.
         22    1    1    2    0    0 -0.37584487417E+02  0.11229008342E+04 -0.33990823763E+03  0.11738213182E+04  0.00000000000E+00 0.  1.
<mgrwt>
<rscale>  0 0.27470755E+04</rscale>
<asrwt>0</asrwt>
<pdfrwt beam="1">  1        2 0.30146587E+00 0.27470755E+04</pdfrwt>
<pdfrwt beam="2">  1       -2 0.14812090E+00 0.27470755E+04</pdfrwt>
<totfact> 0.19052474E+00</totfact>
</mgrwt>
</event>
<event>
 6    1  0.2047711E-005  0.2244024E+04  0.7818608E-02  0.8500325E-01
          2   -1    0    0  501    0  0.00000000000E+00  0.00000000000E+00  0.17122272170E+04  0.17122272170E+04  0.00000000000E+00 0. -1.
         -2   -1    0    0    0  501 -0.00000000000E+00 -0.00000000000E+00 -0.73524767925E+03  0.73524767925E+03  0.00000000000E+00 0.  1.
         23    2    1    2    0    0 -0.72151141481E+03  0.28175361714E+03  0.13718906589E+04  0.15780390930E+04  0.90330374702E+02 0.  0.
         13    1    3    3    0    0 -0.40708543927E+03  0.13069576659E+03  0.68121316672E+03  0.80427067383E+03  0.00000000000E+00 0.  1.
        -13    1    3    3    0    0 -0.31442597554E+03  0.15105785054E+03  0.69067749213E+03  0.77376841913E+03  0.00000000000E+00 0. -1.
         22    1    1    2    0    0  0.72151141481E+03 -0.28175361714E+03 -0.39491112111E+03  0.86943580329E+03  0.00000000000E+00 0. -1.
<mgrwt>
<rscale>  0 0.22440241E+04</rscale>
<asrwt>0</asrwt>
<pdfrwt beam="1">  1        2 0.26341957E+00 0.22440241E+04</pdfrwt>
<pdfrwt beam="2">  1       -2 0.11311503E+00 0.22440241E+04</pdfrwt>
<totfact> 0.53985100E+00</totfact>
</mgrwt>
</event>
<event>
 6    1  0.2047711E-005  0.1009728E+04  0.7818608E-02  0.9297939E-01
          2   -1    0    0  501    0  0.00000000000E+00  0.00000000000E+00  0.35826694567E+03  0.35826694567E+03  0.00000000000E+00 0. -1.
         -2   -1    0    0    0  501 -0.00000000000E+00 -0.00000000000E+00 -0.71144672807E+03  0.71144672807E+03  0.00000000000E+00 0.  1.
         23    2    1    2    0    0 -0.10880706281E+03  0.27216841935E+03  0.25185296487E+03  0.39741965273E+03  0.92724533193E+02 0.  0.
         11    1    3    3    0    0 -0.26807805068E+02  0.52970972520E+02  0.10647834777E+03  0.12191070866E+03  0.00000000000E+00 0. -1.
        -11    1    3    3    0    0 -0.81999257742E+02  0.21919744683E+03  0.14537461710E+03  0.27550894407E+03  0.00000000000E+00 0.  1.
         22    1    1    2    0    0  0.10880706281E+03 -0.27216841935E+03 -0.60503274727E+03  0.67229402100E+03  0.00000000000E+00 0.  1.
<mgrwt>
<rscale>  0 0.10097284E+04</rscale>
<asrwt>0</asrwt>
<pdfrwt beam="1">  1        2 0.55117992E-01 0.10097284E+04</pdfrwt>
<pdfrwt beam="2">  1       -2 0.10945334E+00 0.10097284E+04</pdfrwt>
<totfact> 0.59734171E+01</totfact>
</mgrwt>
</event>
<event>
 6    1  0.2047711E-005  0.4103115E+04  0.7818608E-02  0.7984062E-01
         -2   -1    0    0    0  501 -0.00000000000E+00  0.00000000000E+00  0.17958341214E+04  0.17958341214E+04  0.00000000000E+00 0.  1.
          2   -1    0    0  501    0  0.00000000000E+00 -0.00000000000E+00 -0.23436953605E+04  0.23436953605E+04  0.00000000000E+00 0. -1.
         23    2    1    2    0    0  0.13509500871E+04  0.41558783899E+03  0.12245665905E+04  0.18725315108E+04  0.95034387354E+02 0.  0.
         13    1    3    3    0    0  0.87005504792E+03  0.31389235010E+03  0.81229101742E+03  0.12309918322E+04  0.00000000000E+00 0.  1.
        -13    1    3    3    0    0  0.48089503915E+03  0.10169548889E+03  0.41227557310E+03  0.64153967867E+03  0.00000000000E+00 0. -1.
         22    1    1    2    0    0 -0.13509500871E+04 -0.41558783899E+03 -0.17724278296E+04  0.22669979710E+04  0.00000000000E+00 0. -1.
<mgrwt>
<rscale>  0 0.41031150E+04</rscale>
<asrwt>0</asrwt>
<pdfrwt beam="1">  1        2 0.36056852E+00 0.41031150E+04</pdfrwt>
<pdfrwt beam="2">  1       -2 0.27628217E+00 0.41031150E+04</pdfrwt>
<totfact> 0.14862896E-01</totfact>
</mgrwt>
</event>
<event>
 6    1  0.2047711E-005  0.4009510E+04  0.7818608E-02  0.8002631E-01
         -2   -1    0    0    0  501 -0.00000000000E+00  0.00000000000E+00  0.12223919803E+04  0.12223919803E+04  0.00000000000E+00 0.  1.
          2   -1    0    0  501    0  0.00000000000E+00 -0.00000000000E+00 -0.32878502127E+04  0.32878502127E+04  0.00000000000E+00 0. -1.
         23    2    1    2    0    0  0.61681994051E+03  0.15789234593E+04 -0.22350976714E+04  0.28066449200E+04  0.90155294008E+02 0.  0.
         13    1    3    3    0    0  0.36379313269E+03  0.10479362678E+04 -0.14705945017E+04  0.18420543025E+04  0.00000000000E+00 0. -1.
        -13    1    3    3    0    0  0.25302680782E+03  0.53098719153E+03 -0.76450316961E+03  0.96459061751E+03  0.00000000000E+00 0.  1.
         22    1    1    2    0    0 -0.61681994051E+03 -0.15789234593E+04  0.16963943899E+03  0.17035972730E+04  0.00000000000E+00 0.  1.
<mgrwt>
<rscale>  0 0.40095096E+04</rscale>
<asrwt>0</asrwt>
<pdfrwt beam="1">  1        2 0.50582310E+00 0.40095096E+04</pdfrwt>
<pdfrwt beam="2">  1       -2 0.18806031E+00 0.40095096E+04</pdfrwt>
<totfact> 0.14271571E-01</totfact>
</mgrwt>
</event>
<event>
 6    1  0.2047711E-005  0.2187836E+04  0.7818608E-02  0.8523508E-01
         -2   -1    0    0    0  501 -0.00000000000E+00  0.00000000000E+00  0.86771049595E+03  0.86771049595E+03  0.00000000000E+00 0.  1.
          2   -1    0    0  501    0  0.00000000000E+00 -0.00000000000E+00 -0.13790970635E+04  0.13790970635E+04  0.00000000000E+00 0. -1.
         23    2    1    2    0    0  0.51625971585E+03  0.51841897222E+03 -0.10888074242E+04  0.13147683055E+04  0.88497260987E+02 0.  0.
         11    1    3    3    0    0  0.43912854395E+03  0.46425186300E+03 -0.98900929663E+03  0.11774986451E+04  0.00000000000E+00 0.  1.
        -11    1    3    3    0    0  0.77131171904E+02  0.54167109220E+02 -0.99798127602E+02  0.13726966043E+03  0.00000000000E+00 0. -1.
         22    1    1    2    0    0 -0.51625971585E+03 -0.51841897222E+03  0.57742085674E+03  0.93203925387E+03  0.00000000000E+00 0.  1.
<mgrwt>
<rscale>  0 0.21878364E+04</rscale>
<asrwt>0</asrwt>
<pdfrwt beam="1">  1        2 0.21216878E+00 0.21878364E+04</pdfrwt>
<pdfrwt beam="2">  1       -2 0.13349392E+00 0.21878364E+04</pdfrwt>
<totfact> 0.55267615E+00</totfact>
</mgrwt>
</event>
<event>
 6    1  0.2047711E-005  0.2441193E+04  0.7818608E-02  0.8424241E-01
          2   -1    0    0  501    0  0.00000000000E+00  0.00000000000E+00  0.32299156051E+04  0.32299156051E+04  0.00000000000E+00 0. -1.
         -2   -1    0    0    0  501 -0.00000000000E+00 -0.00000000000E+00 -0.46126758000E+03  0.46126758000E+03  0.00000000000E+00 0.  1.
         23    2    1    2    0    0 -0.91690124319E+03 -0.53093210203E+03  0.47527095799E+03  0.11648864569E+04  0.92093362049E+02 0.  0.
         11    1    3    3    0    0 -0.42224392322E+03 -0.26150118356E+03  0.27048862024E+03  0.56554123932E+03  0.00000000000E+00 0.  1.
        -11    1    3    3    0    0 -0.49465731997E+03 -0.26943091847E+03  0.20478233776E+03  0.59934521762E+03  0.00000000000E+00 0. -1.
         22    1    1    2    0    0  0.91690124319E+03  0.53093210203E+03  0.22933770671E+04  0.25262967281E+04  0.00000000000E+00 0. -1.
<mgrwt>
<rscale>  0 0.24411926E+04</rscale>
<asrwt>0</asrwt>
<pdfrwt beam="1">  1        2 0.49691008E+00 0.24411926E+04</pdfrwt>
<pdfrwt beam="2">  1       -2 0.70964245E-01 0.24411926E+04</pdfrwt>
<totfact> 0.20057419E+00</totfact>
</mgrwt>
</event>
<event>
 6    1  0.2047711E-005  0.2417775E+04  0.7818608E-02  0.8432879E-01
          2   -1    0    0  501    0  0.00000000000E+00  0.00000000000E+00  0.21574491288E+04  0.21574491288E+04  0.00000000000E+00 0. -1.
         -2   -1    0    0    0  501 -0.00000000000E+00 -0.00000000000E+00 -0.67737834963E+03  0.67737834963E+03  0.00000000000E+00 0.  1.
         23    2    1    2    0    0 -0.11437496941E+04  0.29618790661E+03  0.45044142160E+03  0.12676557416E+04  0.90349134470E+02 0.  0.
         11    1    3    3    0    0 -0.39434340021E+03  0.70924818964E+02  0.18512811482E+03  0.44137225347E+03  0.00000000000E+00 0. -1.
        -11    1    3    3    0    0 -0.74940629390E+03  0.22526308765E+03  0.26531330678E+03  0.82628348812E+03  0.00000000000E+00 0.  1.
         22    1    1    2    0    0  0.11437496941E+04 -0.29618790661E+03  0.10296293576E+04  0.15671717369E+04  0.00000000000E+00 0. -1.
<mgrwt>
<rscale>  0 0.24177753E+04</rscale>
<asrwt>0</asrwt>
<pdfrwt beam="1">  1        2 0.33191525E+00 0.24177753E+04</pdfrwt>
<pdfrwt beam="2">  1       -2 0.10421205E+00 0.24177753E+04</pdfrwt>
<totfact> 0.36666533E+00</totfact>
</mgrwt>
</event>
<event>
 6    1  0.2047711E-005  0.3915800E+03  0.7818608E-02  0.1046735E+00
          2   -1    0    0  501    0  0.00000000000E+00  0.00000000000E+00  0.22725880671E+03  0.22725880671E+03  0.00000000000E+00 0. -1.
         -2   -1    0    0    0  501 -0.00000000000E+00 -0.00000000000E+00 -0.16867873450E+03  0.16867873450E+03  0.00000000000E+00 0.  1.
         23    2    1    2    0    0 -0.13561635278E+03  0.12614415296E+03  0.28097738007E+02  0.20823214659E+03  0.90923052765E+02 0.  0.
         11    1    3    3    0    0 -0.93926433130E+02  0.12083245230E+03 -0.73948501505E+01  0.15322317115E+03  0.00000000000E+00 0.  1.
        -11    1    3    3    0    0 -0.41689919654E+02  0.53117006616E+01  0.35492588157E+02  0.55008975439E+02  0.00000000000E+00 0. -1.
         22    1    1    2    0    0  0.13561635278E+03 -0.12614415296E+03  0.30482334209E+02  0.18770539462E+03  0.00000000000E+00 0. -1.
<mgrwt>
<rscale>  0 0.39158002E+03</rscale>
<asrwt>0</asrwt>
<pdfrwt beam="1">  1        2 0.34962894E-01 0.39158002E+03</pdfrwt>
<pdfrwt beam="2">  1       -2 0.25950574E-01 0.39158002E+03</pdfrwt>
<totfact> 0.19820533E+03</totfact>
</mgrwt>
</event>
<event>
 6    1  0.2047711E-005  0.2945365E+04  0.7818608E-02  0.8259506E-01
         -2   -1    0    0    0  501 -0.00000000000E+00  0.00000000000E+00  0.13013358964E+04  0.13013358964E+04  0.00000000000E+00 0.  1.
          2   -1    0    0  501    0  0.00000000000E+00 -0.00000000000E+00 -0.16665907622E+04  0.16665907622E+04  0.00000000000E+00 0. -1.
         23    2    1    2    0    0  0.54099255337E+03 -0.34198001019E+03 -0.15177076750E+04  0.16496813294E+04  0.91589474101E+02 0.  0.
         13    1    3    3    0    0  0.48143969002E+03 -0.33491645813E+03 -0.13686203680E+04  0.14889845267E+04  0.00000000000E+00 0.  1.
        -13    1    3    3    0    0  0.59552863355E+02 -0.70635520639E+01 -0.14908730697E+03  0.16069680271E+03  0.00000000000E+00 0. -1.
         22    1    1    2    0    0 -0.54099255337E+03  0.34198001019E+03  0.11524528093E+04  0.13182453292E+04  0.00000000000E+00 0.  1.
<mgrwt>
<rscale>  0 0.29453654E+04</rscale>
<asrwt>0</asrwt>
<pdfrwt beam="1">  1        2 0.25639858E+00 0.29453654E+04</pdfrwt>
<pdfrwt beam="2">  1       -2 0.20020552E+00 0.29453654E+04</pdfrwt>
<totfact> 0.11671458E+00</totfact>
</mgrwt>
</event>
<event>
 6    1  0.2047711E-005  0.2039700E+04  0.7818608E-02  0.8588281E-01
          1   -1    0    0  501    0  0.00000000000E+00  0.00000000000E+00  0.13220784229E+04  0.13220784229E+04  0.00000000000E+00 0. -1.
         -1   -1    0    0    0  501 -0.00000000000E+00 -0.00000000000E+00 -0.78671117118E+03  0.78671117118E+03  0.00000000000E+00 0.  1.
         23    2    1    2    0    0  0.33307932545E+03  0.48786419489E+03 -0.58782483693E+03  0.83972939942E+03  0.10321877562E+03 0.  0.
         13    1    3    3    0    0  0.18430336281E+03  0.28792491386E+03 -0.40864333621E+03  0.53278312830E+03  0.00000000000E+00 0.  1.
        -13    1    3    3    0    0  0.14877596264E+03  0.19993928103E+03 -0.17918150072E+03  0.30694627112E+03  0.00000000000E+00 0. -1.
         22    1    1    2    0    0 -0.33307932545E+03 -0.48786419489E+03  0.11231920887E+04  0.12690601947E+04  0.00000000000E+00 0. -1.
<mgrwt>
<rscale>  0 0.20396998E+04</rscale>
<asrwt>0</asrwt>
<pdfrwt beam="1">  1        1 0.20339668E+00 0.20396998E+04</pdfrwt>
<pdfrwt beam="2">  1       -1 0.12103249E+00 0.20396998E+04</pdfrwt>
<totfact> 0.48887408E+00</totfact>
</mgrwt>
</event>
<event>
 6    1  0.2047711E-005  0.2833952E+04  0.7818608E-02  0.8292805E-01
          2   -1    0    0  501    0  0.00000000000E+00  0.00000000000E+00  0.26022497953E+04  0.26022497953E+04  0.00000000000E+00 0. -1.
         -2   -1    0    0    0  501 -0.00000000000E+00 -0.00000000000E+00 -0.77157101413E+03  0.77157101413E+03  0.00000000000E+00 0.  1.
         23    2    1    2    0    0 -0.12278795438E+04 -0.67060035169E+03  0.66193423114E+03  0.15508131767E+04  0.97322027609E+02 0.  0.
         13    1    3    3    0    0 -0.38694355242E+03 -0.18060738751E+03  0.24183189997E+03  0.49074128523E+03  0.00000000000E+00 0. -1.
        -13    1    3    3    0    0 -0.84093599133E+03 -0.48999296419E+03  0.42010233117E+03  0.10600718915E+04  0.00000000000E+00 0.  1.
         22    1    1    2    0    0  0.12278795438E+04  0.67060035169E+03  0.11687445500E+04  0.18230076327E+04  0.00000000000E+00 0. -1.
<mgrwt>
<rscale>  0 0.28339517E+04</rscale>
<asrwt>0</asrwt>
<pdfrwt beam="1">  1        2 0.40034612E+00 0.28339517E+04</pdfrwt>
<pdfrwt beam="2">  1       -2 0.11870323E+00 0.28339517E+04</pdfrwt>
<totfact> 0.14358239E+00</totfact>
</mgrwt>
</event>
<event>
 6    1  0.2047711E-005  0.3928740E+04  0.7818608E-02  0.8019078E-01
         -2   -1    0    0    0  501 -0.00000000000E+00  0.00000000000E+00  0.70367177330E+03  0.70367177330E+03  0.00000000000E+00 0.  1.
          2   -1    0    0  501    0  0.00000000000E+00 -0.00000000000E+00 -0.54837349662E+04  0.54837349662E+04  0.00000000000E+00 0. -1.
         23    2    1    2    0    0  0.15558896008E+04 -0.11815616388E+04 -0.20845687180E+04  0.28583572025E+04  0.88875196181E+02 0.  0.
         11    1    3    3    0    0  0.65893284757E+03 -0.50795849282E+03 -0.82440282910E+03  0.11712618634E+04  0.00000000000E+00 0.  1.
        -11    1    3    3    0    0  0.89695675321E+03 -0.67360314598E+03 -0.12601658889E+04  0.16870953391E+04  0.00000000000E+00 0. -1.
         22    1    1    2    0    0 -0.15558896008E+04  0.11815616388E+04 -0.26954944748E+04  0.33290495370E+04  0.00000000000E+00 0.  1.
<mgrwt>
<rscale>  0 0.39287400E+04</rscale>
<asrwt>0</asrwt>
<pdfrwt beam="1">  1        2 0.84365157E+00 0.39287400E+04</pdfrwt>
<pdfrwt beam="2">  1       -2 0.10825719E+00 0.39287400E+04</pdfrwt>
<totfact> 0.34133444E-03</totfact>
</mgrwt>
</event>
<event>
 6    1  0.2047711E-005  0.3334887E+04  0.7818608E-02  0.8154075E-01
          2   -1    0    0  501    0  0.00000000000E+00  0.00000000000E+00  0.12751954212E+04  0.12751954212E+04  0.00000000000E+00 0. -1.
         -2   -1    0    0    0  501 -0.00000000000E+00 -0.00000000000E+00 -0.21803468450E+04  0.21803468450E+04  0.00000000000E+00 0.  1.
         23    2    1    2    0    0  0.14170534732E+04 -0.48777389134E+03 -0.12075027449E+04  0.19266929484E+04  0.90105068776E+02 0.  0.
         13    1    3    3    0    0  0.78357559590E+03 -0.22226444283E+03 -0.65666684185E+03  0.10462330229E+04  0.00000000000E+00 0.  1.
        -13    1    3    3    0    0  0.63347787731E+03 -0.26550944851E+03 -0.55083590310E+03  0.88045992551E+03  0.00000000000E+00 0. -1.
         22    1    1    2    0    0 -0.14170534732E+04  0.48777389134E+03  0.30235132123E+03  0.15288493178E+04  0.00000000000E+00 0. -1.
<mgrwt>
<rscale>  0 0.33348873E+04</rscale>
<asrwt>0</asrwt>
<pdfrwt beam="1">  1        2 0.19618391E+00 0.33348873E+04</pdfrwt>
<pdfrwt beam="2">  1       -2 0.33543797E+00 0.33348873E+04</pdfrwt>
<totfact> 0.27326428E-01</totfact>
</mgrwt>
</event>
<event>
 6    1  0.2047711E-005  0.1615138E+04  0.7818608E-02  0.8811302E-01
          1   -1    0    0  501    0  0.00000000000E+00  0.00000000000E+00  0.10307760413E+04  0.10307760413E+04  0.00000000000E+00 0. -1.
         -1   -1    0    0    0  501 -0.00000000000E+00 -0.00000000000E+00 -0.63269546477E+03  0.63269546477E+03  0.00000000000E+00 0.  1.
         23    2    1    2    0    0  0.36338903420E+02 -0.58483948722E+03  0.76839834180E+03  0.97029549026E+03  0.87633241531E+02 0.  0.
         13    1    3    3    0    0  0.56226670078E+02 -0.46844044352E+03  0.57617413586E+03  0.74469760467E+03  0.00000000000E+00 0. -1.
        -13    1    3    3    0    0 -0.19887766658E+02 -0.11639904370E+03  0.19222420593E+03  0.22559788559E+03  0.00000000000E+00 0.  1.
         22    1    1    2    0    0 -0.36338903420E+02  0.58483948722E+03 -0.37031776523E+03  0.69317601586E+03  0.00000000000E+00 0.  1.
<mgrwt>
<rscale>  0 0.16151376E+04</rscale>
<asrwt>0</asrwt>
<pdfrwt beam="1">  1        1 0.15858093E+00 0.16151376E+04</pdfrwt>
<pdfrwt beam="2">  1       -1 0.97337763E-01 0.16151376E+04</pdfrwt>
<totfact> 0.13911797E+01</totfact>
</mgrwt>
</event>
<event>
 6    1  0.2047711E-005  0.2270925E+04  0.7818608E-02  0.8489474E-01
          2   -1    0    0  501    0  0.00000000000E+00  0.00000000000E+00  0.10596634067E+04  0.10596634067E+04  0.00000000000E+00 0. -1.
         -2   -1    0    0    0  501 -0.00000000000E+00 -0.00000000000E+00 -0.12166837383E+04  0.12166837383E+04  0.00000000000E+00 0.  1.
         23    2    1    2    0    0  0.29005738299E+03 -0.79828722987E+03  0.67382315734E+03  0.10881987158E+04  0.93504068965E+02 0.  0.
         13    1    3    3    0    0  0.30805090203E+02 -0.10858571079E+03  0.52956645631E+02  0.12467644720E+03  0.00000000000E+00 0.  1.
        -13    1    3    3    0    0  0.25925229279E+03 -0.68970151908E+03  0.62086651170E+03  0.96352226860E+03  0.00000000000E+00 0. -1.
         22    1    1    2    0    0 -0.29005738299E+03  0.79828722987E+03 -0.83084348895E+03  0.11881484293E+04  0.00000000000E+00 0.  1.
<mgrwt>
<rscale>  0 0.22709251E+04</rscale>
<asrwt>0</asrwt>
<pdfrwt beam="1">  1        2 0.16302514E+00 0.22709251E+04</pdfrwt>
<pdfrwt beam="2">  1       -2 0.18718211E+00 0.22709251E+04</pdfrwt>
<totfact> 0.33963830E+00</totfact>
</mgrwt>
</event>
<event>
 6    1  0.2047711E-005  0.2491823E+04  0.7818608E-02  0.8405904E-01
         -2   -1    0    0    0  501 -0.00000000000E+00  0.00000000000E+00  0.62558061245E+03  0.62558061245E+03  0.00000000000E+00 0.  1.
          2   -1    0    0  501    0  0.00000000000E+00 -0.00000000000E+00 -0.24813678734E+04  0.24813678734E+04  0.00000000000E+00 0. -1.
         23    2    1    2    0    0  0.72198209787E+03  0.83372846911E+03 -0.16473383271E+04  0.19845348954E+04  0.91070727733E+02 0.  0.
         13    1    3    3    0    0  0.49190284948E+03  0.51730918200E+03 -0.10129315052E+04  0.12391962869E+04  0.00000000000E+00 0. -1.
        -13    1    3    3    0    0  0.23007924839E+03  0.31641928711E+03 -0.63440682183E+03  0.74533860854E+03  0.00000000000E+00 0.  1.
         22    1    1    2    0    0 -0.72198209787E+03 -0.83372846911E+03 -0.20844893383E+03  0.11224135904E+04  0.00000000000E+00 0.  1.
<mgrwt>
<rscale>  0 0.24918231E+04</rscale>
<asrwt>0</asrwt>
<pdfrwt beam="1">  1        2 0.38174891E+00 0.24918231E+04</pdfrwt>
<pdfrwt beam="2">  1       -2 0.96243170E-01 0.24918231E+04</pdfrwt>
<totfact> 0.28789314E+00</totfact>
</mgrwt>
</event>
<event>
 6    1  0.2047711E-005  0.2369504E+04  0.7818608E-02  0.8451010E-01
          2   -1    0    0  501    0  0.00000000000E+00  0.00000000000E+00  0.49736299730E+03  0.49736299730E+03  0.00000000000E+00 0.  1.
         -2   -1    0    0    0  501 -0.00000000000E+00 -0.00000000000E+00 -0.28221587896E+04  0.28221587896E+04  0.00000000000E+00 0. -1.
         23    2    1    2    0    0  0.56863302534E+03 -0.10248786794E+04 -0.93955416659E+03  0.15049655914E+04  0.91867157004E+02 0.  0.
         13    1    3    3    0    0  0.36545816357E+03 -0.70333174109E+03 -0.58656440381E+03  0.98604919104E+03  0.00000000000E+00 0. -1.
        -13    1    3    3    0    0  0.20317486177E+03 -0.32154693826E+03 -0.35298976278E+03  0.51891640039E+03  0.00000000000E+00 0.  1.
         22    1    1    2    0    0 -0.56863302534E+03  0.10248786794E+04 -0.13852416257E+04  0.18145561954E+04  0.00000000000E+00 0. -1.
<mgrwt>
<rscale>  0 0.23695040E+04</rscale>
<asrwt>0</asrwt>
<pdfrwt beam="1">  1        2 0.76517386E-01 0.23695040E+04</pdfrwt>
<pdfrwt beam="2">  1       -2 0.43417827E+00 0.23695040E+04</pdfrwt>
<totfact> 0.24679155E-01</totfact>
</mgrwt>
</event>
<event>
 6    1  0.2047711E-005  0.1865947E+04  0.7818608E-02  0.8671995E-01
          2   -1    0    0  501    0  0.00000000000E+00  0.00000000000E+00  0.25050992921E+04  0.25050992921E+04  0.00000000000E+00 0. -1.
         -2   -1    0    0    0  501 -0.00000000000E+00 -0.00000000000E+00 -0.34746694510E+03  0.34746694510E+03  0.00000000000E+00 0.  1.
         23    2    1    2    0    0  0.28551861958E+03  0.70180274370E+03  0.25364725091E+03  0.80336951181E+03  0.83771543014E+02 0.  0.
         13    1    3    3    0    0  0.10051188274E+03  0.31772521202E+03  0.14503625082E+03  0.36343838952E+03  0.00000000000E+00 0. -1.
        -13    1    3    3    0    0  0.18500673684E+03  0.38407753168E+03  0.10861100009E+03  0.43993112229E+03  0.00000000000E+00 0.  1.
         22    1    1    2    0    0 -0.28551861958E+03 -0.70180274370E+03  0.19039850961E+04  0.20491967254E+04  0.00000000000E+00 0. -1.
<mgrwt>
<rscale>  0 0.18659466E+04</rscale>
<asrwt>0</asrwt>
<pdfrwt beam="1">  1        2 0.38539988E+00 0.18659466E+04</pdfrwt>
<pdfrwt beam="2">  1       -2 0.53456455E-01 0.18659466E+04</pdfrwt>
<totfact> 0.10719386E+01</totfact>
</mgrwt>
</event>
<event>
 6    1  0.2047711E-005  0.3408599E+04  0.7818608E-02  0.8135799E-01
         -2   -1    0    0    0  501 -0.00000000000E+00  0.00000000000E+00  0.21319369832E+04  0.21319369832E+04  0.00000000000E+00 0.  1.
          2   -1    0    0  501    0  0.00000000000E+00 -0.00000000000E+00 -0.13624402291E+04  0.13624402291E+04  0.00000000000E+00 0. -1.
         23    2    1    2    0    0 -0.41924949996E+03  0.13522241263E+04 -0.58548835698E+03  0.15347178331E+04  0.91005383873E+02 0.  0.
         11    1    3    3    0    0 -0.31205400143E+03  0.88563772625E+03 -0.36180473642E+03  0.10062974457E+04  0.00000000000E+00 0. -1.
        -11    1    3    3    0    0 -0.10719549852E+03  0.46658640009E+03 -0.22368362056E+03  0.52842038735E+03  0.00000000000E+00 0.  1.
         22    1    1    2    0    0  0.41924949996E+03 -0.13522241263E+04  0.13549851111E+04  0.19596593792E+04  0.00000000000E+00 0. -1.
<mgrwt>
<rscale>  0 0.34085990E+04</rscale>
<asrwt>0</asrwt>
<pdfrwt beam="1">  1        2 0.20960619E+00 0.34085990E+04</pdfrwt>
<pdfrwt beam="2">  1       -2 0.32799030E+00 0.34085990E+04</pdfrwt>
<totfact> 0.26890998E-01</totfact>
</mgrwt>
</event>
<event>
 6    1  0.2047711E-005  0.3228927E+04  0.7818608E-02  0.8181219E-01
         -2   -1    0    0    0  501 -0.00000000000E+00  0.00000000000E+00  0.10738150072E+04  0.10738150072E+04  0.00000000000E+00 0.  1.
          2   -1    0    0  501    0  0.00000000000E+00 -0.00000000000E+00 -0.24273201081E+04  0.24273201081E+04  0.00000000000E+00 0. -1.
         23    2    1    2    0    0 -0.10879744053E+04 -0.11874620506E+04 -0.57699465212E+03  0.17131969438E+04  0.91468636228E+02 0.  0.
         13    1    3    3    0    0 -0.10206297992E+04 -0.11349129079E+04 -0.53023985087E+03  0.16158176862E+04  0.00000000000E+00 0. -1.
        -13    1    3    3    0    0 -0.67344606163E+02 -0.52549142672E+02 -0.46754801253E+02  0.97379257622E+02  0.00000000000E+00 0.  1.
         22    1    1    2    0    0  0.10879744053E+04  0.11874620506E+04 -0.77651044875E+03  0.17879381715E+04  0.00000000000E+00 0. -1.
<mgrwt>
<rscale>  0 0.32289272E+04</rscale>
<asrwt>0</asrwt>
<pdfrwt beam="1">  1        2 0.37343386E+00 0.32289272E+04</pdfrwt>
<pdfrwt beam="2">  1       -2 0.16520231E+00 0.32289272E+04</pdfrwt>
<totfact> 0.74313785E-01</totfact>
</mgrwt>
</event>
<event>
 6    1  0.2047711E-005  0.1670188E+04  0.7818608E-02  0.8778552E-01
          2   -1    0    0  501    0  0.00000000000E+00  0.00000000000E+00  0.58450975746E+03  0.58450975746E+03  0.00000000000E+00 0. -1.
         -2   -1    0    0    0  501 -0.00000000000E+00 -0.00000000000E+00 -0.11931062773E+04  0.11931062773E+04  0.00000000000E+00 0.  1.
         23    2    1    2    0    0  0.10285939361E+03  0.75168036797E+03 -0.67020111772E+03  0.10164336934E+04  0.91457555128E+02 0.  0.
         11    1    3    3    0    0  0.14946105464E+02  0.41602703041E+03 -0.39011574418E+03  0.57051921086E+03  0.00000000000E+00 0. -1.
        -11    1    3    3    0    0  0.87913288146E+02  0.33565333756E+03 -0.28008537353E+03  0.44591448251E+03  0.00000000000E+00 0.  1.
         22    1    1    2    0    0 -0.10285939361E+03 -0.75168036797E+03  0.61604597831E+02  0.76118234144E+03  0.00000000000E+00 0. -1.
<mgrwt>
<rscale>  0 0.16701883E+04</rscale>
<asrwt>0</asrwt>
<pdfrwt beam="1">  1        2 0.89924579E-01 0.16701883E+04</pdfrwt>
<pdfrwt beam="2">  1       -2 0.18355481E+00 0.16701883E+04</pdfrwt>
<totfact> 0.83602398E+00</totfact>
</mgrwt>
</event>
<event>
 6    1  0.2047711E-005  0.3349305E+04  0.7818608E-02  0.8150462E-01
         -2   -1    0    0    0  501 -0.00000000000E+00  0.00000000000E+00  0.66324574313E+03  0.66324574313E+03  0.00000000000E+00 0.  1.
          2   -1    0    0  501    0  0.00000000000E+00 -0.00000000000E+00 -0.42283894739E+04  0.42283894739E+04  0.00000000000E+00 0. -1.
         23    2    1    2    0    0 -0.14602483782E+04  0.41611556234E+03 -0.28112030099E+04  0.31963759159E+04  0.92082277377E+02 0.  0.
         13    1    3    3    0    0 -0.36990948980E+03  0.64221507196E+02 -0.68907617285E+03  0.78471867865E+03  0.00000000000E+00 0.  1.
        -13    1    3    3    0    0 -0.10903388884E+04  0.35189405514E+03 -0.21221268370E+04  0.24116572373E+04  0.00000000000E+00 0. -1.
         22    1    1    2    0    0  0.14602483782E+04 -0.41611556234E+03 -0.75394072090E+03  0.16952593011E+04  0.00000000000E+00 0. -1.
<mgrwt>
<rscale>  0 0.33493052E+04</rscale>
<asrwt>0</asrwt>
<pdfrwt beam="1">  1        2 0.65052149E+00 0.33493052E+04</pdfrwt>
<pdfrwt beam="2">  1       -2 0.10203780E+00 0.33493052E+04</pdfrwt>
<totfact> 0.14342689E-01</totfact>
</mgrwt>
</event>
<event>
 6    1  0.2047711E-005  0.3829505E+04  0.7818608E-02  0.8039853E-01
         -2   -1    0    0    0  501 -0.00000000000E+00  0.00000000000E+00  0.24478495500E+04  0.24478495500E+04  0.00000000000E+00 0.  1.
          2   -1    0    0  501    0  0.00000000000E+00 -0.00000000000E+00 -0.14977545211E+04  0.14977545211E+04  0.00000000000E+00 0. -1.
         23    2    1    2    0    0 -0.23467331837E+03 -0.15986475380E+04  0.15317259202E+04  0.22283271538E+04  0.92261002951E+02 0.  0.
         11    1    3    3    0    0 -0.73170367354E+02 -0.27250696034E+03  0.25063494684E+03  0.37740140788E+03  0.00000000000E+00 0.  1.
        -11    1    3    3    0    0 -0.16150295102E+03 -0.13261405776E+04  0.12810909734E+04  0.18509257459E+04  0.00000000000E+00 0. -1.
         22    1    1    2    0    0  0.23467331837E+03  0.15986475380E+04 -0.58163089132E+03  0.17172769173E+04  0.00000000000E+00 0. -1.
<mgrwt>
<rscale>  0 0.38295053E+04</rscale>
<asrwt>0</asrwt>
<pdfrwt beam="1">  1        2 0.23042377E+00 0.38295053E+04</pdfrwt>
<pdfrwt beam="2">  1       -2 0.37659224E+00 0.38295053E+04</pdfrwt>
<totfact> 0.10719073E-01</totfact>
</mgrwt>
</event>
<event>
 6    1  0.2047711E-005  0.1587519E+04  0.7818608E-02  0.8828252E-01
         -2   -1    0    0    0  501 -0.00000000000E+00  0.00000000000E+00  0.17308196641E+03  0.17308196641E+03  0.00000000000E+00 0.  1.
          2   -1    0    0  501    0  0.00000000000E+00 -0.00000000000E+00 -0.36402078508E+04  0.36402078508E+04  0.00000000000E+00 0. -1.
         23    2    1    2    0    0 -0.19564343518E+03  0.71376896553E+03 -0.10679495032E+04  0.13025549053E+04  0.91600491358E+02 0.  0.
         13    1    3    3    0    0 -0.90458208771E+02  0.18025154916E+03 -0.27325719882E+03  0.33962156177E+03  0.00000000000E+00 0.  1.
        -13    1    3    3    0    0 -0.10518522641E+03  0.53351741637E+03 -0.79469230439E+03  0.96293334353E+03  0.00000000000E+00 0. -1.
         22    1    1    2    0    0  0.19564343518E+03 -0.71376896553E+03 -0.23991763811E+04  0.25107349119E+04  0.00000000000E+00 0. -1.
<mgrwt>
<rscale>  0 0.15875192E+04</rscale>
<asrwt>0</asrwt>
<pdfrwt beam="1">  1        2 0.56003197E+00 0.15875192E+04</pdfrwt>
<pdfrwt beam="2">  1       -2 0.26627995E-01 0.15875192E+04</pdfrwt>
<totfact> 0.80383765E+00</totfact>
</mgrwt>
</event>
<event>
 6    1  0.2047711E-005  0.1156833E+04  0.7818608E-02  0.9151502E-01
         -2   -1    0    0    0  501 -0.00000000000E+00  0.00000000000E+00  0.21307307701E+03  0.21307307701E+03  0.00000000000E+00 0.  1.
          2   -1    0    0  501    0  0.00000000000E+00 -0.00000000000E+00 -0.15701931864E+04  0.15701931864E+04  0.00000000000E+00 0. -1.
         23    2    1    2    0    0  0.22750646185E+03 -0.44187869800E+03 -0.11279524441E+04  0.12359694584E+04  0.91256846060E+02 0.  0.
         13    1    3    3    0    0  0.12918605506E+02 -0.12190210767E+02 -0.97210587608E+02  0.98819987603E+02  0.00000000000E+00 0.  1.
        -13    1    3    3    0    0  0.21458785635E+03 -0.42968848723E+03 -0.10307418565E+04  0.11371494708E+04  0.00000000000E+00 0. -1.
         22    1    1    2    0    0 -0.22750646185E+03  0.44187869800E+03 -0.22916766521E+03  0.54729680495E+03  0.00000000000E+00 0.  1.
<mgrwt>
<rscale>  0 0.11568334E+04</rscale>
<asrwt>0</asrwt>
<pdfrwt beam="1">  1        2 0.24156819E+00 0.11568334E+04</pdfrwt>
<pdfrwt beam="2">  1       -2 0.32780473E-01 0.11568334E+04</pdfrwt>
<totfact> 0.99474616E+01</totfact>
</mgrwt>
</event>
<event>
 6    1  0.2047711E-005  0.1127820E+04  0.7818608E-02  0.9178493E-01
         -2   -1    0    0    0  501 -0.00000000000E+00  0.00000000000E+00  0.46379190762E+03  0.46379190762E+03  0.00000000000E+00 0.  1.
          2   -1    0    0  501    0  0.00000000000E+00 -0.00000000000E+00 -0.68564088308E+03  0.68564088308E+03  0.00000000000E+00 0. -1.
         23    2    1    2    0    0 -0.67073545966E+02  0.54393476892E+03  0.65851796320E+01  0.55567690094E+03  0.91485300700E+02 0.  0.
         11    1    3    3    0    0 -0.60602627425E+02  0.17767319754E+03 -0.17681753795E+02  0.18855526509E+03  0.00000000000E+00 0. -1.
        -11    1    3    3    0    0 -0.64709185412E+01  0.36626157138E+03  0.24266933427E+02  0.36712163585E+03  0.00000000000E+00 0.  1.
         22    1    1    2    0    0  0.67073545966E+02 -0.54393476892E+03 -0.22843415509E+03  0.59375588976E+03  0.00000000000E+00 0. -1.
<mgrwt>
<rscale>  0 0.11278204E+04</rscale>
<asrwt>0</asrwt>
<pdfrwt beam="1">  1        2 0.10548321E+00 0.11278204E+04</pdfrwt>
<pdfrwt beam="2">  1       -2 0.71352602E-01 0.11278204E+04</pdfrwt>
<totfact> 0.74361659E+01</totfact>
</mgrwt>
</event>
<event>
 6    1  0.2047711E-005  0.1347031E+04  0.7818608E-02  0.8993079E-01
          2   -1    0    0  501    0  0.00000000000E+00  0.00000000000E+00  0.51465526021E+03  0.51465526021E+03  0.00000000000E+00 0.  1.
         -2   -1    0    0    0  501 -0.00000000000E+00 -0.00000000000E+00 -0.88141172770E+03  0.88141172770E+03  0.00000000000E+00 0. -1.
         23    2    1    2    0    0  0.17733134953E+03  0.62747142724E+03 -0.24375826818E+02  0.65959478704E+03  0.96458813122E+02 0.  0.
         11    1    3    3    0    0  0.11895574350E+03  0.26955826656E+03 -0.35578774168E+02  0.29677934085E+03  0.00000000000E+00 0. -1.
        -11    1    3    3    0    0  0.58375606036E+02  0.35791316068E+03  0.11202947350E+02  0.36281544620E+03  0.00000000000E+00 0.  1.
         22    1    1    2    0    0 -0.17733134953E+03 -0.62747142724E+03 -0.34238064067E+03  0.73647220086E+03  0.00000000000E+00 0. -1.
<mgrwt>
<rscale>  0 0.13470311E+04</rscale>
<asrwt>0</asrwt>
<pdfrwt beam="1">  1        2 0.79177734E-01 0.13470311E+04</pdfrwt>
<pdfrwt beam="2">  1       -2 0.13560180E+00 0.13470311E+04</pdfrwt>
<totfact> 0.22673102E+01</totfact>
</mgrwt>
</event>
<event>
 6    1  0.2047711E-005  0.1773468E+04  0.7818608E-02  0.8720537E-01
         -2   -1    0    0    0  501 -0.00000000000E+00  0.00000000000E+00  0.19354796960E+03  0.19354796960E+03  0.00000000000E+00 0.  1.
          2   -1    0    0  501    0  0.00000000000E+00 -0.00000000000E+00 -0.40625449485E+04  0.40625449485E+04  0.00000000000E+00 0. -1.
         23    2    1    2    0    0  0.87128722103E+03 -0.10025910657E+03 -0.22129780839E+04  0.23821687226E+04  0.90898366216E+02 0.  0.
         13    1    3    3    0    0  0.30887717441E+03 -0.24411263870E+02 -0.67119904001E+03  0.73926258528E+03  0.00000000000E+00 0.  1.
        -13    1    3    3    0    0  0.56241004661E+03 -0.75847842699E+02 -0.15417790439E+04  0.16429061373E+04  0.00000000000E+00 0. -1.
         22    1    1    2    0    0 -0.87128722103E+03  0.10025910657E+03 -0.16560188950E+04  0.18739241955E+04  0.00000000000E+00 0. -1.
<mgrwt>
<rscale>  0 0.17734682E+04</rscale>
<asrwt>0</asrwt>
<pdfrwt beam="1">  1        2 0.62500685E+00 0.17734682E+04</pdfrwt>
<pdfrwt beam="2">  1       -2 0.29776614E-01 0.17734682E+04</pdfrwt>
<totfact> 0.30404036E+00</totfact>
</mgrwt>
</event>
<event>
 6    1  0.2047711E-005  0.1810449E+04  0.7818608E-02  0.8700762E-01
         -2   -1    0    0    0  501 -0.00000000000E+00  0.00000000000E+00  0.63950300211E+03  0.63950300211E+03  0.00000000000E+00 0.  1.
          2   -1    0    0  501    0  0.00000000000E+00 -0.00000000000E+00 -0.12813568460E+04  0.12813568460E+04  0.00000000000E+00 0. -1.
         23    2    1    2    0    0 -0.39371377186E+03  0.48904953423E+03  0.36637470573E+03  0.73312890663E+03  0.95223881785E+02 0.  0.
         11    1    3    3    0    0 -0.18007865593E+03  0.17838039410E+03  0.10501300454E+03  0.27436402542E+03  0.00000000000E+00 0. -1.
        -11    1    3    3    0    0 -0.21363511592E+03  0.31066914012E+03  0.26136170120E+03  0.45876488121E+03  0.00000000000E+00 0.  1.
         22    1    1    2    0    0  0.39371377186E+03 -0.48904953423E+03 -0.10082285496E+04  0.11877309415E+04  0.00000000000E+00 0. -1.
<mgrwt>
<rscale>  0 0.18104492E+04</rscale>
<asrwt>0</asrwt>
<pdfrwt beam="1">  1        2 0.19713182E+00 0.18104492E+04</pdfrwt>
<pdfrwt beam="2">  1       -2 0.98385078E-01 0.18104492E+04</pdfrwt>
<totfact> 0.13728732E+01</totfact>
</mgrwt>
</event>
<event>
 6    1  0.2047711E-005  0.4801972E+03  0.7818608E-02  0.1019081E+00
         -2   -1    0    0    0  501 -0.00000000000E+00  0.00000000000E+00  0.22022454339E+03  0.22022454339E+03  0.00000000000E+00 0.  1.
          2   -1    0    0  501    0  0.00000000000E+00 -0.00000000000E+00 -0.26176615178E+03  0.26176615178E+03  0.00000000000E+00 0. -1.
         23    2    1    2    0    0  0.12326018020E+02 -0.80893821978E+02 -0.23903864382E+03  0.26821319364E+03  0.90017236425E+02 0.  0.
         13    1    3    3    0    0 -0.74922114673E+01  0.10963621858E+02 -0.96989653476E+02  0.97894469294E+02  0.00000000000E+00 0. -1.
        -13    1    3    3    0    0  0.19818229487E+02 -0.91857443836E+02 -0.14204899034E+03  0.17031872435E+03  0.00000000000E+00 0.  1.
         22    1    1    2    0    0 -0.12326018020E+02  0.80893821978E+02  0.19749703543E+03  0.21377750152E+03  0.00000000000E+00 0.  1.
<mgrwt>
<rscale>  0 0.48019717E+03</rscale>
<asrwt>0</asrwt>
<pdfrwt beam="1">  1        2 0.40271715E-01 0.48019717E+03</pdfrwt>
<pdfrwt beam="2">  1       -2 0.33880699E-01 0.48019717E+03</pdfrwt>
<totfact> 0.10425001E+03</totfact>
</mgrwt>
</event>
<event>
 6    1  0.2047711E-005  0.1289906E+04  0.7818608E-02  0.9037609E-01
         -2   -1    0    0    0  501 -0.00000000000E+00  0.00000000000E+00  0.57130756902E+03  0.57130756902E+03  0.00000000000E+00 0.  1.
          2   -1    0    0  501    0  0.00000000000E+00 -0.00000000000E+00 -0.72809133935E+03  0.72809133935E+03  0.00000000000E+00 0. -1.
         23    2    1    2    0    0  0.60802318795E+03 -0.20559875296E+03 -0.64353273548E+02  0.65093422851E+03  0.87240940631E+02 0.  0.
         13    1    3    3    0    0  0.37569509727E+03 -0.85635888046E+02 -0.21095538590E+02  0.38590845182E+03  0.00000000000E+00 0.  1.
        -13    1    3    3    0    0  0.23232809068E+03 -0.11996286491E+03 -0.43257734957E+02  0.26502577669E+03  0.00000000000E+00 0. -1.
         22    1    1    2    0    0 -0.60802318795E+03  0.20559875296E+03 -0.92430496785E+02  0.64846467987E+03  0.00000000000E+00 0.  1.
<mgrwt>
<rscale>  0 0.12899056E+04</rscale>
<asrwt>0</asrwt>
<pdfrwt beam="1">  1        2 0.11201405E+00 0.12899056E+04</pdfrwt>
<pdfrwt beam="2">  1       -2 0.87893472E-01 0.12899056E+04</pdfrwt>
<totfact> 0.42671996E+01</totfact>
</mgrwt>
</event>
<event>
 6    1  0.2047711E-005  0.2473512E+04  0.7818608E-02  0.8412483E-01
          2   -1    0    0  501    0  0.00000000000E+00  0.00000000000E+00  0.27450564027E+04  0.27450564027E+04  0.00000000000E+00 0. -1.
         -2   -1    0    0    0  501 -0.00000000000E+00 -0.00000000000E+00 -0.55720718204E+03  0.55720718204E+03  0.00000000000E+00 0.  1.
         23    2    1    2    0    0  0.27198365689E+03 -0.78771925192E+02  0.27003622803E+04  0.27167298436E+04  0.92111195407E+02 0.  0.
         13    1    3    3    0    0  0.16564655167E+03 -0.86241368311E+02  0.14837965585E+04  0.14955027852E+04  0.00000000000E+00 0. -1.
        -13    1    3    3    0    0  0.10633710522E+03  0.74694431189E+01  0.12165657218E+04  0.12212270584E+04  0.00000000000E+00 0.  1.
         22    1    1    2    0    0 -0.27198365689E+03  0.78771925192E+02 -0.51251305961E+03  0.58553374120E+03  0.00000000000E+00 0.  1.
<mgrwt>
<rscale>  0 0.24735118E+04</rscale>
<asrwt>0</asrwt>
<pdfrwt beam="1">  1        2 0.42231636E+00 0.24735118E+04</pdfrwt>
<pdfrwt beam="2">  1       -2 0.85724184E-01 0.24735118E+04</pdfrwt>
<totfact> 0.26361599E+00</totfact>
</mgrwt>
</event>
<event>
 6    1  0.2047711E-005  0.2016811E+04  0.7818608E-02  0.8598801E-01
         -1   -1    0    0    0  501 -0.00000000000E+00  0.00000000000E+00  0.57125632037E+03  0.57125632037E+03  0.00000000000E+00 0.  1.
          1   -1    0    0  501    0  0.00000000000E+00 -0.00000000000E+00 -0.17800796792E+04  0.17800796792E+04  0.00000000000E+00 0. -1.
         23    2    1    2    0    0  0.95517918457E+02 -0.56232182861E+03  0.35951264676E+03  0.68250187417E+03  0.10597147439E+03 0.  0.
         11    1    3    3    0    0  0.60384067241E+02 -0.10837941510E+03  0.62814864722E+02  0.13906128298E+03  0.00000000000E+00 0.  1.
        -11    1    3    3    0    0  0.35133851216E+02 -0.45394241351E+03  0.29669778204E+03  0.54344059119E+03  0.00000000000E+00 0. -1.
         22    1    1    2    0    0 -0.95517918457E+02  0.56232182861E+03 -0.15683360056E+04  0.16688341254E+04  0.00000000000E+00 0. -1.
<mgrwt>
<rscale>  0 0.20168111E+04</rscale>
<asrwt>0</asrwt>
<pdfrwt beam="1">  1        1 0.27385841E+00 0.20168111E+04</pdfrwt>
<pdfrwt beam="2">  1       -1 0.87885589E-01 0.20168111E+04</pdfrwt>
<totfact> 0.49552450E+00</totfact>
</mgrwt>
</event>
<event>
 6    1  0.2047711E-005  0.1404548E+04  0.7818608E-02  0.8950533E-01
          2   -1    0    0  501    0  0.00000000000E+00  0.00000000000E+00  0.13812668755E+04  0.13812668755E+04  0.00000000000E+00 0.  1.
         -2   -1    0    0    0  501 -0.00000000000E+00 -0.00000000000E+00 -0.35705527658E+03  0.35705527658E+03  0.00000000000E+00 0. -1.
         23    2    1    2    0    0 -0.50802821696E+03  0.37782399346E+03  0.14609460403E+03  0.65576356431E+03  0.88535753694E+02 0.  0.
         13    1    3    3    0    0 -0.25691672974E+02  0.47630232135E+02  0.20650100203E+02  0.57923464259E+02  0.00000000000E+00 0. -1.
        -13    1    3    3    0    0 -0.48233654399E+03  0.33019376133E+03  0.12544450383E+03  0.59784010005E+03  0.00000000000E+00 0.  1.
         22    1    1    2    0    0  0.50802821696E+03 -0.37782399346E+03  0.87811699491E+03  0.10825585878E+04  0.00000000000E+00 0.  1.
<mgrwt>
<rscale>  0 0.14045478E+04</rscale>
<asrwt>0</asrwt>
<pdfrwt beam="1">  1        2 0.21250259E+00 0.14045478E+04</pdfrwt>
<pdfrwt beam="2">  1       -2 0.54931582E-01 0.14045478E+04</pdfrwt>
<totfact> 0.44979949E+01</totfact>
</mgrwt>
</event>
<event>
 6    1  0.2809002E-005  0.3130760E+04  0.7818608E-02  0.8207346E-01
          2   -1    0    0  501    0  0.00000000000E+00  0.00000000000E+00  0.20751454172E+04  0.20751454172E+04  0.00000000000E+00 0. -1.
         -2   -1    0    0    0  501 -0.00000000000E+00 -0.00000000000E+00 -0.11808399371E+04  0.11808399371E+04  0.00000000000E+00 0.  1.
         23    2    1    2    0    0  0.86248515376E+03  0.93153667860E+03 -0.50260455347E+03  0.13683945974E+04  0.90836187315E+02 0.  0.
         13    1    3    3    0    0  0.44481925727E+03  0.42226238098E+03 -0.26636287872E+03  0.66866947978E+03  0.00000000000E+00 0. -1.
        -13    1    3    3    0    0  0.41766589649E+03  0.50927429761E+03 -0.23624167475E+03  0.69972511759E+03  0.00000000000E+00 0.  1.
         22    1    1    2    0    0 -0.86248515376E+03 -0.93153667860E+03  0.13969100336E+04  0.18875907570E+04  0.00000000000E+00 0.  1.
<mgrwt>
<rscale>  0 0.31307600E+04</rscale>
<asrwt>0</asrwt>
<pdfrwt beam="1">  1        2 0.31925314E+00 0.31307600E+04</pdfrwt>
<pdfrwt beam="2">  1       -2 0.18166768E+00 0.31307600E+04</pdfrwt>
<totfact> 0.90732874E-01</totfact>
</mgrwt>
</event>
<event>
 6    1  0.2047711E-005  0.5465773E+04  0.7818608E-02  0.7760416E-01
          2   -1    0    0  501    0  0.00000000000E+00  0.00000000000E+00  0.33180335204E+04  0.33180335204E+04  0.00000000000E+00 0. -1.
         -2   -1    0    0    0  501 -0.00000000000E+00 -0.00000000000E+00 -0.22509318734E+04  0.22509318734E+04  0.00000000000E+00 0.  1.
         23    2    1    2    0    0  0.18049724696E+04 -0.18574048831E+04 -0.35266406768E+03  0.26153890530E+04  0.89495464378E+02 0.  0.
         13    1    3    3    0    0  0.12911229586E+04 -0.13237806727E+04 -0.29238111017E+03  0.18721326014E+04  0.00000000000E+00 0.  1.
        -13    1    3    3    0    0  0.51384951107E+03 -0.53362421041E+03 -0.60282957508E+02  0.74325645166E+03  0.00000000000E+00 0. -1.
         22    1    1    2    0    0 -0.18049724696E+04  0.18574048831E+04  0.14197657147E+04  0.29535763407E+04  0.00000000000E+00 0. -1.
<mgrwt>
<rscale>  0 0.54657726E+04</rscale>
<asrwt>0</asrwt>
<pdfrwt beam="1">  1        2 0.51046670E+00 0.54657726E+04</pdfrwt>
<pdfrwt beam="2">  1       -2 0.34629721E+00 0.54657726E+04</pdfrwt>
<totfact> 0.12464055E-02</totfact>
</mgrwt>
</event>
<event>
 6    1  0.2047711E-005  0.8772448E+03  0.7818608E-02  0.9454482E-01
         -2   -1    0    0    0  501 -0.00000000000E+00  0.00000000000E+00  0.90988391451E+02  0.90988391451E+02  0.00000000000E+00 0.  1.
          2   -1    0    0  501    0  0.00000000000E+00 -0.00000000000E+00 -0.21144410969E+04  0.21144410969E+04  0.00000000000E+00 0. -1.
         23    2    1    2    0    0 -0.85080205327E+01 -0.41335810625E+03 -0.68310842437E+03  0.80276769653E+03  0.82834441643E+02 0.  0.
         11    1    3    3    0    0 -0.20365747861E+02 -0.62921554035E+02 -0.68789812137E+02  0.95424964773E+02  0.00000000000E+00 0. -1.
        -11    1    3    3    0    0  0.11857727328E+02 -0.35043655222E+03 -0.61431861223E+03  0.70734273175E+03  0.00000000000E+00 0.  1.
         22    1    1    2    0    0  0.85080205327E+01  0.41335810625E+03 -0.13403442811E+04  0.14026617918E+04  0.00000000000E+00 0. -1.
<mgrwt>
<rscale>  0 0.87724476E+03</rscale>
<asrwt>0</asrwt>
<pdfrwt beam="1">  1        2 0.32529864E+00 0.87724476E+03</pdfrwt>
<pdfrwt beam="2">  1       -2 0.13998214E-01 0.87724476E+03</pdfrwt>
<totfact> 0.23068333E+02</totfact>
</mgrwt>
</event>
<event>
 6    1  0.2047711E-005  0.1840042E+04  0.7818608E-02  0.8685291E-01
          1   -1    0    0  501    0  0.00000000000E+00  0.00000000000E+00  0.17686347780E+04  0.17686347780E+04  0.00000000000E+00 0. -1.
         -1   -1    0    0    0  501 -0.00000000000E+00 -0.00000000000E+00 -0.47858317790E+03  0.47858317790E+03  0.00000000000E+00 0.  1.
         23    2    1    2    0    0  0.92969632615E+02  0.43107389336E+03  0.16295877941E+04  0.16906634831E+04  0.91206250598E+02 0.  0.
         13    1    3    3    0    0  0.47946466613E+01  0.22168442727E+03  0.87117235760E+03  0.89894841374E+03  0.00000000000E+00 0. -1.
        -13    1    3    3    0    0  0.88174985954E+02  0.20938946608E+03  0.75841543652E+03  0.79171506934E+03  0.00000000000E+00 0.  1.
         22    1    1    2    0    0 -0.92969632615E+02 -0.43107389336E+03 -0.33953619404E+03  0.55655447279E+03  0.00000000000E+00 0.  1.
<mgrwt>
<rscale>  0 0.18400422E+04</rscale>
<asrwt>0</asrwt>
<pdfrwt beam="1">  1        1 0.27209766E+00 0.18400422E+04</pdfrwt>
<pdfrwt beam="2">  1       -1 0.73628182E-01 0.18400422E+04</pdfrwt>
<totfact> 0.74771852E+00</totfact>
</mgrwt>
</event>
<event>
 6    1  0.2047711E-005  0.1100077E+04  0.7818608E-02  0.9205117E-01
          2   -1    0    0  501    0  0.00000000000E+00  0.00000000000E+00  0.68790001258E+03  0.68790001258E+03  0.00000000000E+00 0. -1.
         -2   -1    0    0    0  501 -0.00000000000E+00 -0.00000000000E+00 -0.43980578570E+03  0.43980578570E+03  0.00000000000E+00 0.  1.
         23    2    1    2    0    0 -0.33577826279E+03  0.91696124037E+02 -0.30613334098E+03  0.47324157626E+03  0.95313934558E+02 0.  0.
         11    1    3    3    0    0 -0.20763271105E+03  0.10071151867E+03 -0.21797819153E+03  0.31744077349E+03  0.00000000000E+00 0.  1.
        -11    1    3    3    0    0 -0.12814555174E+03 -0.90153946321E+01 -0.88155149449E+02  0.15580080278E+03  0.00000000000E+00 0. -1.
         22    1    1    2    0    0  0.33577826279E+03 -0.91696124037E+02  0.55422756785E+03  0.65446422201E+03  0.00000000000E+00 0. -1.
<mgrwt>
<rscale>  0 0.11000771E+04</rscale>
<asrwt>0</asrwt>
<pdfrwt beam="1">  1        2 0.10583077E+00 0.11000771E+04</pdfrwt>
<pdfrwt beam="2">  1       -2 0.67662428E-01 0.11000771E+04</pdfrwt>
<totfact> 0.83294472E+01</totfact>
</mgrwt>
</event>
<event>
 6    1  0.2047711E-005  0.1414817E+04  0.7818608E-02  0.8943162E-01
          2   -1    0    0  501    0  0.00000000000E+00  0.00000000000E+00  0.98879465283E+03  0.98879465283E+03  0.00000000000E+00 0. -1.
         -2   -1    0    0    0  501 -0.00000000000E+00 -0.00000000000E+00 -0.50609812408E+03  0.50609812408E+03  0.00000000000E+00 0.  1.
         23    2    1    2    0    0 -0.34448476559E+03 -0.18215393507E+03  0.86226743131E+03  0.95090391687E+03  0.94145240040E+02 0.  0.
         11    1    3    3    0    0 -0.28932629565E+02 -0.35473034752E+02  0.17060581264E+03  0.17664024614E+03  0.00000000000E+00 0. -1.
        -11    1    3    3    0    0 -0.31555213602E+03 -0.14668090032E+03  0.69166161867E+03  0.77426367073E+03  0.00000000000E+00 0.  1.
         22    1    1    2    0    0  0.34448476559E+03  0.18215393507E+03 -0.37957090256E+03  0.54398886004E+03  0.00000000000E+00 0.  1.
<mgrwt>
<rscale>  0 0.14148175E+04</rscale>
<asrwt>0</asrwt>
<pdfrwt beam="1">  1        2 0.15212225E+00 0.14148175E+04</pdfrwt>
<pdfrwt beam="2">  1       -2 0.77861250E-01 0.14148175E+04</pdfrwt>
<totfact> 0.36588830E+01</totfact>
</mgrwt>
</event>
<event>
 6    1  0.2047711E-005  0.4489419E+04  0.7818608E-02  0.7912492E-01
         -1   -1    0    0    0  501 -0.00000000000E+00  0.00000000000E+00  0.14671646746E+04  0.14671646746E+04  0.00000000000E+00 0.  1.
          1   -1    0    0  501    0  0.00000000000E+00 -0.00000000000E+00 -0.34343259463E+04  0.34343259463E+04  0.00000000000E+00 0. -1.
         23    2    1    2    0    0  0.10024336292E+04 -0.32933862637E+01 -0.31757175527E+04  0.33313019979E+04  0.86642944675E+02 0.  0.
         13    1    3    3    0    0  0.71558020464E+03 -0.25230893546E+02 -0.21568249140E+04  0.22725724052E+04  0.00000000000E+00 0. -1.
        -13    1    3    3    0    0  0.28685342453E+03  0.21937507282E+02 -0.10188926387E+04  0.10587295928E+04  0.00000000000E+00 0.  1.
         22    1    1    2    0    0 -0.10024336292E+04  0.32933862637E+01  0.12085562809E+04  0.15701886229E+04  0.00000000000E+00 0.  1.
<mgrwt>
<rscale>  0 0.44894194E+04</rscale>
<asrwt>0</asrwt>
<pdfrwt beam="1">  1        1 0.52835783E+00 0.44894194E+04</pdfrwt>
<pdfrwt beam="2">  1       -1 0.22571764E+00 0.44894194E+04</pdfrwt>
<totfact> 0.21301872E-02</totfact>
</mgrwt>
</event>
<event>
 6    1  0.2047711E-005  0.1593552E+04  0.7818608E-02  0.8824519E-01
         -2   -1    0    0    0  501 -0.00000000000E+00  0.00000000000E+00  0.26768036651E+03  0.26768036651E+03  0.00000000000E+00 0.  1.
          2   -1    0    0  501    0  0.00000000000E+00 -0.00000000000E+00 -0.23716783501E+04  0.23716783501E+04  0.00000000000E+00 0. -1.
         23    2    1    2    0    0  0.18258180308E+03 -0.70649439383E+03 -0.15745342597E+04  0.17378032395E+04  0.91277165940E+02 0.  0.
         11    1    3    3    0    0  0.91630574455E+02 -0.49137255718E+03 -0.11311208261E+04  0.12366395899E+04  0.00000000000E+00 0. -1.
        -11    1    3    3    0    0  0.90951228627E+02 -0.21512183665E+03 -0.44341343363E+03  0.50116364963E+03  0.00000000000E+00 0.  1.
         22    1    1    2    0    0 -0.18258180308E+03  0.70649439383E+03 -0.52946372388E+03  0.90155547707E+03  0.00000000000E+00 0.  1.
<mgrwt>
<rscale>  0 0.15935517E+04</rscale>
<asrwt>0</asrwt>
<pdfrwt beam="1">  1        2 0.36487358E+00 0.15935517E+04</pdfrwt>
<pdfrwt beam="2">  1       -2 0.41181596E-01 0.15935517E+04</pdfrwt>
<totfact> 0.22146849E+01</totfact>
</mgrwt>
</event>
<event>
 6    1  0.2047711E-005  0.9936004E+03  0.7818608E-02  0.9315592E-01
         -1   -1    0    0    0  501 -0.00000000000E+00  0.00000000000E+00  0.97324150304E+03  0.97324150304E+03  0.00000000000E+00 0.  1.
          1   -1    0    0  501    0  0.00000000000E+00 -0.00000000000E+00 -0.25359630410E+03  0.25359630410E+03  0.00000000000E+00 0. -1.
         23    2    1    2    0    0 -0.25252660077E+03  0.17573421633E+03  0.83791344768E+03  0.89723262280E+03  0.90968317166E+02 0.  0.
         11    1    3    3    0    0 -0.19793003124E+03  0.99349527950E+02  0.50704230427E+03  0.55329786218E+03  0.00000000000E+00 0. -1.
        -11    1    3    3    0    0 -0.54596569531E+02  0.76384688382E+02  0.33087114340E+03  0.34393476062E+03  0.00000000000E+00 0.  1.
         22    1    1    2    0    0  0.25252660077E+03 -0.17573421633E+03 -0.11826824873E+03  0.32960518434E+03  0.00000000000E+00 0. -1.
<mgrwt>
<rscale>  0 0.99360042E+03</rscale>
<asrwt>0</asrwt>
<pdfrwt beam="1">  1        1 0.39014816E-01 0.99360042E+03</pdfrwt>
<pdfrwt beam="2">  1       -1 0.14972946E+00 0.99360042E+03</pdfrwt>
<totfact> 0.38399444E+01</totfact>
</mgrwt>
</event>
<event>
 6    1  0.2047711E-005  0.1275787E+04  0.7818608E-02  0.9048990E-01
         -2   -1    0    0    0  501 -0.00000000000E+00  0.00000000000E+00  0.20856594257E+03  0.20856594257E+03  0.00000000000E+00 0.  1.
          2   -1    0    0  501    0  0.00000000000E+00 -0.00000000000E+00 -0.19509799325E+04  0.19509799325E+04  0.00000000000E+00 0. -1.
         23    2    1    2    0    0 -0.30723193935E+03  0.53365047239E+03 -0.61154479222E+03  0.87189707452E+03  0.83923682160E+02 0.  0.
         11    1    3    3    0    0 -0.20830565287E+03  0.40212294625E+03 -0.49052073658E+03  0.66761119070E+03  0.00000000000E+00 0. -1.
        -11    1    3    3    0    0 -0.98926286479E+02  0.13152752613E+03 -0.12102405564E+03  0.20428588382E+03  0.00000000000E+00 0.  1.
         22    1    1    2    0    0  0.30723193935E+03 -0.53365047239E+03 -0.11308691977E+04  0.12876488006E+04  0.00000000000E+00 0.  1.
<mgrwt>
<rscale>  0 0.12757868E+04</rscale>
<asrwt>0</asrwt>
<pdfrwt beam="1">  1        2 0.30015075E+00 0.12757868E+04</pdfrwt>
<pdfrwt beam="2">  1       -2 0.32087069E-01 0.12757868E+04</pdfrwt>
<totfact> 0.63169071E+01</totfact>
</mgrwt>
</event>
<event>
 6    1  0.2047711E-005  0.6187208E+04  0.7818608E-02  0.7667614E-01
          2   -1    0    0  501    0  0.00000000000E+00  0.00000000000E+00  0.38252124835E+04  0.38252124835E+04  0.00000000000E+00 0. -1.
         -2   -1    0    0    0  501 -0.00000000000E+00 -0.00000000000E+00 -0.25019226240E+04  0.25019226240E+04  0.00000000000E+00 0.  1.
         23    2    1    2    0    0  0.90903500399E+03  0.94399708173E+03 -0.22031234479E+04  0.25650790283E+04  0.91664419950E+02 0.  0.
         11    1    3    3    0    0  0.83503388830E+03  0.83110277187E+03 -0.19522785178E+04  0.22802203453E+04  0.00000000000E+00 0.  1.
        -11    1    3    3    0    0  0.74001115691E+02  0.11289430986E+03 -0.25084493008E+03  0.28485868298E+03  0.00000000000E+00 0. -1.
         22    1    1    2    0    0 -0.90903500399E+03 -0.94399708173E+03  0.35264133074E+04  0.37620560792E+04  0.00000000000E+00 0. -1.
<mgrwt>
<rscale>  0 0.61872080E+04</rscale>
<asrwt>0</asrwt>
<pdfrwt beam="1">  1        2 0.58849423E+00 0.61872080E+04</pdfrwt>
<pdfrwt beam="2">  1       -2 0.38491117E+00 0.61872080E+04</pdfrwt>
<totfact> 0.28913160E-03</totfact>
</mgrwt>
</event>
<event>
 6    1  0.2047711E-005  0.3822666E+04  0.7818608E-02  0.8041308E-01
          2   -1    0    0  501    0  0.00000000000E+00  0.00000000000E+00  0.35850649723E+04  0.35850649723E+04  0.00000000000E+00 0. -1.
         -2   -1    0    0    0  501 -0.00000000000E+00 -0.00000000000E+00 -0.10190037124E+04  0.10190037124E+04  0.00000000000E+00 0.  1.
         23    2    1    2    0    0  0.13844468128E+04  0.54330069229E+03 -0.16015284188E+03  0.14985716314E+04  0.90550438386E+02 0.  0.
         11    1    3    3    0    0  0.75936137396E+03  0.31390970244E+03 -0.13120342735E+03  0.83209574984E+03  0.00000000000E+00 0.  1.
        -11    1    3    3    0    0  0.62508543881E+03  0.22939098985E+03 -0.28949414530E+02  0.66647588152E+03  0.00000000000E+00 0. -1.
         22    1    1    2    0    0 -0.13844468128E+04 -0.54330069229E+03  0.27262141018E+04  0.31054970534E+04  0.00000000000E+00 0. -1.
<mgrwt>
<rscale>  0 0.38226664E+04</rscale>
<asrwt>0</asrwt>
<pdfrwt beam="1">  1        2 0.55154845E+00 0.38226664E+04</pdfrwt>
<pdfrwt beam="2">  1       -2 0.15676980E+00 0.38226664E+04</pdfrwt>
<totfact> 0.15047935E-01</totfact>
</mgrwt>
</event>
<event>
 6    1  0.2047711E-005  0.1248383E+04  0.7818608E-02  0.9071530E-01
          2   -1    0    0  501    0  0.00000000000E+00  0.00000000000E+00  0.10568500182E+04  0.10568500182E+04  0.00000000000E+00 0.  1.
         -2   -1    0    0    0  501 -0.00000000000E+00 -0.00000000000E+00 -0.36865688105E+03  0.36865688105E+03  0.00000000000E+00 0. -1.
         23    2    1    2    0    0 -0.55299929288E+03 -0.16766034536E+03  0.60506846237E+03  0.84170220510E+03  0.91850686319E+02 0.  0.
         13    1    3    3    0    0 -0.18426434564E+03 -0.15416346596E+02  0.16627576998E+03  0.24867377123E+03  0.00000000000E+00 0. -1.
        -13    1    3    3    0    0 -0.36873494724E+03 -0.15224399877E+03  0.43879269240E+03  0.59302843387E+03  0.00000000000E+00 0.  1.
         22    1    1    2    0    0  0.55299929288E+03  0.16766034536E+03  0.83124674765E+02  0.58380469413E+03  0.00000000000E+00 0. -1.
<mgrwt>
<rscale>  0 0.12483830E+04</rscale>
<asrwt>0</asrwt>
<pdfrwt beam="1">  1        2 0.16259231E+00 0.12483830E+04</pdfrwt>
<pdfrwt beam="2">  1       -2 0.56716444E-01 0.12483830E+04</pdfrwt>
<totfact> 0.66471484E+01</totfact>
</mgrwt>
</event>
<event>
 6    1  0.2047711E-005  0.3131958E+04  0.7818608E-02  0.8207022E-01
          2   -1    0    0  501    0  0.00000000000E+00  0.00000000000E+00  0.15766184516E+04  0.15766184516E+04  0.00000000000E+00 0.  1.
         -2   -1    0    0    0  501 -0.00000000000E+00 -0.00000000000E+00 -0.15554109029E+04  0.15554109029E+04  0.00000000000E+00 0. -1.
         23    2    1    2    0    0 -0.12963656941E+04  0.87212646700E+03  0.95070501356E+02  0.15678604624E+04  0.89327722785E+02 0.  0.
         11    1    3    3    0    0 -0.73186623232E+03  0.44078889375E+03  0.39762005938E+02  0.85528009914E+03  0.00000000000E+00 0.  1.
        -11    1    3    3    0    0 -0.56449946179E+03  0.43133757325E+03  0.55308495418E+02  0.71258036327E+03  0.00000000000E+00 0. -1.
         22    1    1    2    0    0  0.12963656941E+04 -0.87212646700E+03 -0.73862952644E+02  0.15641688921E+04  0.00000000000E+00 0. -1.
<mgrwt>
<rscale>  0 0.31319576E+04</rscale>
<asrwt>0</asrwt>
<pdfrwt beam="1">  1        2 0.24255669E+00 0.31319576E+04</pdfrwt>
<pdfrwt beam="2">  1       -2 0.23929398E+00 0.31319576E+04</pdfrwt>
<totfact> 0.72828464E-01</totfact>
</mgrwt>
</event>
<event>
 6    1  0.2047711E-005  0.1410158E+04  0.7818608E-02  0.8946498E-01
         -2   -1    0    0    0  501 -0.00000000000E+00  0.00000000000E+00  0.25873749474E+03  0.25873749474E+03  0.00000000000E+00 0.  1.
          2   -1    0    0  501    0  0.00000000000E+00 -0.00000000000E+00 -0.19213943005E+04  0.19213943005E+04  0.00000000000E+00 0. -1.
         23    2    1    2    0    0 -0.28916296569E+03 -0.37558877552E+03 -0.16355519540E+04  0.17053509805E+04  0.92247620458E+02 0.  0.
         11    1    3    3    0    0 -0.15904477307E+03 -0.18075734886E+03 -0.67549667126E+03  0.71712217362E+03  0.00000000000E+00 0.  1.
        -11    1    3    3    0    0 -0.13011819262E+03 -0.19483142666E+03 -0.96005528275E+03  0.98822880691E+03  0.00000000000E+00 0. -1.
         22    1    1    2    0    0  0.28916296569E+03  0.37558877552E+03 -0.27104851746E+02  0.47478081471E+03  0.00000000000E+00 0.  1.
<mgrwt>
<rscale>  0 0.14101585E+04</rscale>
<asrwt>0</asrwt>
<pdfrwt beam="1">  1        2 0.29559912E+00 0.14101585E+04</pdfrwt>
<pdfrwt beam="2">  1       -2 0.39805768E-01 0.14101585E+04</pdfrwt>
<totfact> 0.42921533E+01</totfact>
</mgrwt>
</event>
<event>
 6    1  0.2047711E-005  0.5061694E+04  0.7818608E-02  0.7819060E-01
          2   -1    0    0  501    0  0.00000000000E+00  0.00000000000E+00  0.34439155830E+04  0.34439155830E+04  0.00000000000E+00 0.  1.
         -2   -1    0    0    0  501 -0.00000000000E+00 -0.00000000000E+00 -0.18598562111E+04  0.18598562111E+04  0.00000000000E+00 0. -1.
         23    2    1    2    0    0 -0.44088289617E+02 -0.22459475483E+04 -0.42723534764E+03  0.22885552819E+04  0.93440189894E+02 0.  0.
         11    1    3    3    0    0  0.34668754928E+01 -0.31537713220E+03 -0.28650057948E+02  0.31669477508E+03  0.00000000000E+00 0. -1.
        -11    1    3    3    0    0 -0.47555165110E+02 -0.19305704161E+04 -0.39858528969E+03  0.19718605068E+04  0.00000000000E+00 0.  1.
         22    1    1    2    0    0  0.44088289617E+02  0.22459475483E+04  0.20112947195E+04  0.30152165122E+04  0.00000000000E+00 0.  1.
<mgrwt>
<rscale>  0 0.50616945E+04</rscale>
<asrwt>0</asrwt>
<pdfrwt beam="1">  1        2 0.52983317E+00 0.50616945E+04</pdfrwt>
<pdfrwt beam="2">  1       -2 0.28613173E+00 0.50616945E+04</pdfrwt>
<totfact> 0.24850910E-02</totfact>
</mgrwt>
</event>
<event>
 6    1  0.2047711E-005  0.2870229E+04  0.7818608E-02  0.8281791E-01
         -2   -1    0    0    0  501 -0.00000000000E+00  0.00000000000E+00  0.67960769101E+03  0.67960769101E+03  0.00000000000E+00 0.  1.
          2   -1    0    0  501    0  0.00000000000E+00 -0.00000000000E+00 -0.30305028494E+04  0.30305028494E+04  0.00000000000E+00 0. -1.
         23    2    1    2    0    0  0.42472382656E+03  0.26851119163E+03 -0.29121912885E+04  0.29567567493E+04  0.95203912165E+02 0.  0.
         11    1    3    3    0    0  0.15727825955E+03  0.47017401784E+02 -0.92599866344E+03  0.94043639428E+03  0.00000000000E+00 0.  1.
        -11    1    3    3    0    0  0.26744556701E+03  0.22149378985E+03 -0.19861926251E+04  0.20163203550E+04  0.00000000000E+00 0. -1.
         22    1    1    2    0    0 -0.42472382656E+03 -0.26851119163E+03  0.56129613011E+03  0.75335379110E+03  0.00000000000E+00 0.  1.
<mgrwt>
<rscale>  0 0.28702286E+04</rscale>
<asrwt>0</asrwt>
<pdfrwt beam="1">  1        2 0.46623120E+00 0.28702286E+04</pdfrwt>
<pdfrwt beam="2">  1       -2 0.10455503E+00 0.28702286E+04</pdfrwt>
<totfact> 0.10697836E+00</totfact>
</mgrwt>
</event>
<event>
 6    1  0.2047711E-005  0.1086209E+04  0.7818608E-02  0.9218738E-01
          2   -1    0    0  501    0  0.00000000000E+00  0.00000000000E+00  0.76516513894E+03  0.76516513894E+03  0.00000000000E+00 0. -1.
         -2   -1    0    0    0  501 -0.00000000000E+00 -0.00000000000E+00 -0.38548898779E+03  0.38548898779E+03  0.00000000000E+00 0.  1.
         23    2    1    2    0    0  0.18661345393E+03  0.50566517473E+03  0.17093248832E+03  0.57264394784E+03  0.90450678888E+02 0.  0.
         11    1    3    3    0    0  0.13038972191E+03  0.22608965759E+03  0.92215231911E+02  0.27680618101E+03  0.00000000000E+00 0. -1.
        -11    1    3    3    0    0  0.56223732027E+02  0.27957551715E+03  0.78717256404E+02  0.29583776684E+03  0.00000000000E+00 0.  1.
         22    1    1    2    0    0 -0.18661345393E+03 -0.50566517473E+03  0.20874366284E+03  0.57801017889E+03  0.00000000000E+00 0.  1.
<mgrwt>
<rscale>  0 0.10862094E+04</rscale>
<asrwt>0</asrwt>
<pdfrwt beam="1">  1        2 0.11771771E+00 0.10862094E+04</pdfrwt>
<pdfrwt beam="2">  1       -2 0.59305998E-01 0.10862094E+04</pdfrwt>
<totfact> 0.96397670E+01</totfact>
</mgrwt>
</event>
<event>
 6    1  0.2047711E-005  0.1802026E+04  0.7818608E-02  0.8705223E-01
         -2   -1    0    0    0  501 -0.00000000000E+00  0.00000000000E+00  0.82803973417E+03  0.82803973417E+03  0.00000000000E+00 0.  1.
          2   -1    0    0  501    0  0.00000000000E+00 -0.00000000000E+00 -0.98041747689E+03  0.98041747689E+03  0.00000000000E+00 0. -1.
         23    2    1    2    0    0  0.21678974928E+03 -0.50068828421E+03 -0.79317672738E+03  0.96684572582E+03  0.89301642472E+02 0.  0.
         13    1    3    3    0    0  0.87500642627E+02 -0.19211642482E+03 -0.38497758710E+03  0.43905902304E+03  0.00000000000E+00 0. -1.
        -13    1    3    3    0    0  0.12928910665E+03 -0.30857185939E+03 -0.40819914028E+03  0.52778670278E+03  0.00000000000E+00 0.  1.
         22    1    1    2    0    0 -0.21678974928E+03  0.50068828421E+03  0.64079898467E+03  0.84161148524E+03  0.00000000000E+00 0.  1.
<mgrwt>
<rscale>  0 0.18020262E+04</rscale>
<asrwt>0</asrwt>
<pdfrwt beam="1">  1        2 0.15083346E+00 0.18020262E+04</pdfrwt>
<pdfrwt beam="2">  1       -2 0.12739073E+00 0.18020262E+04</pdfrwt>
<totfact> 0.11190698E+01</totfact>
</mgrwt>
</event>
<event>
 6    1  0.2047711E-005  0.3868055E+04  0.7818608E-02  0.8031706E-01
         -2   -1    0    0    0  501 -0.00000000000E+00  0.00000000000E+00  0.13313816459E+04  0.13313816459E+04  0.00000000000E+00 0.  1.
          2   -1    0    0  501    0  0.00000000000E+00 -0.00000000000E+00 -0.28094593344E+04  0.28094593344E+04  0.00000000000E+00 0. -1.
         23    2    1    2    0    0 -0.13415762053E+04  0.47902671096E+03  0.65967258234E+03  0.15719366370E+04  0.80768622528E+02 0.  0.
         11    1    3    3    0    0 -0.10056206907E+04  0.39311731896E+03  0.51364919665E+03  0.11956795964E+04  0.00000000000E+00 0.  1.
        -11    1    3    3    0    0 -0.33595551465E+03  0.85909391992E+02  0.14602338570E+03  0.37625704063E+03  0.00000000000E+00 0. -1.
         22    1    1    2    0    0  0.13415762053E+04 -0.47902671096E+03 -0.21377502708E+04  0.25689043433E+04  0.00000000000E+00 0. -1.
<mgrwt>
<rscale>  0 0.38680551E+04</rscale>
<asrwt>0</asrwt>
<pdfrwt beam="1">  1        2 0.43222451E+00 0.38680551E+04</pdfrwt>
<pdfrwt beam="2">  1       -2 0.20482795E+00 0.38680551E+04</pdfrwt>
<totfact> 0.22497597E-01</totfact>
</mgrwt>
</event>
<event>
 6    1  0.2047711E-005  0.3089045E+04  0.7818608E-02  0.8218751E-01
          1   -1    0    0  501    0  0.00000000000E+00  0.00000000000E+00  0.26856849094E+04  0.26856849094E+04  0.00000000000E+00 0. -1.
         -1   -1    0    0    0  501 -0.00000000000E+00 -0.00000000000E+00 -0.88824646532E+03  0.88824646532E+03  0.00000000000E+00 0.  1.
         23    2    1    2    0    0  0.59559805480E+03 -0.11091971691E+04  0.19319543071E+04  0.23077758076E+04  0.91248728712E+02 0.  0.
         13    1    3    3    0    0  0.23803701306E+03 -0.53506087779E+03  0.92150760419E+03  0.10918461554E+04  0.00000000000E+00 0. -1.
        -13    1    3    3    0    0  0.35756104173E+03 -0.57413629132E+03  0.10104467029E+04  0.12159296522E+04  0.00000000000E+00 0.  1.
         22    1    1    2    0    0 -0.59559805480E+03  0.11091971691E+04 -0.13451586302E+03  0.12661555672E+04  0.00000000000E+00 0.  1.
<mgrwt>
<rscale>  0 0.30890452E+04</rscale>
<asrwt>0</asrwt>
<pdfrwt beam="1">  1        1 0.41318229E+00 0.30890452E+04</pdfrwt>
<pdfrwt beam="2">  1       -1 0.13665330E+00 0.30890452E+04</pdfrwt>
<totfact> 0.37855310E-01</totfact>
</mgrwt>
</event>
<event>
 6    1  0.2047711E-005  0.2556268E+04  0.7818608E-02  0.8383210E-01
          2   -1    0    0  501    0  0.00000000000E+00  0.00000000000E+00  0.16288686526E+04  0.16288686526E+04  0.00000000000E+00 0. -1.
         -2   -1    0    0    0  501 -0.00000000000E+00 -0.00000000000E+00 -0.10029207388E+04  0.10029207388E+04  0.00000000000E+00 0.  1.
         23    2    1    2    0    0 -0.99586583335E+03  0.74531243430E+03  0.60759205809E+03  0.13877731856E+04  0.97503449842E+02 0.  0.
         13    1    3    3    0    0 -0.22745421728E+03  0.18457035726E+03  0.18820487182E+03  0.34817052074E+03  0.00000000000E+00 0. -1.
        -13    1    3    3    0    0 -0.76841161607E+03  0.56074207704E+03  0.41938718627E+03  0.10396026648E+04  0.00000000000E+00 0.  1.
         22    1    1    2    0    0  0.99586583335E+03 -0.74531243430E+03  0.18355855720E+02  0.12440162058E+04  0.00000000000E+00 0.  1.
<mgrwt>
<rscale>  0 0.25562677E+04</rscale>
<asrwt>0</asrwt>
<pdfrwt beam="1">  1        2 0.25059518E+00 0.25562677E+04</pdfrwt>
<pdfrwt beam="2">  1       -2 0.15429550E+00 0.25562677E+04</pdfrwt>
<totfact> 0.26512497E+00</totfact>
</mgrwt>
</event>
<event>
 6    1  0.2047711E-005  0.4560470E+04  0.7818608E-02  0.7900135E-01
         -2   -1    0    0    0  501 -0.00000000000E+00  0.00000000000E+00  0.14643065681E+04  0.14643065681E+04  0.00000000000E+00 0.  1.
          2   -1    0    0  501    0  0.00000000000E+00 -0.00000000000E+00 -0.35508085926E+04  0.35508085926E+04  0.00000000000E+00 0. -1.
         23    2    1    2    0    0  0.15768608764E+03 -0.21906332433E+04 -0.17139766991E+04  0.27874450714E+04  0.91624192106E+02 0.  0.
         13    1    3    3    0    0  0.51915831429E+02 -0.13258452857E+04 -0.10487357564E+04  0.16912739760E+04  0.00000000000E+00 0. -1.
        -13    1    3    3    0    0  0.10577025621E+03 -0.86478795756E+03 -0.66524094271E+03  0.10961710955E+04  0.00000000000E+00 0.  1.
         22    1    1    2    0    0 -0.15768608764E+03  0.21906332433E+04 -0.37252532538E+03  0.22276700893E+04  0.00000000000E+00 0.  1.
<mgrwt>
<rscale>  0 0.45604703E+04</rscale>
<asrwt>0</asrwt>
<pdfrwt beam="1">  1        2 0.54627824E+00 0.45604703E+04</pdfrwt>
<pdfrwt beam="2">  1       -2 0.22527793E+00 0.45604703E+04</pdfrwt>
<totfact> 0.51558182E-02</totfact>
</mgrwt>
</event>
<event>
 6    1  0.2047711E-005  0.9462165E+03  0.7818608E-02  0.9369584E-01
         -2   -1    0    0    0  501 -0.00000000000E+00  0.00000000000E+00  0.11708871016E+03  0.11708871016E+03  0.00000000000E+00 0.  1.
          2   -1    0    0  501    0  0.00000000000E+00 -0.00000000000E+00 -0.19116397106E+04  0.19116397106E+04  0.00000000000E+00 0. -1.
         23    2    1    2    0    0  0.30114859548E+03 -0.32459995720E+03 -0.57385715589E+03  0.73021039204E+03  0.88541360399E+02 0.  0.
         11    1    3    3    0    0  0.23053501776E+03 -0.18810898602E+03 -0.39151066636E+03  0.49174382244E+03  0.00000000000E+00 0. -1.
        -11    1    3    3    0    0  0.70613577720E+02 -0.13649097118E+03 -0.18234648953E+03  0.23846656960E+03  0.00000000000E+00 0.  1.
         22    1    1    2    0    0 -0.30114859548E+03  0.32459995720E+03 -0.12206938445E+04  0.12985180287E+04  0.00000000000E+00 0. -1.
<mgrwt>
<rscale>  0 0.94621652E+03</rscale>
<asrwt>0</asrwt>
<pdfrwt beam="1">  1        2 0.29409841E+00 0.94621652E+03</pdfrwt>
<pdfrwt beam="2">  1       -2 0.18013648E-01 0.94621652E+03</pdfrwt>
<totfact> 0.19285874E+02</totfact>
</mgrwt>
</event>
<event>
 6    1  0.2047711E-005  0.9359799E+03  0.7818608E-02  0.9381690E-01
         -2   -1    0    0    0  501 -0.00000000000E+00  0.00000000000E+00  0.12204417520E+03  0.12204417520E+03  0.00000000000E+00 0.  1.
          2   -1    0    0  501    0  0.00000000000E+00 -0.00000000000E+00 -0.17945517787E+04  0.17945517787E+04  0.00000000000E+00 0. -1.
         23    2    1    2    0    0 -0.26411100362E+03  0.80460051206E+02 -0.80962994541E+02  0.30128091206E+03  0.89368559423E+02 0.  0.
         11    1    3    3    0    0 -0.90967728117E+01  0.28878261627E+01  0.15170997677E+02  0.17923447940E+02  0.00000000000E+00 0. -1.
        -11    1    3    3    0    0 -0.25501423081E+03  0.77572225044E+02 -0.96133992218E+02  0.28335746412E+03  0.00000000000E+00 0.  1.
         22    1    1    2    0    0  0.26411100362E+03 -0.80460051206E+02 -0.15915446090E+04  0.16153150419E+04  0.00000000000E+00 0. -1.
<mgrwt>
<rscale>  0 0.93597990E+03</rscale>
<asrwt>0</asrwt>
<pdfrwt beam="1">  1        2 0.27608490E+00 0.93597990E+03</pdfrwt>
<pdfrwt beam="2">  1       -2 0.18776026E-01 0.93597990E+03</pdfrwt>
<totfact> 0.20823196E+02</totfact>
</mgrwt>
</event>
<event>
 6    1  0.2047711E-005  0.2074745E+04  0.7818608E-02  0.8572451E-01
         -2   -1    0    0    0  501 -0.00000000000E+00  0.00000000000E+00  0.10221029474E+04  0.10221029474E+04  0.00000000000E+00 0.  1.
          2   -1    0    0  501    0  0.00000000000E+00 -0.00000000000E+00 -0.10528701767E+04  0.10528701767E+04  0.00000000000E+00 0. -1.
         23    2    1    2    0    0 -0.17657434773E+03 -0.30179775604E+03 -0.99002445024E+03  0.10539761595E+04  0.91961659586E+02 0.  0.
         13    1    3    3    0    0 -0.10696415253E+03 -0.97133697242E+02 -0.43319735230E+03  0.45665767387E+03  0.00000000000E+00 0. -1.
        -13    1    3    3    0    0 -0.69610195204E+02 -0.20466405879E+03 -0.55682709794E+03  0.59731848560E+03  0.00000000000E+00 0.  1.
         22    1    1    2    0    0  0.17657434773E+03  0.30179775604E+03  0.95925722097E+03  0.10209969646E+04  0.00000000000E+00 0.  1.
<mgrwt>
<rscale>  0 0.20747450E+04</rscale>
<asrwt>0</asrwt>
<pdfrwt beam="1">  1        2 0.16198003E+00 0.20747450E+04</pdfrwt>
<pdfrwt beam="2">  1       -2 0.15724661E+00 0.20747450E+04</pdfrwt>
<totfact> 0.56838368E+00</totfact>
</mgrwt>
</event>
<event>
 6    1  0.2047711E-005  0.9739988E+03  0.7818608E-02  0.9337531E-01
         -2   -1    0    0    0  501 -0.00000000000E+00  0.00000000000E+00  0.10206640140E+04  0.10206640140E+04  0.00000000000E+00 0.  1.
          2   -1    0    0  501    0  0.00000000000E+00 -0.00000000000E+00 -0.23236679132E+03  0.23236679132E+03  0.00000000000E+00 0. -1.
         23    2    1    2    0    0 -0.35011526265E+03  0.29748993601E+03  0.58849261032E+03  0.75202896669E+03  0.90238878394E+02 0.  0.
         11    1    3    3    0    0 -0.15658005931E+03  0.14840986811E+03  0.34645873698E+03  0.40813779580E+03  0.00000000000E+00 0. -1.
        -11    1    3    3    0    0 -0.19353520334E+03  0.14908006791E+03  0.24203387334E+03  0.34389117090E+03  0.00000000000E+00 0.  1.
         22    1    1    2    0    0  0.35011526265E+03 -0.29748993601E+03  0.19980461233E+03  0.50100183860E+03  0.00000000000E+00 0. -1.
<mgrwt>
<rscale>  0 0.97399881E+03</rscale>
<asrwt>0</asrwt>
<pdfrwt beam="1">  1        2 0.35748738E-01 0.97399881E+03</pdfrwt>
<pdfrwt beam="2">  1       -2 0.15702523E+00 0.97399881E+03</pdfrwt>
<totfact> 0.38685054E+01</totfact>
</mgrwt>
</event>
<event>
 6    1  0.2047711E-005  0.2448009E+04  0.7818608E-02  0.8421745E-01
          2   -1    0    0  501    0  0.00000000000E+00  0.00000000000E+00  0.30330270931E+04  0.30330270931E+04  0.00000000000E+00 0. -1.
         -2   -1    0    0    0  501 -0.00000000000E+00 -0.00000000000E+00 -0.49395780212E+03  0.49395780212E+03  0.00000000000E+00 0.  1.
         23    2    1    2    0    0 -0.47931284822E+03  0.10836543890E+04  0.17034097291E+04  0.20770281563E+04  0.91616676976E+02 0.  0.
         13    1    3    3    0    0 -0.19891222511E+03  0.52999040436E+03  0.86902782143E+03  0.10371428332E+04  0.00000000000E+00 0.  1.
        -13    1    3    3    0    0 -0.28040062311E+03  0.55366398468E+03  0.83438190771E+03  0.10398853231E+04  0.00000000000E+00 0. -1.
         22    1    1    2    0    0  0.47931284822E+03 -0.10836543890E+04  0.83565956183E+03  0.14499567389E+04  0.00000000000E+00 0. -1.
<mgrwt>
<rscale>  0 0.24480093E+04</rscale>
<asrwt>0</asrwt>
<pdfrwt beam="1">  1        2 0.46661954E+00 0.24480093E+04</pdfrwt>
<pdfrwt beam="2">  1       -2 0.75993510E-01 0.24480093E+04</pdfrwt>
<totfact> 0.23063497E+00</totfact>
</mgrwt>
</event>
<event>
 6    1  0.2047711E-005  0.1102321E+04  0.7818608E-02  0.9202932E-01
         -2   -1    0    0    0  501 -0.00000000000E+00  0.00000000000E+00  0.88377570289E+02  0.88377570289E+02  0.00000000000E+00 0.  1.
          2   -1    0    0  501    0  0.00000000000E+00 -0.00000000000E+00 -0.34372760798E+04  0.34372760798E+04  0.00000000000E+00 0. -1.
         23    2    1    2    0    0  0.17419484460E+03 -0.45397870622E+03 -0.88117648745E+03  0.10104811932E+04  0.90331225179E+02 0.  0.
         11    1    3    3    0    0  0.16839051586E+03 -0.45034209120E+03 -0.88096934733E+03  0.10036285946E+04  0.00000000000E+00 0. -1.
        -11    1    3    3    0    0  0.58043287460E+01 -0.36366150246E+01 -0.20714011230E+00  0.68525986352E+01  0.00000000000E+00 0.  1.
         22    1    1    2    0    0 -0.17419484460E+03  0.45397870622E+03 -0.24677220220E+04  0.25151724568E+04  0.00000000000E+00 0. -1.
<mgrwt>
<rscale>  0 0.11023214E+04</rscale>
<asrwt>0</asrwt>
<pdfrwt beam="1">  1        2 0.52881177E+00 0.11023214E+04</pdfrwt>
<pdfrwt beam="2">  1       -2 0.13596548E-01 0.11023214E+04</pdfrwt>
<totfact> 0.38095670E+01</totfact>
</mgrwt>
</event>
<event>
 6    1  0.2047711E-005  0.5932295E+04  0.7818608E-02  0.7698853E-01
          2   -1    0    0  501    0  0.00000000000E+00  0.00000000000E+00  0.34297092747E+04  0.34297092747E+04  0.00000000000E+00 0. -1.
         -2   -1    0    0    0  501 -0.00000000000E+00 -0.00000000000E+00 -0.25652408743E+04  0.25652408743E+04  0.00000000000E+00 0.  1.
         23    2    1    2    0    0 -0.22033217066E+04 -0.39735158795E+03  0.23975030765E+04  0.32815187154E+04  0.88483051593E+02 0.  0.
         11    1    3    3    0    0 -0.47644035497E+03 -0.11366673402E+03  0.48911845335E+03  0.69220834991E+03  0.00000000000E+00 0.  1.
        -11    1    3    3    0    0 -0.17268813516E+04 -0.28368485392E+03  0.19083846231E+04  0.25893103655E+04  0.00000000000E+00 0. -1.
         22    1    1    2    0    0  0.22033217066E+04  0.39735158795E+03 -0.15330346760E+04  0.27134314336E+04  0.00000000000E+00 0.  1.
<mgrwt>
<rscale>  0 0.59322948E+04</rscale>
<asrwt>0</asrwt>
<pdfrwt beam="1">  1        2 0.52764758E+00 0.59322948E+04</pdfrwt>
<pdfrwt beam="2">  1       -2 0.39465244E+00 0.59322948E+04</pdfrwt>
<totfact> 0.49476477E-03</totfact>
</mgrwt>
</event>
<event>
 6    1  0.2047711E-005  0.3360938E+04  0.7818608E-02  0.8147560E-01
         -2   -1    0    0    0  501 -0.00000000000E+00  0.00000000000E+00  0.10499172218E+04  0.10499172218E+04  0.00000000000E+00 0.  1.
          2   -1    0    0  501    0  0.00000000000E+00 -0.00000000000E+00 -0.26897136450E+04  0.26897136450E+04  0.00000000000E+00 0. -1.
         23    2    1    2    0    0 -0.90678354288E+03 -0.13485246125E+04 -0.12913889353E+04  0.20776552948E+04  0.90504793418E+02 0.  0.
         11    1    3    3    0    0 -0.58306021072E+03 -0.85425889892E+03 -0.87617197259E+03  0.13555053675E+04  0.00000000000E+00 0. -1.
        -11    1    3    3    0    0 -0.32372333216E+03 -0.49426571360E+03 -0.41521696270E+03  0.72214992733E+03  0.00000000000E+00 0.  1.
         22    1    1    2    0    0  0.90678354288E+03  0.13485246125E+04 -0.34840748796E+03  0.16619755720E+04  0.00000000000E+00 0.  1.
<mgrwt>
<rscale>  0 0.33609384E+04</rscale>
<asrwt>0</asrwt>
<pdfrwt beam="1">  1        2 0.41380209E+00 0.33609384E+04</pdfrwt>
<pdfrwt beam="2">  1       -2 0.16152573E+00 0.33609384E+04</pdfrwt>
<totfact> 0.54920113E-01</totfact>
</mgrwt>
</event>
<event>
 6    1  0.2047711E-005  0.1609367E+04  0.7818608E-02  0.8814814E-01
          2   -1    0    0  501    0  0.00000000000E+00  0.00000000000E+00  0.11025424890E+04  0.11025424890E+04  0.00000000000E+00 0.  1.
         -2   -1    0    0    0  501 -0.00000000000E+00 -0.00000000000E+00 -0.58729271223E+03  0.58729271223E+03  0.00000000000E+00 0. -1.
         23    2    1    2    0    0  0.67714939481E+03 -0.35593180038E+03  0.54671732713E+01  0.77054359775E+03  0.92134665805E+02 0.  0.
         13    1    3    3    0    0  0.33959312416E+03 -0.21451332342E+03  0.36049239444E+02  0.40328526327E+03  0.00000000000E+00 0. -1.
        -13    1    3    3    0    0  0.33755627065E+03 -0.14141847696E+03 -0.30582066172E+02  0.36725833448E+03  0.00000000000E+00 0.  1.
         22    1    1    2    0    0 -0.67714939481E+03  0.35593180038E+03  0.50978260354E+03  0.91929160351E+03  0.00000000000E+00 0.  1.
<mgrwt>
<rscale>  0 0.16093665E+04</rscale>
<asrwt>0</asrwt>
<pdfrwt beam="1">  1        2 0.16962192E+00 0.16093665E+04</pdfrwt>
<pdfrwt beam="2">  1       -2 0.90352725E-01 0.16093665E+04</pdfrwt>
<totfact> 0.21789289E+01</totfact>
</mgrwt>
</event>
<event>
 6    1  0.2047711E-005  0.7321406E+03  0.7818608E-02  0.9663793E-01
          2   -1    0    0  501    0  0.00000000000E+00  0.00000000000E+00  0.10665666315E+04  0.10665666315E+04  0.00000000000E+00 0. -1.
         -2   -1    0    0    0  501 -0.00000000000E+00 -0.00000000000E+00 -0.12564377158E+03  0.12564377158E+03  0.00000000000E+00 0.  1.
         23    2    1    2    0    0 -0.31818695801E+03  0.33054462174E+02  0.74815791825E+03  0.81872163421E+03  0.90715522233E+02 0.  0.
         11    1    3    3    0    0 -0.25447112600E+03  0.38417555710E+01  0.65049758986E+03  0.69851086425E+03  0.00000000000E+00 0. -1.
        -11    1    3    3    0    0 -0.63715832004E+02  0.29212706603E+02  0.97660328386E+02  0.12021076996E+03  0.00000000000E+00 0.  1.
         22    1    1    2    0    0  0.31818695801E+03 -0.33054462174E+02  0.19276494163E+03  0.37348876882E+03  0.00000000000E+00 0.  1.
<mgrwt>
<rscale>  0 0.73214057E+03</rscale>
<asrwt>0</asrwt>
<pdfrwt beam="1">  1        2 0.16408717E+00 0.73214057E+03</pdfrwt>
<pdfrwt beam="2">  1       -2 0.19329812E-01 0.73214057E+03</pdfrwt>
<totfact> 0.52131076E+02</totfact>
</mgrwt>
</event>
<event>
 6    1  0.2047711E-005  0.9373355E+03  0.7818608E-02  0.9380077E-01
          2   -1    0    0  501    0  0.00000000000E+00  0.00000000000E+00  0.41244547274E+04  0.41244547274E+04  0.00000000000E+00 0. -1.
         -2   -1    0    0    0  501 -0.00000000000E+00 -0.00000000000E+00 -0.53255395068E+02  0.53255395068E+02  0.00000000000E+00 0.  1.
         23    2    1    2    0    0 -0.16261904821E+03 -0.45510343713E+02  0.39821203119E+04  0.39867881015E+04  0.93172105980E+02 0.  0.
         11    1    3    3    0    0 -0.79568451360E+02 -0.65839747486E+01  0.27909459414E+04  0.27920877018E+04  0.00000000000E+00 0.  1.
        -11    1    3    3    0    0 -0.83050596854E+02 -0.38926368964E+02  0.11911743705E+04  0.11947003996E+04  0.00000000000E+00 0. -1.
         22    1    1    2    0    0  0.16261904821E+03  0.45510343713E+02  0.89079020457E+02  0.19092202103E+03  0.00000000000E+00 0.  1.
<mgrwt>
<rscale>  0 0.93733551E+03</rscale>
<asrwt>0</asrwt>
<pdfrwt beam="1">  1        2 0.63453125E+00 0.93733551E+03</pdfrwt>
<pdfrwt beam="2">  1       -2 0.81931409E-02 0.93733551E+03</pdfrwt>
<totfact> 0.27493269E+01</totfact>
</mgrwt>
</event>
<event>
 6    1  0.2047711E-005  0.1634664E+04  0.7818608E-02  0.8799531E-01
          2   -1    0    0  501    0  0.00000000000E+00  0.00000000000E+00  0.56266201746E+03  0.56266201746E+03  0.00000000000E+00 0. -1.
         -2   -1    0    0    0  501 -0.00000000000E+00 -0.00000000000E+00 -0.11872695855E+04  0.11872695855E+04  0.00000000000E+00 0.  1.
         23    2    1    2    0    0 -0.11663606065E+03  0.28558735533E+03  0.49390518605E+03  0.58965797608E+03  0.92682726433E+02 0.  0.
         13    1    3    3    0    0 -0.97975068845E+02  0.22054579019E+03  0.30454247561E+03  0.38856875728E+03  0.00000000000E+00 0.  1.
        -13    1    3    3    0    0 -0.18660991806E+02  0.65041565137E+02  0.18936271044E+03  0.20108921880E+03  0.00000000000E+00 0. -1.
         22    1    1    2    0    0  0.11663606065E+03 -0.28558735533E+03 -0.11185127541E+04  0.11602736269E+04  0.00000000000E+00 0.  1.
<mgrwt>
<rscale>  0 0.16346639E+04</rscale>
<asrwt>0</asrwt>
<pdfrwt beam="1">  1        2 0.86563388E-01 0.16346639E+04</pdfrwt>
<pdfrwt beam="2">  1       -2 0.18265686E+00 0.16346639E+04</pdfrwt>
<totfact> 0.88997417E+00</totfact>
</mgrwt>
</event>
<event>
 6    1  0.2047711E-005  0.1394232E+04  0.7818608E-02  0.8958004E-01
          2   -1    0    0  501    0  0.00000000000E+00  0.00000000000E+00  0.60113944289E+03  0.60113944289E+03  0.00000000000E+00 0. -1.
         -2   -1    0    0    0  501 -0.00000000000E+00 -0.00000000000E+00 -0.80841573077E+03  0.80841573077E+03  0.00000000000E+00 0.  1.
         23    2    1    2    0    0 -0.66226717122E+03  0.15747686353E+03  0.32852622362E+02  0.68771124167E+03  0.92036343355E+02 0.  0.
         13    1    3    3    0    0 -0.39928759879E+02  0.12930042464E+02  0.24812841837E+02  0.48756219948E+02  0.00000000000E+00 0.  1.
        -13    1    3    3    0    0 -0.62233841134E+03  0.14454682107E+03  0.80397805250E+01  0.63895502172E+03  0.00000000000E+00 0. -1.
         22    1    1    2    0    0  0.66226717122E+03 -0.15747686353E+03 -0.24012891024E+03  0.72184393199E+03  0.00000000000E+00 0.  1.
<mgrwt>
<rscale>  0 0.13942318E+04</rscale>
<asrwt>0</asrwt>
<pdfrwt beam="1">  1        2 0.92482991E-01 0.13942318E+04</pdfrwt>
<pdfrwt beam="2">  1       -2 0.12437165E+00 0.13942318E+04</pdfrwt>
<totfact> 0.23389319E+01</totfact>
</mgrwt>
</event>
<event>
 6    1  0.2047711E-005  0.3698882E+04  0.7818608E-02  0.8068210E-01
         -2   -1    0    0    0  501 -0.00000000000E+00  0.00000000000E+00  0.14582510954E+04  0.14582510954E+04  0.00000000000E+00 0.  1.
          2   -1    0    0  501    0  0.00000000000E+00 -0.00000000000E+00 -0.23455714666E+04  0.23455714666E+04  0.00000000000E+00 0. -1.
         23    2    1    2    0    0 -0.21192768805E+03  0.71281871341E+03  0.12961515680E+04  0.14971857088E+04  0.92370429415E+02 0.  0.
         13    1    3    3    0    0 -0.74730354108E+02  0.34454614990E+03  0.68860727092E+03  0.77361272533E+03  0.00000000000E+00 0.  1.
        -13    1    3    3    0    0 -0.13719733394E+03  0.36827256351E+03  0.60754429712E+03  0.72357298349E+03  0.00000000000E+00 0. -1.
         22    1    1    2    0    0  0.21192768805E+03 -0.71281871341E+03 -0.21834719392E+04  0.23066368532E+04  0.00000000000E+00 0. -1.
<mgrwt>
<rscale>  0 0.36988821E+04</rscale>
<asrwt>0</asrwt>
<pdfrwt beam="1">  1        2 0.36085715E+00 0.36988821E+04</pdfrwt>
<pdfrwt beam="2">  1       -2 0.22434632E+00 0.36988821E+04</pdfrwt>
<totfact> 0.32035930E-01</totfact>
</mgrwt>
</event>
<event>
 6    1  0.2047711E-005  0.3358709E+04  0.7818608E-02  0.8148115E-01
         -2   -1    0    0    0  501 -0.00000000000E+00  0.00000000000E+00  0.17191669201E+04  0.17191669201E+04  0.00000000000E+00 0.  1.
          2   -1    0    0  501    0  0.00000000000E+00 -0.00000000000E+00 -0.16404640694E+04  0.16404640694E+04  0.00000000000E+00 0. -1.
         23    2    1    2    0    0 -0.99632160802E+02  0.14127318746E+04 -0.86119798606E+03  0.16598805667E+04  0.88338030918E+02 0.  0.
         13    1    3    3    0    0 -0.69283844263E+02  0.94790228059E+03 -0.62584954544E+03  0.11379835843E+04  0.00000000000E+00 0. -1.
        -13    1    3    3    0    0 -0.30348316539E+02  0.46482959396E+03 -0.23534844062E+03  0.52189698240E+03  0.00000000000E+00 0.  1.
         22    1    1    2    0    0  0.99632160802E+02 -0.14127318746E+04  0.93990083676E+03  0.16997504228E+04  0.00000000000E+00 0.  1.
<mgrwt>
<rscale>  0 0.33587090E+04</rscale>
<asrwt>0</asrwt>
<pdfrwt beam="1">  1        2 0.25237909E+00 0.33587090E+04</pdfrwt>
<pdfrwt beam="2">  1       -2 0.26448722E+00 0.33587090E+04</pdfrwt>
<totfact> 0.46087882E-01</totfact>
</mgrwt>
</event>
<event>
 6    1  0.2047711E-005  0.1111289E+04  0.7818608E-02  0.9194258E-01
         -2   -1    0    0    0  501 -0.00000000000E+00  0.00000000000E+00  0.12748809346E+03  0.12748809346E+03  0.00000000000E+00 0.  1.
          2   -1    0    0  501    0  0.00000000000E+00 -0.00000000000E+00 -0.24217226984E+04  0.24217226984E+04  0.00000000000E+00 0. -1.
         23    2    1    2    0    0 -0.30839470118E+03  0.13274084768E+03 -0.21597215058E+04  0.21875186601E+04  0.90074865217E+02 0.  0.
         13    1    3    3    0    0 -0.24203144042E+03  0.13730291312E+03 -0.16216644330E+04  0.16453652608E+04  0.00000000000E+00 0.  1.
        -13    1    3    3    0    0 -0.66363260763E+02 -0.45620654402E+01 -0.53805707272E+03  0.54215339925E+03  0.00000000000E+00 0. -1.
         22    1    1    2    0    0  0.30839470118E+03 -0.13274084768E+03 -0.13451309920E+03  0.36169213181E+03  0.00000000000E+00 0.  1.
<mgrwt>
<rscale>  0 0.11112890E+04</rscale>
<asrwt>0</asrwt>
<pdfrwt beam="1">  1        2 0.37257274E+00 0.11112890E+04</pdfrwt>
<pdfrwt beam="2">  1       -2 0.19613552E-01 0.11112890E+04</pdfrwt>
<totfact> 0.85399958E+01</totfact>
</mgrwt>
</event>
<event>
 6    1  0.2289459E-005  0.5381669E+04  0.7818608E-02  0.7772185E-01
         -2   -1    0    0    0  501 -0.00000000000E+00  0.00000000000E+00  0.21931790629E+04  0.21931790629E+04  0.00000000000E+00 0.  1.
          2   -1    0    0  501    0  0.00000000000E+00 -0.00000000000E+00 -0.33014131499E+04  0.33014131499E+04  0.00000000000E+00 0. -1.
         23    2    1    2    0    0 -0.12561759806E+04  0.50084963095E+01  0.18744069940E+04  0.22582129091E+04  0.90115393662E+02 0.  0.
         11    1    3    3    0    0 -0.50277654344E+03  0.39593542362E+02  0.70984496990E+03  0.87076505587E+03  0.00000000000E+00 0. -1.
        -11    1    3    3    0    0 -0.75339943718E+03 -0.34585046052E+02  0.11645620241E+04  0.13874478532E+04  0.00000000000E+00 0.  1.
         22    1    1    2    0    0  0.12561759806E+04 -0.50084963095E+01 -0.29826410810E+04  0.32363793037E+04  0.00000000000E+00 0. -1.
<mgrwt>
<rscale>  0 0.53816690E+04</rscale>
<asrwt>0</asrwt>
<pdfrwt beam="1">  1        2 0.50790971E+00 0.53816690E+04</pdfrwt>
<pdfrwt beam="2">  1       -2 0.33741217E+00 0.53816690E+04</pdfrwt>
<totfact> 0.14634784E-02</totfact>
</mgrwt>
</event>
<event>
 6    1  0.2047711E-005  0.1483305E+04  0.7818608E-02  0.8895631E-01
         -2   -1    0    0    0  501 -0.00000000000E+00  0.00000000000E+00  0.60094464930E+03  0.60094464930E+03  0.00000000000E+00 0.  1.
          2   -1    0    0  501    0  0.00000000000E+00 -0.00000000000E+00 -0.91530678095E+03  0.91530678095E+03  0.00000000000E+00 0. -1.
         23    2    1    2    0    0  0.73309945532E+03  0.37638058872E+01 -0.63762626912E+02  0.74149399118E+03  0.91097139026E+02 0.  0.
         11    1    3    3    0    0  0.31850516907E+03 -0.39448253108E+02 -0.89312276266E+01  0.32106303777E+03  0.00000000000E+00 0.  1.
        -11    1    3    3    0    0  0.41459428626E+03  0.43212058995E+02 -0.54831399286E+02  0.42043095341E+03  0.00000000000E+00 0. -1.
         22    1    1    2    0    0 -0.73309945532E+03 -0.37638058872E+01 -0.25059950474E+03  0.77475743907E+03  0.00000000000E+00 0. -1.
<mgrwt>
<rscale>  0 0.14833054E+04</rscale>
<asrwt>0</asrwt>
<pdfrwt beam="1">  1        2 0.14081643E+00 0.14833054E+04</pdfrwt>
<pdfrwt beam="2">  1       -2 0.92453023E-01 0.14833054E+04</pdfrwt>
<totfact> 0.27511532E+01</totfact>
</mgrwt>
</event>
<event>
 6    1  0.2047711E-005  0.2711502E+04  0.7818608E-02  0.8331282E-01
         -2   -1    0    0    0  501 -0.00000000000E+00  0.00000000000E+00  0.92475284462E+03  0.92475284462E+03  0.00000000000E+00 0. -1.
          2   -1    0    0  501    0  0.00000000000E+00 -0.00000000000E+00 -0.19876244624E+04  0.19876244624E+04  0.00000000000E+00 0.  1.
         23    2    1    2    0    0 -0.32696280204E+03 -0.12548242921E+04 -0.95081390930E+03  0.16108222340E+04  0.95981775758E+02 0.  0.
         13    1    3    3    0    0 -0.27369334582E+03 -0.87721568692E+03 -0.67087895892E+03  0.11377583164E+04  0.00000000000E+00 0. -1.
        -13    1    3    3    0    0 -0.53269456218E+02 -0.37760860521E+03 -0.27993495038E+03  0.47306391760E+03  0.00000000000E+00 0.  1.
         22    1    1    2    0    0  0.32696280204E+03  0.12548242921E+04 -0.11205770843E+03  0.13015550730E+04  0.00000000000E+00 0. -1.
<mgrwt>
<rscale>  0 0.27115024E+04</rscale>
<asrwt>0</asrwt>
<pdfrwt beam="1">  1        2 0.30578837E+00 0.27115024E+04</pdfrwt>
<pdfrwt beam="2">  1       -2 0.14226967E+00 0.27115024E+04</pdfrwt>
<totfact> 0.20492216E+00</totfact>
</mgrwt>
</event>
<event>
 6    1  0.2047711E-005  0.2922266E+04  0.7818608E-02  0.8266283E-01
          2   -1    0    0  501    0  0.00000000000E+00  0.00000000000E+00  0.19611442030E+04  0.19611442030E+04  0.00000000000E+00 0. -1.
         -2   -1    0    0    0  501 -0.00000000000E+00 -0.00000000000E+00 -0.10886043252E+04  0.10886043252E+04  0.00000000000E+00 0.  1.
         23    2    1    2    0    0 -0.94403610804E+03  0.38522814465E+03 -0.65349260471E+03  0.12144338320E+04  0.90509950731E+02 0.  0.
         11    1    3    3    0    0 -0.75114203237E+03  0.26843670044E+03 -0.52434488148E+03  0.95457329193E+03  0.00000000000E+00 0. -1.
        -11    1    3    3    0    0 -0.19289407567E+03  0.11679144420E+03 -0.12914772323E+03  0.25986054007E+03  0.00000000000E+00 0.  1.
         22    1    1    2    0    0  0.94403610804E+03 -0.38522814465E+03  0.15260324824E+04  0.18353146962E+04  0.00000000000E+00 0. -1.
<mgrwt>
<rscale>  0 0.29222663E+04</rscale>
<asrwt>0</asrwt>
<pdfrwt beam="1">  1        2 0.30171449E+00 0.29222663E+04</pdfrwt>
<pdfrwt beam="2">  1       -2 0.16747759E+00 0.29222663E+04</pdfrwt>
<totfact> 0.13441785E+00</totfact>
</mgrwt>
</event>
<event>
 6    1  0.2047711E-005  0.1891661E+04  0.7818608E-02  0.8659019E-01
         -4   -1    0    0    0  501 -0.00000000000E+00  0.00000000000E+00  0.13299736992E+04  0.13299736992E+04  0.00000000000E+00 0.  1.
          4   -1    0    0  501    0  0.00000000000E+00 -0.00000000000E+00 -0.67264106572E+03  0.67264106572E+03  0.00000000000E+00 0. -1.
         23    2    1    2    0    0 -0.20486878914E+03  0.62462134617E+03 -0.38779612425E+03  0.76794186609E+03  0.85004875447E+02 0.  0.
         13    1    3    3    0    0 -0.11954837210E+03  0.39656291083E+03 -0.28959223504E+03  0.50538858130E+03  0.00000000000E+00 0. -1.
        -13    1    3    3    0    0 -0.85320417038E+02  0.22805843535E+03 -0.98203889214E+02  0.26255328479E+03  0.00000000000E+00 0.  1.
         22    1    1    2    0    0  0.20486878914E+03 -0.62462134617E+03  0.10451287577E+04  0.12346728988E+04  0.00000000000E+00 0.  1.
<mgrwt>
<rscale>  0 0.18916606E+04</rscale>
<asrwt>0</asrwt>
<pdfrwt beam="1">  1        4 0.10348324E+00 0.18916606E+04</pdfrwt>
<pdfrwt beam="2">  1       -4 0.20461134E+00 0.18916606E+04</pdfrwt>
<totfact> 0.17494209E-01</totfact>
</mgrwt>
</event>
<event>
 6    1  0.2047711E-005  0.3990120E+04  0.7818608E-02  0.8006543E-01
          2   -1    0    0  501    0  0.00000000000E+00  0.00000000000E+00  0.23943911169E+04  0.23943911169E+04  0.00000000000E+00 0. -1.
         -2   -1    0    0    0  501 -0.00000000000E+00 -0.00000000000E+00 -0.16623282057E+04  0.16623282057E+04  0.00000000000E+00 0.  1.
         23    2    1    2    0    0  0.79540452412E+03  0.58092310897E+03 -0.13964380937E+04  0.17113714714E+04  0.92805969363E+02 0.  0.
         11    1    3    3    0    0  0.17000381454E+03  0.11728342072E+03 -0.23149822992E+03  0.31023882444E+03  0.00000000000E+00 0. -1.
        -11    1    3    3    0    0  0.62540070958E+03  0.46363968825E+03 -0.11649398638E+04  0.14011326469E+04  0.00000000000E+00 0.  1.
         22    1    1    2    0    0 -0.79540452412E+03 -0.58092310897E+03  0.21285010049E+04  0.23453478513E+04  0.00000000000E+00 0. -1.
<mgrwt>
<rscale>  0 0.39901197E+04</rscale>
<asrwt>0</asrwt>
<pdfrwt beam="1">  1        2 0.36836786E+00 0.39901197E+04</pdfrwt>
<pdfrwt beam="2">  1       -2 0.25574280E+00 0.39901197E+04</pdfrwt>
<totfact> 0.18734809E-01</totfact>
</mgrwt>
</event>
<event>
 6    1  0.2047711E-005  0.2899730E+04  0.7818608E-02  0.8272958E-01
          2   -1    0    0  501    0  0.00000000000E+00  0.00000000000E+00  0.15464937789E+04  0.15464937789E+04  0.00000000000E+00 0. -1.
         -2   -1    0    0    0  501 -0.00000000000E+00 -0.00000000000E+00 -0.13592737634E+04  0.13592737634E+04  0.00000000000E+00 0.  1.
         23    2    1    2    0    0 -0.17283565768E+03 -0.11491696278E+04  0.95956970478E+03  0.15104227675E+04  0.10069717149E+03 0.  0.
         13    1    3    3    0    0 -0.81631985978E+02 -0.25766654868E+03  0.22062805036E+03  0.34890194618E+03  0.00000000000E+00 0.  1.
        -13    1    3    3    0    0 -0.91203671703E+02 -0.89150307911E+03  0.73894165442E+03  0.11615208213E+04  0.00000000000E+00 0. -1.
         22    1    1    2    0    0  0.17283565768E+03  0.11491696278E+04 -0.77234968926E+03  0.13953447748E+04  0.00000000000E+00 0. -1.
<mgrwt>
<rscale>  0 0.28997299E+04</rscale>
<asrwt>0</asrwt>
<pdfrwt beam="1">  1        2 0.23792212E+00 0.28997299E+04</pdfrwt>
<pdfrwt beam="2">  1       -2 0.20911904E+00 0.28997299E+04</pdfrwt>
<totfact> 0.11967006E+00</totfact>
</mgrwt>
</event>
<event>
 6    1  0.2047711E-005  0.5324290E+04  0.7818608E-02  0.7780341E-01
          2   -1    0    0  501    0  0.00000000000E+00  0.00000000000E+00  0.39731618782E+04  0.39731618782E+04  0.00000000000E+00 0. -1.
         -2   -1    0    0    0  501 -0.00000000000E+00 -0.00000000000E+00 -0.17837221895E+04  0.17837221895E+04  0.00000000000E+00 0.  1.
         23    2    1    2    0    0 -0.24850544053E+04 -0.64882779742E+03  0.18490112544E+04  0.31660609501E+04  0.92878485162E+02 0.  0.
         13    1    3    3    0    0 -0.10299449204E+03 -0.43341334408E+02  0.93321621983E+02  0.14558592579E+03  0.00000000000E+00 0.  1.
        -13    1    3    3    0    0 -0.23820599133E+04 -0.60548646301E+03  0.17556896324E+04  0.30204750243E+04  0.00000000000E+00 0. -1.
         22    1    1    2    0    0  0.24850544053E+04  0.64882779742E+03  0.34042843430E+03  0.25908231176E+04  0.00000000000E+00 0.  1.
<mgrwt>
<rscale>  0 0.53242904E+04</rscale>
<asrwt>0</asrwt>
<pdfrwt beam="1">  1        2 0.61125567E+00 0.53242904E+04</pdfrwt>
<pdfrwt beam="2">  1       -2 0.27441880E+00 0.53242904E+04</pdfrwt>
<totfact> 0.11567594E-02</totfact>
</mgrwt>
</event>
<event>
 6    1  0.2047711E-005  0.1763681E+04  0.7818608E-02  0.8725856E-01
          2   -1    0    0  501    0  0.00000000000E+00  0.00000000000E+00  0.30150237627E+04  0.30150237627E+04  0.00000000000E+00 0.  1.
         -2   -1    0    0    0  501 -0.00000000000E+00 -0.00000000000E+00 -0.25792255072E+03  0.25792255072E+03  0.00000000000E+00 0. -1.
         23    2    1    2    0    0  0.60555874707E+03  0.39405280393E+03  0.23119368953E+04  0.24243296289E+04  0.10170021305E+03 0.  0.
         11    1    3    3    0    0  0.36251640838E+03  0.29245302445E+03  0.15151704325E+04  0.15851461627E+04  0.00000000000E+00 0. -1.
        -11    1    3    3    0    0  0.24304233870E+03  0.10159977948E+03  0.79676646279E+03  0.83918346612E+03  0.00000000000E+00 0.  1.
         22    1    1    2    0    0 -0.60555874707E+03 -0.39405280393E+03  0.44516431674E+03  0.84861668457E+03  0.00000000000E+00 0. -1.
<mgrwt>
<rscale>  0 0.17636809E+04</rscale>
<asrwt>0</asrwt>
<pdfrwt beam="1">  1        2 0.46384978E+00 0.17636809E+04</pdfrwt>
<pdfrwt beam="2">  1       -2 0.39680395E-01 0.17636809E+04</pdfrwt>
<totfact> 0.97332234E+00</totfact>
</mgrwt>
</event>
<event>
 6    1  0.2047711E-005  0.3717480E+04  0.7818608E-02  0.8064099E-01
          2   -1    0    0  501    0  0.00000000000E+00  0.00000000000E+00  0.18229488925E+04  0.18229488925E+04  0.00000000000E+00 0. -1.
         -2   -1    0    0    0  501 -0.00000000000E+00 -0.00000000000E+00 -0.18952338136E+04  0.18952338136E+04  0.00000000000E+00 0.  1.
         23    2    1    2    0    0  0.12167512442E+04  0.13728848031E+04 -0.32829592921E+03  0.18659305879E+04  0.92857250691E+02 0.  0.
         13    1    3    3    0    0  0.90424558134E+03  0.10297613739E+04 -0.20451831576E+03  0.13856032261E+04  0.00000000000E+00 0. -1.
        -13    1    3    3    0    0  0.31250566288E+03  0.34312342915E+03 -0.12377761345E+03  0.48032736186E+03  0.00000000000E+00 0.  1.
         22    1    1    2    0    0 -0.12167512442E+04 -0.13728848031E+04  0.25601100810E+03  0.18522521181E+04  0.00000000000E+00 0.  1.
<mgrwt>
<rscale>  0 0.37174800E+04</rscale>
<asrwt>0</asrwt>
<pdfrwt beam="1">  1        2 0.28045368E+00 0.37174800E+04</pdfrwt>
<pdfrwt beam="2">  1       -2 0.29157443E+00 0.37174800E+04</pdfrwt>
<totfact> 0.24207550E-01</totfact>
</mgrwt>
</event>
<event>
 6    1  0.2047711E-005  0.2982537E+04  0.7818608E-02  0.8248735E-01
          1   -1    0    0  501    0  0.00000000000E+00  0.00000000000E+00  0.86090206212E+03  0.86090206212E+03  0.00000000000E+00 0. -1.
         -1   -1    0    0    0  501 -0.00000000000E+00 -0.00000000000E+00 -0.25832001498E+04  0.25832001498E+04  0.00000000000E+00 0.  1.
         23    2    1    2    0    0 -0.57228557463E+01  0.14369582431E+04 -0.40678035003E+03  0.14959059535E+04  0.85922203470E+02 0.  0.
         13    1    3    3    0    0  0.99400200363E+01  0.11451785727E+04 -0.35638062796E+03  0.11993914787E+04  0.00000000000E+00 0.  1.
        -13    1    3    3    0    0 -0.15662875783E+02  0.29177967038E+03 -0.50399722070E+02  0.29651447471E+03  0.00000000000E+00 0. -1.
         22    1    1    2    0    0  0.57228557463E+01 -0.14369582431E+04 -0.13155177376E+04  0.19481962584E+04  0.00000000000E+00 0.  1.
<mgrwt>
<rscale>  0 0.29825374E+04</rscale>
<asrwt>0</asrwt>
<pdfrwt beam="1">  1        1 0.13244647E+00 0.29825374E+04</pdfrwt>
<pdfrwt beam="2">  1       -1 0.39741540E+00 0.29825374E+04</pdfrwt>
<totfact> 0.12444337E-01</totfact>
</mgrwt>
</event>
<event>
 6    1  0.2047711E-005  0.4563931E+04  0.7818608E-02  0.7899539E-01
         -2   -1    0    0    0  501 -0.00000000000E+00  0.00000000000E+00  0.18623398029E+04  0.18623398029E+04  0.00000000000E+00 0.  1.
          2   -1    0    0  501    0  0.00000000000E+00 -0.00000000000E+00 -0.27961418340E+04  0.27961418340E+04  0.00000000000E+00 0. -1.
         23    2    1    2    0    0 -0.11532870621E+04 -0.17567269671E+04 -0.13726025427E+04  0.25116918072E+04  0.91636835144E+02 0.  0.
         11    1    3    3    0    0 -0.10347774508E+04 -0.16226400771E+04 -0.12543219337E+04  0.22971827759E+04  0.00000000000E+00 0. -1.
        -11    1    3    3    0    0 -0.11850961136E+03 -0.13408688994E+03 -0.11828060895E+03  0.21450903126E+03  0.00000000000E+00 0.  1.
         22    1    1    2    0    0  0.11532870621E+04  0.17567269671E+04  0.43880051156E+03  0.21467898298E+04  0.00000000000E+00 0.  1.
<mgrwt>
<rscale>  0 0.45639309E+04</rscale>
<asrwt>0</asrwt>
<pdfrwt beam="1">  1        2 0.43017566E+00 0.45639309E+04</pdfrwt>
<pdfrwt beam="2">  1       -2 0.28651382E+00 0.45639309E+04</pdfrwt>
<totfact> 0.67333040E-02</totfact>
</mgrwt>
</event>
<event>
 6    1  0.2047711E-005  0.9649718E+03  0.7818608E-02  0.9347820E-01
         -2   -1    0    0    0  501 -0.00000000000E+00  0.00000000000E+00  0.32549615909E+03  0.32549615909E+03  0.00000000000E+00 0.  1.
          2   -1    0    0  501    0  0.00000000000E+00 -0.00000000000E+00 -0.71519317603E+03  0.71519317603E+03  0.00000000000E+00 0. -1.
         23    2    1    2    0    0 -0.38446758768E+03 -0.27207117243E+03 -0.28555143943E+03  0.55831567274E+03  0.91316575823E+02 0.  0.
         11    1    3    3    0    0 -0.28103268626E+03 -0.17557796700E+03 -0.24192231142E+03  0.41028453299E+03  0.00000000000E+00 0. -1.
        -11    1    3    3    0    0 -0.10343490142E+03 -0.96493205427E+02 -0.43629128005E+02  0.14803113975E+03  0.00000000000E+00 0.  1.
         22    1    1    2    0    0  0.38446758768E+03  0.27207117243E+03 -0.10414557751E+03  0.48237366239E+03  0.00000000000E+00 0.  1.
<mgrwt>
<rscale>  0 0.96497178E+03</rscale>
<asrwt>0</asrwt>
<pdfrwt beam="1">  1        2 0.11002972E+00 0.96497178E+03</pdfrwt>
<pdfrwt beam="2">  1       -2 0.50076333E-01 0.96497178E+03</pdfrwt>
<totfact> 0.15043736E+02</totfact>
</mgrwt>
</event>
<event>
 6    1  0.2047711E-005  0.3593663E+04  0.7818608E-02  0.8091945E-01
          2   -1    0    0  501    0  0.00000000000E+00  0.00000000000E+00  0.42487694942E+04  0.42487694942E+04  0.00000000000E+00 0. -1.
         -2   -1    0    0    0  501 -0.00000000000E+00 -0.00000000000E+00 -0.75989140232E+03  0.75989140232E+03  0.00000000000E+00 0.  1.
         23    2    1    2    0    0  0.10113655192E+04 -0.65960274779E+03 -0.10668668554E+03  0.12157699059E+04  0.93693205291E+02 0.  0.
         13    1    3    3    0    0  0.46267979530E+03 -0.24718941284E+03 -0.38043286287E+02  0.52594913293E+03  0.00000000000E+00 0.  1.
        -13    1    3    3    0    0  0.54868572395E+03 -0.41241333496E+03 -0.68643399255E+02  0.68982077294E+03  0.00000000000E+00 0. -1.
         22    1    1    2    0    0 -0.10113655192E+04  0.65960274779E+03  0.35955647774E+04  0.37928909907E+04  0.00000000000E+00 0. -1.
<mgrwt>
<rscale>  0 0.35936630E+04</rscale>
<asrwt>0</asrwt>
<pdfrwt beam="1">  1        2 0.65365683E+00 0.35936630E+04</pdfrwt>
<pdfrwt beam="2">  1       -2 0.11690637E+00 0.35936630E+04</pdfrwt>
<totfact> 0.96952422E-02</totfact>
</mgrwt>
</event>
<event>
 6    1  0.2047711E-005  0.3160958E+04  0.7818608E-02  0.8199205E-01
         -2   -1    0    0    0  501 -0.00000000000E+00  0.00000000000E+00  0.48925764875E+04  0.48925764875E+04  0.00000000000E+00 0.  1.
          2   -1    0    0  501    0  0.00000000000E+00 -0.00000000000E+00 -0.51055174401E+03  0.51055174401E+03  0.00000000000E+00 0. -1.
         23    2    1    2    0    0  0.70359548123E+03 -0.32607760459E+03 -0.15892237051E+03  0.79644027836E+03  0.87678912660E+02 0.  0.
         13    1    3    3    0    0  0.32816337703E+02 -0.14203672751E+01 -0.19788049591E+02  0.38347051647E+02  0.00000000000E+00 0.  1.
        -13    1    3    3    0    0  0.67077914353E+03 -0.32465723731E+03 -0.13913432092E+03  0.75809322672E+03  0.00000000000E+00 0. -1.
         22    1    1    2    0    0 -0.70359548123E+03  0.32607760459E+03  0.45409471140E+04  0.46066879532E+04  0.00000000000E+00 0.  1.
<mgrwt>
<rscale>  0 0.31609577E+04</rscale>
<asrwt>0</asrwt>
<pdfrwt beam="1">  1        2 0.78546425E-01 0.31609577E+04</pdfrwt>
<pdfrwt beam="2">  1       -2 0.75270404E+00 0.31609577E+04</pdfrwt>
<totfact> 0.70631818E-03</totfact>
</mgrwt>
</event>
<event>
 6    1  0.2047711E-005  0.2364488E+04  0.7818608E-02  0.8452920E-01
         -2   -1    0    0    0  501 -0.00000000000E+00  0.00000000000E+00  0.14202802341E+04  0.14202802341E+04  0.00000000000E+00 0.  1.
          2   -1    0    0  501    0  0.00000000000E+00 -0.00000000000E+00 -0.98410213461E+03  0.98410213461E+03  0.00000000000E+00 0. -1.
         23    2    1    2    0    0  0.95037960685E+03  0.62336347431E+03  0.54362152150E+03  0.12627399084E+04  0.84760246211E+02 0.  0.
         13    1    3    3    0    0  0.60126580100E+03  0.42888487783E+03  0.32111204947E+03  0.80534200821E+03  0.00000000000E+00 0. -1.
        -13    1    3    3    0    0  0.34911380586E+03  0.19447859648E+03  0.22250947203E+03  0.45739790016E+03  0.00000000000E+00 0.  1.
         22    1    1    2    0    0 -0.95037960685E+03 -0.62336347431E+03 -0.10744342203E+03  0.11416424603E+04  0.00000000000E+00 0. -1.
<mgrwt>
<rscale>  0 0.23644879E+04</rscale>
<asrwt>0</asrwt>
<pdfrwt beam="1">  1        2 0.15140033E+00 0.23644879E+04</pdfrwt>
<pdfrwt beam="2">  1       -2 0.21850465E+00 0.23644879E+04</pdfrwt>
<totfact> 0.23491633E+00</totfact>
</mgrwt>
</event>
<event>
 6    1  0.2047711E-005  0.2136094E+04  0.7818608E-02  0.8545508E-01
          2   -1    0    0  501    0  0.00000000000E+00  0.00000000000E+00  0.34288930420E+04  0.34288930420E+04  0.00000000000E+00 0.  1.
         -2   -1    0    0    0  501 -0.00000000000E+00 -0.00000000000E+00 -0.33268019205E+03  0.33268019205E+03  0.00000000000E+00 0. -1.
         23    2    1    2    0    0 -0.76508791996E+03 -0.19202995509E+03  0.28859132983E+03  0.84524444101E+03  0.94436118465E+02 0.  0.
         11    1    3    3    0    0 -0.40203357109E+03 -0.61026166383E+02  0.11925983515E+03  0.42376655549E+03  0.00000000000E+00 0.  1.
        -11    1    3    3    0    0 -0.36305434887E+03 -0.13100378871E+03  0.16933149469E+03  0.42147788552E+03  0.00000000000E+00 0. -1.
         22    1    1    2    0    0  0.76508791996E+03  0.19202995509E+03  0.28076215201E+04  0.29163287930E+04  0.00000000000E+00 0.  1.
<mgrwt>
<rscale>  0 0.21360944E+04</rscale>
<asrwt>0</asrwt>
<pdfrwt beam="1">  1        2 0.52752198E+00 0.21360944E+04</pdfrwt>
<pdfrwt beam="2">  1       -2 0.51181570E-01 0.21360944E+04</pdfrwt>
<totfact> 0.30305156E+00</totfact>
</mgrwt>
</event>
<event>
 6    1  0.2047711E-005  0.1964504E+04  0.7818608E-02  0.8623398E-01
          1   -1    0    0  501    0  0.00000000000E+00  0.00000000000E+00  0.12913843276E+04  0.12913843276E+04  0.00000000000E+00 0. -1.
         -1   -1    0    0    0  501 -0.00000000000E+00 -0.00000000000E+00 -0.74712011014E+03  0.74712011014E+03  0.00000000000E+00 0.  1.
         23    2    1    2    0    0 -0.48196986283E+03  0.18017530262E+03 -0.59285743422E+03  0.79038435573E+03  0.92029365534E+02 0.  0.
         11    1    3    3    0    0 -0.17255675204E+03  0.49366354431E+02 -0.14612889386E+03  0.23144442799E+03  0.00000000000E+00 0.  1.
        -11    1    3    3    0    0 -0.30941311079E+03  0.13080894819E+03 -0.44672854036E+03  0.55893992775E+03  0.00000000000E+00 0. -1.
         22    1    1    2    0    0  0.48196986283E+03 -0.18017530262E+03  0.11371216517E+04  0.12481200820E+04  0.00000000000E+00 0. -1.
<mgrwt>
<rscale>  0 0.19645042E+04</rscale>
<asrwt>0</asrwt>
<pdfrwt beam="1">  1        1 0.19867451E+00 0.19645042E+04</pdfrwt>
<pdfrwt beam="2">  1       -1 0.11494156E+00 0.19645042E+04</pdfrwt>
<totfact> 0.58675125E+00</totfact>
</mgrwt>
</event>
<event>
 6    1  0.2047711E-005  0.2577887E+04  0.7818608E-02  0.8375752E-01
          2   -1    0    0  501    0  0.00000000000E+00  0.00000000000E+00  0.39551142300E+04  0.39551142300E+04  0.00000000000E+00 0. -1.
         -2   -1    0    0    0  501 -0.00000000000E+00 -0.00000000000E+00 -0.42005734012E+03  0.42005734012E+03  0.00000000000E+00 0.  1.
         23    2    1    2    0    0 -0.79673443189E+01 -0.90094683892E+03  0.33302797378E+04  0.34512114156E+04  0.91260164348E+02 0.  0.
         13    1    3    3    0    0 -0.15535701380E+02 -0.19422870940E+03  0.86139949465E+03  0.88316206834E+03  0.00000000000E+00 0. -1.
        -13    1    3    3    0    0  0.75683570615E+01 -0.70671812952E+03  0.24688802432E+04  0.25680493472E+04  0.00000000000E+00 0.  1.
         22    1    1    2    0    0  0.79673443189E+01  0.90094683892E+03  0.20477715201E+03  0.92396015451E+03  0.00000000000E+00 0.  1.
<mgrwt>
<rscale>  0 0.25778865E+04</rscale>
<asrwt>0</asrwt>
<pdfrwt beam="1">  1        2 0.60847909E+00 0.25778865E+04</pdfrwt>
<pdfrwt beam="2">  1       -2 0.64624209E-01 0.25778865E+04</pdfrwt>
<totfact> 0.73007290E-01</totfact>
</mgrwt>
</event>
<event>
 6    1  0.2047711E-005  0.2590785E+04  0.7818608E-02  0.8371338E-01
          2   -1    0    0  501    0  0.00000000000E+00  0.00000000000E+00  0.26055574063E+04  0.26055574063E+04  0.00000000000E+00 0. -1.
         -2   -1    0    0    0  501 -0.00000000000E+00 -0.00000000000E+00 -0.64402411453E+03  0.64402411453E+03  0.00000000000E+00 0.  1.
         23    2    1    2    0    0  0.13042895005E+03  0.12616966610E+04  0.66203116303E+03  0.14336531197E+04  0.90475585537E+02 0.  0.
         11    1    3    3    0    0  0.13427270606E+03  0.10120206411E+04  0.55473014053E+03  0.11618693844E+04  0.00000000000E+00 0. -1.
        -11    1    3    3    0    0 -0.38437560095E+01  0.24967601987E+03  0.10730102250E+03  0.27178373533E+03  0.00000000000E+00 0.  1.
         22    1    1    2    0    0 -0.13042895005E+03 -0.12616966610E+04  0.12995021287E+04  0.18159284011E+04  0.00000000000E+00 0. -1.
<mgrwt>
<rscale>  0 0.25907851E+04</rscale>
<asrwt>0</asrwt>
<pdfrwt beam="1">  1        2 0.40085498E+00 0.25907851E+04</pdfrwt>
<pdfrwt beam="2">  1       -2 0.99080634E-01 0.25907851E+04</pdfrwt>
<totfact> 0.22568822E+00</totfact>
</mgrwt>
</event>
<event>
 6    1  0.2047711E-005  0.2036350E+04  0.7818608E-02  0.8589812E-01
         -2   -1    0    0    0  501 -0.00000000000E+00  0.00000000000E+00  0.77860380197E+03  0.77860380197E+03  0.00000000000E+00 0. -1.
          2   -1    0    0  501    0  0.00000000000E+00 -0.00000000000E+00 -0.13314611996E+04  0.13314611996E+04  0.00000000000E+00 0.  1.
         23    2    1    2    0    0 -0.36116625144E+03  0.73888887961E+03 -0.89530659008E+03  0.12191838159E+04  0.91855588115E+02 0.  0.
         11    1    3    3    0    0 -0.16255064576E+03  0.43567575530E+03 -0.49563603513E+03  0.67962574665E+03  0.00000000000E+00 0. -1.
        -11    1    3    3    0    0 -0.19861560568E+03  0.30321312432E+03 -0.39967055495E+03  0.53955806923E+03  0.00000000000E+00 0.  1.
         22    1    1    2    0    0  0.36116625144E+03 -0.73888887961E+03  0.34244919245E+03  0.89088118569E+03  0.00000000000E+00 0. -1.
<mgrwt>
<rscale>  0 0.20363504E+04</rscale>
<asrwt>0</asrwt>
<pdfrwt beam="1">  1        2 0.20484018E+00 0.20363504E+04</pdfrwt>
<pdfrwt beam="2">  1       -2 0.11978520E+00 0.20363504E+04</pdfrwt>
<totfact> 0.78320391E+00</totfact>
</mgrwt>
</event>
<event>
 6    1  0.2047711E-005  0.4334506E+03  0.7818608E-02  0.1032775E+00
          2   -1    0    0  501    0  0.00000000000E+00  0.00000000000E+00  0.19877294593E+04  0.19877294593E+04  0.00000000000E+00 0. -1.
         -2   -1    0    0    0  501 -0.00000000000E+00 -0.00000000000E+00 -0.23629901747E+02  0.23629901747E+02  0.00000000000E+00 0.  1.
         23    2    1    2    0    0 -0.13909312055E+03  0.74240815189E+02  0.16508717865E+04  0.16606882453E+04  0.87459693293E+02 0.  0.
         11    1    3    3    0    0 -0.11530730500E+03  0.22965216530E+02  0.89212892671E+03  0.89984287386E+03  0.00000000000E+00 0. -1.
        -11    1    3    3    0    0 -0.23785815557E+02  0.51275598659E+02  0.75874285978E+03  0.76084537149E+03  0.00000000000E+00 0.  1.
         22    1    1    2    0    0  0.13909312055E+03 -0.74240815189E+02  0.31322777105E+03  0.35067111569E+03  0.00000000000E+00 0.  1.
<mgrwt>
<rscale>  0 0.43345058E+03</rscale>
<asrwt>0</asrwt>
<pdfrwt beam="1">  1        2 0.30580440E+00 0.43345058E+03</pdfrwt>
<pdfrwt beam="2">  1       -2 0.36353711E-02 0.43345058E+03</pdfrwt>
<totfact> 0.23752355E+03</totfact>
</mgrwt>
</event>
<event>
 6    1  0.2047711E-005  0.1929233E+04  0.7818608E-02  0.8640440E-01
         -2   -1    0    0    0  501 -0.00000000000E+00  0.00000000000E+00  0.10280455296E+04  0.10280455296E+04  0.00000000000E+00 0.  1.
          2   -1    0    0  501    0  0.00000000000E+00 -0.00000000000E+00 -0.90510136389E+03  0.90510136389E+03  0.00000000000E+00 0. -1.
         23    2    1    2    0    0 -0.68666925687E+03  0.36918540097E+03  0.62711330489E+03  0.10047078543E+04  0.91401568226E+02 0.  0.
         13    1    3    3    0    0 -0.34517452108E+03  0.19232032404E+03  0.25975239975E+03  0.47286770477E+03  0.00000000000E+00 0. -1.
        -13    1    3    3    0    0 -0.34149473579E+03  0.17686507694E+03  0.36736090513E+03  0.53184014951E+03  0.00000000000E+00 0.  1.
         22    1    1    2    0    0  0.68666925687E+03 -0.36918540097E+03 -0.50416913918E+03  0.92843903920E+03  0.00000000000E+00 0. -1.
<mgrwt>
<rscale>  0 0.19292334E+04</rscale>
<asrwt>0</asrwt>
<pdfrwt beam="1">  1        2 0.13924636E+00 0.19292334E+04</pdfrwt>
<pdfrwt beam="2">  1       -2 0.15816085E+00 0.19292334E+04</pdfrwt>
<totfact> 0.70632964E+00</totfact>
</mgrwt>
</event>
<event>
 6    1  0.2047711E-005  0.1003935E+04  0.7818608E-02  0.9304239E-01
          2   -1    0    0  501    0  0.00000000000E+00  0.00000000000E+00  0.30289460943E+03  0.30289460943E+03  0.00000000000E+00 0. -1.
         -2   -1    0    0    0  501 -0.00000000000E+00 -0.00000000000E+00 -0.83187800401E+03  0.83187800401E+03  0.00000000000E+00 0.  1.
         23    2    1    2    0    0  0.15847118687E+03  0.36782395198E+03 -0.60074246856E+03  0.72788572324E+03  0.92295914611E+02 0.  0.
         13    1    3    3    0    0  0.38742512521E+02  0.26942491551E+02 -0.98175330064E+02  0.10892784566E+03  0.00000000000E+00 0. -1.
        -13    1    3    3    0    0  0.11972867435E+03  0.34088146043E+03 -0.50256713849E+03  0.61895787758E+03  0.00000000000E+00 0.  1.
         22    1    1    2    0    0 -0.15847118687E+03 -0.36782395198E+03  0.71759073975E+02  0.40688689020E+03  0.00000000000E+00 0. -1.
<mgrwt>
<rscale>  0 0.10039350E+04</rscale>
<asrwt>0</asrwt>
<pdfrwt beam="1">  1        2 0.46599171E-01 0.10039350E+04</pdfrwt>
<pdfrwt beam="2">  1       -2 0.12798123E+00 0.10039350E+04</pdfrwt>
<totfact> 0.48959464E+01</totfact>
</mgrwt>
</event>
<event>
 6    1  0.2047711E-005  0.1478994E+04  0.7818608E-02  0.8898543E-01
          2   -1    0    0  501    0  0.00000000000E+00  0.00000000000E+00  0.17681642514E+04  0.17681642514E+04  0.00000000000E+00 0. -1.
         -2   -1    0    0    0  501 -0.00000000000E+00 -0.00000000000E+00 -0.30927886612E+03  0.30927886612E+03  0.00000000000E+00 0.  1.
         23    2    1    2    0    0 -0.24322749282E+03 -0.17456361390E+03  0.16777099201E+04  0.17066112882E+04  0.90440282492E+02 0.  0.
         13    1    3    3    0    0 -0.12140366465E+03 -0.32672739231E+02  0.68162544507E+03  0.69312308073E+03  0.00000000000E+00 0. -1.
        -13    1    3    3    0    0 -0.12182382817E+03 -0.14189087467E+03  0.99608447499E+03  0.10134882075E+04  0.00000000000E+00 0.  1.
         22    1    1    2    0    0  0.24322749282E+03  0.17456361390E+03 -0.21882453480E+03  0.37083182927E+03  0.00000000000E+00 0.  1.
<mgrwt>
<rscale>  0 0.14789940E+04</rscale>
<asrwt>0</asrwt>
<pdfrwt beam="1">  1        2 0.27202526E+00 0.14789940E+04</pdfrwt>
<pdfrwt beam="2">  1       -2 0.47581365E-01 0.14789940E+04</pdfrwt>
<totfact> 0.36401345E+01</totfact>
</mgrwt>
</event>
<event>
 6    1  0.2047711E-005  0.2924901E+04  0.7818608E-02  0.8265507E-01
         -2   -1    0    0    0  501 -0.00000000000E+00  0.00000000000E+00  0.67855628488E+03  0.67855628488E+03  0.00000000000E+00 0.  1.
          2   -1    0    0  501    0  0.00000000000E+00 -0.00000000000E+00 -0.31519293020E+04  0.31519293020E+04  0.00000000000E+00 0. -1.
         23    2    1    2    0    0  0.85385825641E+03 -0.97126985089E+03 -0.21281319451E+04  0.24919675843E+04  0.92292038054E+02 0.  0.
         11    1    3    3    0    0  0.28959713112E+03 -0.36908273385E+03 -0.70345305170E+03  0.84553814741E+03  0.00000000000E+00 0. -1.
        -11    1    3    3    0    0  0.56426112529E+03 -0.60218711703E+03 -0.14246788934E+04  0.16464294369E+04  0.00000000000E+00 0.  1.
         22    1    1    2    0    0 -0.85385825641E+03  0.97126985089E+03 -0.34524107197E+03  0.13385180025E+04  0.00000000000E+00 0.  1.
<mgrwt>
<rscale>  0 0.29249010E+04</rscale>
<asrwt>0</asrwt>
<pdfrwt beam="1">  1        2 0.48491219E+00 0.29249010E+04</pdfrwt>
<pdfrwt beam="2">  1       -2 0.10439328E+00 0.29249010E+04</pdfrwt>
<totfact> 0.89407815E-01</totfact>
</mgrwt>
</event>
<event>
 6    1  0.2047711E-005  0.1973912E+04  0.7818608E-02  0.8618916E-01
         -2   -1    0    0    0  501 -0.00000000000E+00  0.00000000000E+00  0.81086051221E+03  0.81086051221E+03  0.00000000000E+00 0.  1.
          2   -1    0    0  501    0  0.00000000000E+00 -0.00000000000E+00 -0.12012939003E+04  0.12012939003E+04  0.00000000000E+00 0. -1.
         23    2    1    2    0    0 -0.21270514287E+03  0.58027717120E+03 -0.97720363624E+03  0.11599429380E+04  0.92604533322E+02 0.  0.
         13    1    3    3    0    0  0.14731567312E+01  0.88716771155E+02 -0.13651780582E+03  0.16281875500E+03  0.00000000000E+00 0.  1.
        -13    1    3    3    0    0 -0.21417829960E+03  0.49156040004E+03 -0.84068583042E+03  0.99712418303E+03  0.00000000000E+00 0. -1.
         22    1    1    2    0    0  0.21270514287E+03 -0.58027717120E+03  0.58677024812E+03  0.85221147451E+03  0.00000000000E+00 0.  1.
<mgrwt>
<rscale>  0 0.19739116E+04</rscale>
<asrwt>0</asrwt>
<pdfrwt beam="1">  1        2 0.18481444E+00 0.19739116E+04</pdfrwt>
<pdfrwt beam="2">  1       -2 0.12474777E+00 0.19739116E+04</pdfrwt>
<totfact> 0.84844572E+00</totfact>
</mgrwt>
</event>
<event>
 6    1  0.2047711E-005  0.2737388E+04  0.7818608E-02  0.8322975E-01
          2   -1    0    0  501    0  0.00000000000E+00  0.00000000000E+00  0.19622972941E+04  0.19622972941E+04  0.00000000000E+00 0.  1.
         -2   -1    0    0    0  501 -0.00000000000E+00 -0.00000000000E+00 -0.95465793843E+03  0.95465793843E+03  0.00000000000E+00 0. -1.
         23    2    1    2    0    0  0.58943012717E+03 -0.71677473389E+03 -0.56552822123E+03  0.10904695033E+04  0.90042627171E+02 0.  0.
         11    1    3    3    0    0  0.38679385528E+03 -0.40735439123E+03 -0.31937285230E+03  0.64617807555E+03  0.00000000000E+00 0.  1.
        -11    1    3    3    0    0  0.20263627189E+03 -0.30942034266E+03 -0.24615536893E+03  0.44429142777E+03  0.00000000000E+00 0. -1.
         22    1    1    2    0    0 -0.58943012717E+03  0.71677473389E+03  0.15731675769E+04  0.18264857292E+04  0.00000000000E+00 0.  1.
<mgrwt>
<rscale>  0 0.27373876E+04</rscale>
<asrwt>0</asrwt>
<pdfrwt beam="1">  1        2 0.30189189E+00 0.27373876E+04</pdfrwt>
<pdfrwt beam="2">  1       -2 0.14687045E+00 0.27373876E+04</pdfrwt>
<totfact> 0.19430187E+00</totfact>
</mgrwt>
</event>
<event>
 6    1  0.2047711E-005  0.4255260E+04  0.7818608E-02  0.7954943E-01
          2   -1    0    0  501    0  0.00000000000E+00  0.00000000000E+00  0.23276336205E+04  0.23276336205E+04  0.00000000000E+00 0. -1.
         -2   -1    0    0    0  501 -0.00000000000E+00 -0.00000000000E+00 -0.19448118043E+04  0.19448118043E+04  0.00000000000E+00 0.  1.
         23    2    1    2    0    0 -0.90684385981E+03  0.12803197443E+04  0.16327877416E+04  0.22664545853E+04  0.96104862008E+02 0.  0.
         13    1    3    3    0    0 -0.79260002029E+03  0.10649759520E+04  0.13571117486E+04  0.18984574972E+04  0.00000000000E+00 0. -1.
        -13    1    3    3    0    0 -0.11424383952E+03  0.21534379223E+03  0.27567599299E+03  0.36799708807E+03  0.00000000000E+00 0.  1.
         22    1    1    2    0    0  0.90684385981E+03 -0.12803197443E+04 -0.12499659253E+04  0.20059908395E+04  0.00000000000E+00 0.  1.
<mgrwt>
<rscale>  0 0.42552600E+04</rscale>
<asrwt>0</asrwt>
<pdfrwt beam="1">  1        2 0.35809748E+00 0.42552600E+04</pdfrwt>
<pdfrwt beam="2">  1       -2 0.29920182E+00 0.42552600E+04</pdfrwt>
<totfact> 0.10862151E-01</totfact>
</mgrwt>
</event>
<event>
 6    1  0.2047711E-005  0.2139604E+04  0.7818608E-02  0.8543995E-01
          2   -1    0    0  501    0  0.00000000000E+00  0.00000000000E+00  0.15326517826E+04  0.15326517826E+04  0.00000000000E+00 0. -1.
         -2   -1    0    0    0  501 -0.00000000000E+00 -0.00000000000E+00 -0.74672941145E+03  0.74672941145E+03  0.00000000000E+00 0.  1.
         23    2    1    2    0    0 -0.10593583814E+04  0.10015405820E+03  0.29617599128E+03  0.11080048530E+04  0.87655694632E+02 0.  0.
         13    1    3    3    0    0 -0.41536201497E+03  0.69216766561E+02  0.14906417632E+03  0.44669530210E+03  0.00000000000E+00 0.  1.
        -13    1    3    3    0    0 -0.64399636646E+03  0.30937291637E+02  0.14711181496E+03  0.66130955091E+03  0.00000000000E+00 0. -1.
         22    1    1    2    0    0  0.10593583814E+04 -0.10015405820E+03  0.48974637983E+03  0.11713763410E+04  0.00000000000E+00 0.  1.
<mgrwt>
<rscale>  0 0.21396039E+04</rscale>
<asrwt>0</asrwt>
<pdfrwt beam="1">  1        2 0.23579258E+00 0.21396039E+04</pdfrwt>
<pdfrwt beam="2">  1       -2 0.11488145E+00 0.21396039E+04</pdfrwt>
<totfact> 0.66074748E+00</totfact>
</mgrwt>
</event>
<event>
 6    1  0.2047711E-005  0.4822844E+04  0.7818608E-02  0.7856432E-01
          2   -1    0    0  501    0  0.00000000000E+00  0.00000000000E+00  0.30566704978E+04  0.30566704978E+04  0.00000000000E+00 0. -1.
         -2   -1    0    0    0  501 -0.00000000000E+00 -0.00000000000E+00 -0.19023821735E+04  0.19023821735E+04  0.00000000000E+00 0.  1.
         23    2    1    2    0    0 -0.10369934576E+03 -0.18998591135E+04  0.20991683212E+04  0.28346665449E+04  0.92782405127E+02 0.  0.
         11    1    3    3    0    0 -0.10711246431E+03 -0.14718872166E+04  0.15848281081E+04  0.21655496279E+04  0.00000000000E+00 0. -1.
        -11    1    3    3    0    0  0.34131185564E+01 -0.42797189687E+03  0.51434021307E+03  0.66911691704E+03  0.00000000000E+00 0.  1.
         22    1    1    2    0    0  0.10369934576E+03  0.18998591135E+04 -0.94487999682E+03  0.21243861264E+04  0.00000000000E+00 0.  1.
<mgrwt>
<rscale>  0 0.48228438E+04</rscale>
<asrwt>0</asrwt>
<pdfrwt beam="1">  1        2 0.47025700E+00 0.48228438E+04</pdfrwt>
<pdfrwt beam="2">  1       -2 0.29267418E+00 0.48228438E+04</pdfrwt>
<totfact> 0.41695204E-02</totfact>
</mgrwt>
</event>
<event>
 6    1  0.2047711E-005  0.1185159E+04  0.7818608E-02  0.9125947E-01
         -2   -1    0    0    0  501 -0.00000000000E+00  0.00000000000E+00  0.44931318132E+03  0.44931318132E+03  0.00000000000E+00 0.  1.
          2   -1    0    0  501    0  0.00000000000E+00 -0.00000000000E+00 -0.78152728928E+03  0.78152728928E+03  0.00000000000E+00 0. -1.
         23    2    1    2    0    0  0.14203055622E+03 -0.40008384218E+03 -0.59111397246E+03  0.73357907102E+03  0.92101929085E+02 0.  0.
         11    1    3    3    0    0  0.41106307504E+02 -0.18949952122E+03 -0.20375414262E+03  0.28127486147E+03  0.00000000000E+00 0. -1.
        -11    1    3    3    0    0  0.10092424872E+03 -0.21058432096E+03 -0.38735982983E+03  0.45230420955E+03  0.00000000000E+00 0.  1.
         22    1    1    2    0    0 -0.14203055622E+03  0.40008384218E+03  0.25889986450E+03  0.49726139958E+03  0.00000000000E+00 0.  1.
<mgrwt>
<rscale>  0 0.11851591E+04</rscale>
<asrwt>0</asrwt>
<pdfrwt beam="1">  1        2 0.12023497E+00 0.11851591E+04</pdfrwt>
<pdfrwt beam="2">  1       -2 0.69125106E-01 0.11851591E+04</pdfrwt>
<totfact> 0.67082542E+01</totfact>
</mgrwt>
</event>
<event>
 6    1  0.2047711E-005  0.2795447E+04  0.7818608E-02  0.8304683E-01
          2   -1    0    0  501    0  0.00000000000E+00  0.00000000000E+00  0.22567097274E+04  0.22567097274E+04  0.00000000000E+00 0. -1.
         -2   -1    0    0    0  501 -0.00000000000E+00 -0.00000000000E+00 -0.86569894302E+03  0.86569894302E+03  0.00000000000E+00 0.  1.
         23    2    1    2    0    0 -0.73509976222E+03 -0.10366543083E+04  0.13421459638E+04  0.18506336958E+04  0.92008001866E+02 0.  0.
         11    1    3    3    0    0 -0.55441155317E+03 -0.83062568001E+03  0.10888345034E+04  0.14774544888E+04  0.00000000000E+00 0. -1.
        -11    1    3    3    0    0 -0.18068820905E+03 -0.20602862832E+03  0.25331146043E+03  0.37317920703E+03  0.00000000000E+00 0.  1.
         22    1    1    2    0    0  0.73509976222E+03  0.10366543083E+04  0.48864820563E+02  0.12717749746E+04  0.00000000000E+00 0.  1.
<mgrwt>
<rscale>  0 0.27954472E+04</rscale>
<asrwt>0</asrwt>
<pdfrwt beam="1">  1        2 0.34718611E+00 0.27954472E+04</pdfrwt>
<pdfrwt beam="2">  1       -2 0.13318445E+00 0.27954472E+04</pdfrwt>
<totfact> 0.17051883E+00</totfact>
</mgrwt>
</event>
<event>
 6    1  0.2047711E-005  0.1266878E+04  0.7818608E-02  0.9056252E-01
          2   -1    0    0  501    0  0.00000000000E+00  0.00000000000E+00  0.77724574721E+03  0.77724574721E+03  0.00000000000E+00 0. -1.
         -2   -1    0    0    0  501 -0.00000000000E+00 -0.00000000000E+00 -0.51623940164E+03  0.51623940164E+03  0.00000000000E+00 0.  1.
         23    2    1    2    0    0 -0.56791681010E+03  0.99489522040E+02 -0.12935372088E+03  0.59720313007E+03  0.86553597699E+02 0.  0.
         11    1    3    3    0    0 -0.17858657236E+03  0.72373802819E+02 -0.46728177744E+02  0.19827923178E+03  0.00000000000E+00 0.  1.
        -11    1    3    3    0    0 -0.38933023775E+03  0.27115719221E+02 -0.82625543131E+02  0.39892389829E+03  0.00000000000E+00 0. -1.
         22    1    1    2    0    0  0.56791681010E+03 -0.99489522040E+02  0.39036006645E+03  0.69628201878E+03  0.00000000000E+00 0. -1.
<mgrwt>
<rscale>  0 0.12668779E+04</rscale>
<asrwt>0</asrwt>
<pdfrwt beam="1">  1        2 0.11957627E+00 0.12668779E+04</pdfrwt>
<pdfrwt beam="2">  1       -2 0.79421447E-01 0.12668779E+04</pdfrwt>
<totfact> 0.49421824E+01</totfact>
</mgrwt>
</event>
<event>
 6    1  0.2047711E-005  0.2116879E+04  0.7818608E-02  0.8553844E-01
         -2   -1    0    0    0  501 -0.00000000000E+00  0.00000000000E+00  0.59801477461E+03  0.59801477461E+03  0.00000000000E+00 0.  1.
          2   -1    0    0  501    0  0.00000000000E+00 -0.00000000000E+00 -0.18733548221E+04  0.18733548221E+04  0.00000000000E+00 0. -1.
         23    2    1    2    0    0 -0.44012586736E+03  0.30751770291E+03  0.42384964161E+03  0.68936973244E+03  0.85464569163E+02 0.  0.
         13    1    3    3    0    0 -0.10342389838E+03  0.98950577918E+02  0.15320165131E+03  0.20966274249E+03  0.00000000000E+00 0. -1.
        -13    1    3    3    0    0 -0.33670196899E+03  0.20856712499E+03  0.27064799030E+03  0.47970698994E+03  0.00000000000E+00 0.  1.
         22    1    1    2    0    0  0.44012586736E+03 -0.30751770291E+03 -0.16991896891E+04  0.17819998642E+04  0.00000000000E+00 0. -1.
<mgrwt>
<rscale>  0 0.21168787E+04</rscale>
<asrwt>0</asrwt>
<pdfrwt beam="1">  1        2 0.28820843E+00 0.21168787E+04</pdfrwt>
<pdfrwt beam="2">  1       -2 0.92002275E-01 0.21168787E+04</pdfrwt>
<totfact> 0.72610651E+00</totfact>
</mgrwt>
</event>
<event>
 6    1  0.2047711E-005  0.1153734E+04  0.7818608E-02  0.9154345E-01
         -1   -1    0    0    0  501 -0.00000000000E+00  0.00000000000E+00  0.47549303850E+03  0.47549303850E+03  0.00000000000E+00 0.  1.
          1   -1    0    0  501    0  0.00000000000E+00 -0.00000000000E+00 -0.69985398524E+03  0.69985398524E+03  0.00000000000E+00 0. -1.
         23    2    1    2    0    0 -0.42863275037E+03 -0.10192393814E+03 -0.48667434644E+03  0.66258699847E+03  0.89750137590E+02 0.  0.
         13    1    3    3    0    0 -0.13280853895E+03 -0.71835394921E+02 -0.14063731213E+03  0.20634264112E+03  0.00000000000E+00 0.  1.
        -13    1    3    3    0    0 -0.29582421142E+03 -0.30088543222E+02 -0.34603703431E+03  0.45624435735E+03  0.00000000000E+00 0. -1.
         22    1    1    2    0    0  0.42863275037E+03  0.10192393814E+03  0.26231339970E+03  0.51276002528E+03  0.00000000000E+00 0.  1.
<mgrwt>
<rscale>  0 0.11537343E+04</rscale>
<asrwt>0</asrwt>
<pdfrwt beam="1">  1        1 0.10766984E+00 0.11537343E+04</pdfrwt>
<pdfrwt beam="2">  1       -1 0.73152775E-01 0.11537343E+04</pdfrwt>
<totfact> 0.50987568E+01</totfact>
</mgrwt>
</event>
<event>
 6    1  0.2047711E-005  0.3186866E+04  0.7818608E-02  0.8192295E-01
          2   -1    0    0  501    0  0.00000000000E+00  0.00000000000E+00  0.20601814470E+04  0.20601814470E+04  0.00000000000E+00 0. -1.
         -2   -1    0    0    0  501 -0.00000000000E+00 -0.00000000000E+00 -0.12324293747E+04  0.12324293747E+04  0.00000000000E+00 0.  1.
         23    2    1    2    0    0 -0.15774728370E+04 -0.85444467779E+02  0.20954795336E+03  0.15961740733E+04  0.90222054074E+02 0.  0.
         11    1    3    3    0    0 -0.14466628623E+04 -0.83829340626E+02  0.16737205087E+03  0.14587234827E+04  0.00000000000E+00 0. -1.
        -11    1    3    3    0    0 -0.13080997464E+03 -0.16151271532E+01  0.42175902486E+02  0.13745059058E+03  0.00000000000E+00 0.  1.
         22    1    1    2    0    0  0.15774728370E+04  0.85444467779E+02  0.61820411898E+03  0.16964367484E+04  0.00000000000E+00 0. -1.
<mgrwt>
<rscale>  0 0.31868656E+04</rscale>
<asrwt>0</asrwt>
<pdfrwt beam="1">  1        2 0.31695099E+00 0.31868656E+04</pdfrwt>
<pdfrwt beam="2">  1       -2 0.18960452E+00 0.31868656E+04</pdfrwt>
<totfact> 0.81310634E-01</totfact>
</mgrwt>
</event>
<event>
 6    1  0.2047711E-005  0.1838556E+04  0.7818608E-02  0.8686060E-01
         -2   -1    0    0    0  501 -0.00000000000E+00  0.00000000000E+00  0.38722404889E+03  0.38722404889E+03  0.00000000000E+00 0.  1.
          2   -1    0    0  501    0  0.00000000000E+00 -0.00000000000E+00 -0.21823855167E+04  0.21823855167E+04  0.00000000000E+00 0. -1.
         23    2    1    2    0    0  0.40524336474E+03  0.68722413025E+03 -0.26762205270E+03  0.84627679023E+03  0.89797843678E+02 0.  0.
         13    1    3    3    0    0  0.71329469646E+02  0.68623492053E+02 -0.46435116560E+02  0.10933113441E+03  0.00000000000E+00 0.  1.
        -13    1    3    3    0    0  0.33391389510E+03  0.61860063820E+03 -0.22118693614E+03  0.73694565582E+03  0.00000000000E+00 0. -1.
         22    1    1    2    0    0 -0.40524336474E+03 -0.68722413025E+03 -0.15275394151E+04  0.17233327753E+04  0.00000000000E+00 0.  1.
<mgrwt>
<rscale>  0 0.18385561E+04</rscale>
<asrwt>0</asrwt>
<pdfrwt beam="1">  1        2 0.33575163E+00 0.18385561E+04</pdfrwt>
<pdfrwt beam="2">  1       -2 0.59572929E-01 0.18385561E+04</pdfrwt>
<totfact> 0.13076153E+01</totfact>
</mgrwt>
</event>
<event>
 6    1  0.2047711E-005  0.1260280E+04  0.7818608E-02  0.9061670E-01
         -2   -1    0    0    0  501 -0.00000000000E+00  0.00000000000E+00  0.15725035254E+03  0.15725035254E+03  0.00000000000E+00 0.  1.
          2   -1    0    0  501    0  0.00000000000E+00 -0.00000000000E+00 -0.25251242183E+04  0.25251242183E+04  0.00000000000E+00 0. -1.
         23    2    1    2    0    0  0.27080242454E+03  0.49116958295E+03 -0.59467599670E+03  0.82258635839E+03  0.91800128574E+02 0.  0.
         13    1    3    3    0    0  0.23506657157E+03  0.36300427252E+03 -0.48796773100E+03  0.65202829804E+03  0.00000000000E+00 0.  1.
        -13    1    3    3    0    0  0.35735852978E+02  0.12816531042E+03 -0.10670826570E+03  0.17055806035E+03  0.00000000000E+00 0. -1.
         22    1    1    2    0    0 -0.27080242454E+03 -0.49116958295E+03 -0.17731978690E+04  0.18597882124E+04  0.00000000000E+00 0. -1.
<mgrwt>
<rscale>  0 0.12602804E+04</rscale>
<asrwt>0</asrwt>
<pdfrwt beam="1">  1        2 0.38848064E+00 0.12602804E+04</pdfrwt>
<pdfrwt beam="2">  1       -2 0.24192362E-01 0.12602804E+04</pdfrwt>
<totfact> 0.50652918E+01</totfact>
</mgrwt>
</event>
<event>
 6    1  0.2047711E-005  0.4003390E+04  0.7818608E-02  0.8003863E-01
          2   -1    0    0  501    0  0.00000000000E+00  0.00000000000E+00  0.15823801485E+04  0.15823801485E+04  0.00000000000E+00 0. -1.
         -2   -1    0    0    0  501 -0.00000000000E+00 -0.00000000000E+00 -0.25321242287E+04  0.25321242287E+04  0.00000000000E+00 0.  1.
         23    2    1    2    0    0  0.16924894561E+04  0.77667863946E+03  0.27657027321E+03  0.18847965126E+04  0.90644966162E+02 0.  0.
         11    1    3    3    0    0  0.97137051514E+03  0.49336334975E+03  0.17286113971E+03  0.11031088098E+04  0.00000000000E+00 0.  1.
        -11    1    3    3    0    0  0.72111894098E+03  0.28331528971E+03  0.10370913351E+03  0.78168770286E+03  0.00000000000E+00 0. -1.
         22    1    1    2    0    0 -0.16924894561E+04 -0.77667863946E+03 -0.12263143534E+04  0.22297078646E+04  0.00000000000E+00 0.  1.
<mgrwt>
<rscale>  0 0.40033901E+04</rscale>
<asrwt>0</asrwt>
<pdfrwt beam="1">  1        2 0.24344310E+00 0.40033901E+04</pdfrwt>
<pdfrwt beam="2">  1       -2 0.38955757E+00 0.40033901E+04</pdfrwt>
<totfact> 0.78081674E-02</totfact>
</mgrwt>
</event>
<event>
 6    1  0.2047711E-005  0.3200853E+04  0.7818608E-02  0.8188592E-01
         -2   -1    0    0    0  501 -0.00000000000E+00  0.00000000000E+00  0.15922440352E+04  0.15922440352E+04  0.00000000000E+00 0.  1.
          2   -1    0    0  501    0  0.00000000000E+00 -0.00000000000E+00 -0.16086513454E+04  0.16086513454E+04  0.00000000000E+00 0. -1.
         23    2    1    2    0    0 -0.13636677268E+04  0.10440094031E+03  0.82047102343E+03  0.15975069152E+04  0.91468127499E+02 0.  0.
         13    1    3    3    0    0 -0.63844188115E+03  0.93706739797E+02  0.39713231480E+03  0.75769589160E+03  0.00000000000E+00 0. -1.
        -13    1    3    3    0    0 -0.72522584566E+03  0.10694200517E+02  0.42333870863E+03  0.83981102360E+03  0.00000000000E+00 0.  1.
         22    1    1    2    0    0  0.13636677268E+04 -0.10440094031E+03 -0.83687833369E+03  0.16033884654E+04  0.00000000000E+00 0. -1.
<mgrwt>
<rscale>  0 0.32008533E+04</rscale>
<asrwt>0</asrwt>
<pdfrwt beam="1">  1        2 0.24748482E+00 0.32008533E+04</pdfrwt>
<pdfrwt beam="2">  1       -2 0.24496062E+00 0.32008533E+04</pdfrwt>
<totfact> 0.64098359E-01</totfact>
</mgrwt>
</event>
<event>
 6    1  0.2047711E-005  0.4133526E+04  0.7818608E-02  0.7978139E-01
         -2   -1    0    0    0  501 -0.00000000000E+00  0.00000000000E+00  0.18066190661E+04  0.18066190661E+04  0.00000000000E+00 0.  1.
          2   -1    0    0  501    0  0.00000000000E+00 -0.00000000000E+00 -0.23643665323E+04  0.23643665323E+04  0.00000000000E+00 0. -1.
         23    2    1    2    0    0  0.15827928509E+04  0.77755075257E+03  0.80652090935E+03  0.19414012017E+04  0.93510786095E+02 0.  0.
         13    1    3    3    0    0  0.11125682637E+04  0.52240139561E+03  0.60241316701E+03  0.13687998332E+04  0.00000000000E+00 0.  1.
        -13    1    3    3    0    0  0.47022458716E+03  0.25514935696E+03  0.20410774235E+03  0.57260136850E+03  0.00000000000E+00 0. -1.
         22    1    1    2    0    0 -0.15827928509E+04 -0.77755075257E+03 -0.13642683755E+04  0.22295843967E+04  0.00000000000E+00 0. -1.
<mgrwt>
<rscale>  0 0.41335262E+04</rscale>
<asrwt>0</asrwt>
<pdfrwt beam="1">  1        2 0.36374869E+00 0.41335262E+04</pdfrwt>
<pdfrwt beam="2">  1       -2 0.27794140E+00 0.41335262E+04</pdfrwt>
<totfact> 0.14096654E-01</totfact>
</mgrwt>
</event>
<event>
 6    1  0.2047711E-005  0.1995458E+04  0.7818608E-02  0.8608747E-01
          2   -1    0    0  501    0  0.00000000000E+00  0.00000000000E+00  0.25663519056E+03  0.25663519056E+03  0.00000000000E+00 0. -1.
         -2   -1    0    0    0  501 -0.00000000000E+00 -0.00000000000E+00 -0.38789040003E+04  0.38789040003E+04  0.00000000000E+00 0.  1.
         23    2    1    2    0    0 -0.28524252700E+03 -0.90853213463E+03 -0.12127234470E+04  0.15446507730E+04  0.91945161198E+02 0.  0.
         11    1    3    3    0    0 -0.62139187849E+02 -0.19012458723E+03 -0.19746923147E+03  0.28107425124E+03  0.00000000000E+00 0. -1.
        -11    1    3    3    0    0 -0.22310333915E+03 -0.71840754740E+03 -0.10152542155E+04  0.12635765217E+04  0.00000000000E+00 0.  1.
         22    1    1    2    0    0  0.28524252700E+03  0.90853213463E+03 -0.24095453628E+04  0.25908884180E+04  0.00000000000E+00 0.  1.
<mgrwt>
<rscale>  0 0.19954581E+04</rscale>
<asrwt>0</asrwt>
<pdfrwt beam="1">  1        2 0.39482337E-01 0.19954581E+04</pdfrwt>
<pdfrwt beam="2">  1       -2 0.59675446E+00 0.19954581E+04</pdfrwt>
<totfact> 0.62212060E-02</totfact>
</mgrwt>
</event>
<event>
 6    1  0.2047711E-005  0.3926510E+04  0.7818608E-02  0.8019538E-01
          2   -1    0    0  501    0  0.00000000000E+00  0.00000000000E+00  0.31194753955E+04  0.31194753955E+04  0.00000000000E+00 0. -1.
         -2   -1    0    0    0  501 -0.00000000000E+00 -0.00000000000E+00 -0.12355830157E+04  0.12355830157E+04  0.00000000000E+00 0.  1.
         23    2    1    2    0    0 -0.27218618476E+03 -0.85081949665E+03  0.28802171030E+04  0.30169096567E+04  0.90078750571E+02 0.  0.
         11    1    3    3    0    0 -0.10397629957E+03 -0.20227893301E+03  0.69187594405E+03  0.72829949854E+03  0.00000000000E+00 0.  1.
        -11    1    3    3    0    0 -0.16820988519E+03 -0.64854056365E+03  0.21883411589E+04  0.22886101581E+04  0.00000000000E+00 0. -1.
         22    1    1    2    0    0  0.27218618476E+03  0.85081949665E+03 -0.99632472322E+03  0.13381487545E+04  0.00000000000E+00 0.  1.
<mgrwt>
<rscale>  0 0.39265103E+04</rscale>
<asrwt>0</asrwt>
<pdfrwt beam="1">  1        2 0.47991929E+00 0.39265103E+04</pdfrwt>
<pdfrwt beam="2">  1       -2 0.19008970E+00 0.39265103E+04</pdfrwt>
<totfact> 0.17945624E-01</totfact>
</mgrwt>
</event>
<event>
 6    1  0.2047711E-005  0.2862111E+04  0.7818608E-02  0.8284241E-01
         -2   -1    0    0    0  501 -0.00000000000E+00  0.00000000000E+00  0.54115493592E+03  0.54115493592E+03  0.00000000000E+00 0. -1.
          2   -1    0    0  501    0  0.00000000000E+00 -0.00000000000E+00 -0.37843505707E+04  0.37843505707E+04  0.00000000000E+00 0.  1.
         23    2    1    2    0    0  0.58863557453E+03 -0.65670067155E+03 -0.33236828293E+04  0.34399402633E+04  0.92595107281E+02 0.  0.
         13    1    3    3    0    0  0.31743227693E+03 -0.30701259698E+03 -0.17919099077E+04  0.18455246145E+04  0.00000000000E+00 0. -1.
        -13    1    3    3    0    0  0.27120329760E+03 -0.34968807457E+03 -0.15317729216E+04  0.15944156489E+04  0.00000000000E+00 0.  1.
         22    1    1    2    0    0 -0.58863557453E+03  0.65670067155E+03  0.80487194532E+02  0.88556524328E+03  0.00000000000E+00 0. -1.
<mgrwt>
<rscale>  0 0.28621111E+04</rscale>
<asrwt>0</asrwt>
<pdfrwt beam="1">  1        2 0.58220780E+00 0.28621111E+04</pdfrwt>
<pdfrwt beam="2">  1       -2 0.83254602E-01 0.28621111E+04</pdfrwt>
<totfact> 0.55192308E-01</totfact>
</mgrwt>
</event>
<event>
 6    1  0.2267542E-005  0.4812096E+04  0.7818608E-02  0.7858165E-01
         -2   -1    0    0    0  501 -0.00000000000E+00  0.00000000000E+00  0.18978581704E+04  0.18978581704E+04  0.00000000000E+00 0.  1.
          2   -1    0    0  501    0  0.00000000000E+00 -0.00000000000E+00 -0.30503163451E+04  0.30503163451E+04  0.00000000000E+00 0. -1.
         23    2    1    2    0    0  0.41326249919E+03 -0.95821900476E+03 -0.28047423391E+04  0.29939451242E+04  0.90323106463E+02 0.  0.
         11    1    3    3    0    0  0.86394680259E+02 -0.23475722805E+03 -0.57357397446E+03  0.62574923178E+03  0.00000000000E+00 0. -1.
        -11    1    3    3    0    0  0.32686781893E+03 -0.72346177671E+03 -0.22311683646E+04  0.23681958924E+04  0.00000000000E+00 0.  1.
         22    1    1    2    0    0 -0.41326249919E+03  0.95821900476E+03  0.16522841643E+04  0.19542293913E+04  0.00000000000E+00 0.  1.
<mgrwt>
<rscale>  0 0.48120963E+04</rscale>
<asrwt>0</asrwt>
<pdfrwt beam="1">  1        2 0.46927943E+00 0.48120963E+04</pdfrwt>
<pdfrwt beam="2">  1       -2 0.29197818E+00 0.48120963E+04</pdfrwt>
<totfact> 0.42534710E-02</totfact>
</mgrwt>
</event>
<event>
 6    1  0.2047711E-005  0.2567613E+04  0.7818608E-02  0.8379286E-01
          1   -1    0    0  501    0  0.00000000000E+00  0.00000000000E+00  0.11985511073E+04  0.11985511073E+04  0.00000000000E+00 0. -1.
         -1   -1    0    0    0  501 -0.00000000000E+00 -0.00000000000E+00 -0.13751267778E+04  0.13751267778E+04  0.00000000000E+00 0.  1.
         23    2    1    2    0    0 -0.63820729770E+03  0.25473280069E+03 -0.11734432794E+04  0.13629168087E+04  0.91519084875E+02 0.  0.
         11    1    3    3    0    0 -0.13642185126E+03  0.18068103381E+02 -0.26059230609E+03  0.29469599226E+03  0.00000000000E+00 0.  1.
        -11    1    3    3    0    0 -0.50178544644E+03  0.23666469731E+03 -0.91285097327E+03  0.10682208164E+04  0.00000000000E+00 0. -1.
         22    1    1    2    0    0  0.63820729770E+03 -0.25473280069E+03  0.99686760892E+03  0.12107610765E+04  0.00000000000E+00 0. -1.
<mgrwt>
<rscale>  0 0.25676135E+04</rscale>
<asrwt>0</asrwt>
<pdfrwt beam="1">  1        1 0.18439248E+00 0.25676135E+04</pdfrwt>
<pdfrwt beam="2">  1       -1 0.21155797E+00 0.25676135E+04</pdfrwt>
<totfact> 0.11870257E+00</totfact>
</mgrwt>
</event>
<event>
 6    1  0.2047711E-005  0.5003374E+04  0.7818608E-02  0.7827987E-01
         -2   -1    0    0    0  501 -0.00000000000E+00  0.00000000000E+00  0.22983860858E+04  0.22983860858E+04  0.00000000000E+00 0.  1.
          2   -1    0    0  501    0  0.00000000000E+00 -0.00000000000E+00 -0.27229709158E+04  0.27229709158E+04  0.00000000000E+00 0. -1.
         23    2    1    2    0    0 -0.96742558569E+02 -0.14979493801E+04  0.17951163878E+04  0.23417516269E+04  0.90257236185E+02 0.  0.
         11    1    3    3    0    0 -0.41923838337E+02 -0.26667247258E+03  0.28563229294E+03  0.39301097010E+03  0.00000000000E+00 0.  1.
        -11    1    3    3    0    0 -0.54818720232E+02 -0.12312769075E+04  0.15094840948E+04  0.19487406568E+04  0.00000000000E+00 0. -1.
         22    1    1    2    0    0  0.96742558569E+02  0.14979493801E+04 -0.22197012177E+04  0.26796053747E+04  0.00000000000E+00 0. -1.
<mgrwt>
<rscale>  0 0.50033742E+04</rscale>
<asrwt>0</asrwt>
<pdfrwt beam="1">  1        2 0.41891860E+00 0.50033742E+04</pdfrwt>
<pdfrwt beam="2">  1       -2 0.35359786E+00 0.50033742E+04</pdfrwt>
<totfact> 0.27649984E-02</totfact>
</mgrwt>
</event>
<event>
 6    1  0.3029477E-005  0.4640765E+04  0.7818608E-02  0.7886446E-01
         -2   -1    0    0    0  501 -0.00000000000E+00  0.00000000000E+00  0.16366872875E+04  0.16366872875E+04  0.00000000000E+00 0.  1.
          2   -1    0    0  501    0  0.00000000000E+00 -0.00000000000E+00 -0.32896782108E+04  0.32896782108E+04  0.00000000000E+00 0. -1.
         23    2    1    2    0    0 -0.12998346688E+04  0.18389566443E+04 -0.14168978254E+04  0.26620617076E+04  0.87414994874E+02 0.  0.
         13    1    3    3    0    0 -0.98406738243E+03  0.13293906417E+04 -0.10555964157E+04  0.19621294260E+04  0.00000000000E+00 0. -1.
        -13    1    3    3    0    0 -0.31576728639E+03  0.50956600262E+03 -0.36130140972E+03  0.69993228162E+03  0.00000000000E+00 0.  1.
         22    1    1    2    0    0  0.12998346688E+04 -0.18389566443E+04 -0.23609309787E+03  0.22643037908E+04  0.00000000000E+00 0.  1.
<mgrwt>
<rscale>  0 0.46407648E+04</rscale>
<asrwt>0</asrwt>
<pdfrwt beam="1">  1        2 0.50610433E+00 0.46407648E+04</pdfrwt>
<pdfrwt beam="2">  1       -2 0.25179805E+00 0.46407648E+04</pdfrwt>
<totfact> 0.53044166E-02</totfact>
</mgrwt>
</event>
<event>
 6    1  0.2047711E-005  0.2442094E+04  0.7818608E-02  0.8423910E-01
          2   -1    0    0  501    0  0.00000000000E+00  0.00000000000E+00  0.10149955798E+04  0.10149955798E+04  0.00000000000E+00 0. -1.
         -2   -1    0    0    0  501 -0.00000000000E+00 -0.00000000000E+00 -0.14689285864E+04  0.14689285864E+04  0.00000000000E+00 0.  1.
         23    2    1    2    0    0  0.16884977959E+03 -0.95240166733E+03  0.52787396486E+03  0.11056919241E+04  0.91238831196E+02 0.  0.
         11    1    3    3    0    0  0.17720500594E+02 -0.23766650136E+03  0.16598342027E+03  0.29043050428E+03  0.00000000000E+00 0. -1.
        -11    1    3    3    0    0  0.15112927900E+03 -0.71473516597E+03  0.36189054459E+03  0.81526141986E+03  0.00000000000E+00 0.  1.
         22    1    1    2    0    0 -0.16884977959E+03  0.95240166733E+03 -0.98180697137E+03  0.13782322421E+04  0.00000000000E+00 0.  1.
<mgrwt>
<rscale>  0 0.24420942E+04</rscale>
<asrwt>0</asrwt>
<pdfrwt beam="1">  1        2 0.15615317E+00 0.24420942E+04</pdfrwt>
<pdfrwt beam="2">  1       -2 0.22598901E+00 0.24420942E+04</pdfrwt>
<totfact> 0.19998389E+00</totfact>
</mgrwt>
</event>
<event>
 6    1  0.2047711E-005  0.1960843E+04  0.7818608E-02  0.8625150E-01
          2   -1    0    0  501    0  0.00000000000E+00  0.00000000000E+00  0.94520967882E+03  0.94520967882E+03  0.00000000000E+00 0.  1.
         -2   -1    0    0    0  501 -0.00000000000E+00 -0.00000000000E+00 -0.10169453210E+04  0.10169453210E+04  0.00000000000E+00 0. -1.
         23    2    1    2    0    0 -0.11447451885E+03 -0.21120656727E+03  0.91295602877E+03  0.94858195540E+03  0.92770610136E+02 0.  0.
         11    1    3    3    0    0 -0.16256115039E+02 -0.12669979517E+03  0.43377317044E+03  0.45219051601E+03  0.00000000000E+00 0. -1.
        -11    1    3    3    0    0 -0.98218403814E+02 -0.84506772091E+02  0.47918285833E+03  0.49639143938E+03  0.00000000000E+00 0.  1.
         22    1    1    2    0    0  0.11447451885E+03  0.21120656727E+03 -0.98469167097E+03  0.10135730444E+04  0.00000000000E+00 0. -1.
<mgrwt>
<rscale>  0 0.19608432E+04</rscale>
<asrwt>0</asrwt>
<pdfrwt beam="1">  1        2 0.14541687E+00 0.19608432E+04</pdfrwt>
<pdfrwt beam="2">  1       -2 0.15645313E+00 0.19608432E+04</pdfrwt>
<totfact> 0.68218443E+00</totfact>
</mgrwt>
</event>
<event>
 6    1  0.2047711E-005  0.2185567E+04  0.7818608E-02  0.8524459E-01
          2   -1    0    0  501    0  0.00000000000E+00  0.00000000000E+00  0.51909775281E+03  0.51909775281E+03  0.00000000000E+00 0. -1.
         -2   -1    0    0    0  501 -0.00000000000E+00 -0.00000000000E+00 -0.23004838632E+04  0.23004838632E+04  0.00000000000E+00 0.  1.
         23    2    1    2    0    0 -0.52469833720E+03 -0.78676979010E+03 -0.15938751475E+04  0.18554885661E+04  0.89915435160E+02 0.  0.
         13    1    3    3    0    0 -0.45428075628E+03 -0.67707207708E+03 -0.13083584529E+04  0.15416223416E+04  0.00000000000E+00 0. -1.
        -13    1    3    3    0    0 -0.70417580917E+02 -0.10969771303E+03 -0.28551669461E+03  0.31386622444E+03  0.00000000000E+00 0.  1.
         22    1    1    2    0    0  0.52469833720E+03  0.78676979010E+03 -0.18751096291E+03  0.96409304991E+03  0.00000000000E+00 0. -1.
<mgrwt>
<rscale>  0 0.21855672E+04</rscale>
<asrwt>0</asrwt>
<pdfrwt beam="1">  1        2 0.79861192E-01 0.21855672E+04</pdfrwt>
<pdfrwt beam="2">  1       -2 0.35392060E+00 0.21855672E+04</pdfrwt>
<totfact> 0.79386087E-01</totfact>
</mgrwt>
</event>
<event>
 6    1  0.2047711E-005  0.3176233E+04  0.7818608E-02  0.8195122E-01
          2   -1    0    0  501    0  0.00000000000E+00  0.00000000000E+00  0.26143431859E+04  0.26143431859E+04  0.00000000000E+00 0. -1.
         -2   -1    0    0    0  501 -0.00000000000E+00 -0.00000000000E+00 -0.96472167048E+03  0.96472167048E+03  0.00000000000E+00 0.  1.
         23    2    1    2    0    0 -0.64622973773E+03 -0.38937031513E+02  0.24579579347E+04  0.25434313628E+04  0.91416203313E+02 0.  0.
         11    1    3    3    0    0 -0.46411939883E+02 -0.27176240840E+02  0.21526426047E+03  0.22188131527E+03  0.00000000000E+00 0.  1.
        -11    1    3    3    0    0 -0.59981779785E+03 -0.11760790672E+02  0.22426936742E+04  0.23215500475E+04  0.00000000000E+00 0. -1.
         22    1    1    2    0    0  0.64622973773E+03  0.38937031513E+02 -0.80833641925E+03  0.10356334936E+04  0.00000000000E+00 0.  1.
<mgrwt>
<rscale>  0 0.31762327E+04</rscale>
<asrwt>0</asrwt>
<pdfrwt beam="1">  1        2 0.40220664E+00 0.31762327E+04</pdfrwt>
<pdfrwt beam="2">  1       -2 0.14841872E+00 0.31762327E+04</pdfrwt>
<totfact> 0.77575612E-01</totfact>
</mgrwt>
</event>
<event>
 6    1  0.2047711E-005  0.7647712E+03  0.7818608E-02  0.9612458E-01
          2   -1    0    0  501    0  0.00000000000E+00  0.00000000000E+00  0.83809709133E+03  0.83809709133E+03  0.00000000000E+00 0. -1.
         -2   -1    0    0    0  501 -0.00000000000E+00 -0.00000000000E+00 -0.17446515103E+03  0.17446515103E+03  0.00000000000E+00 0.  1.
         23    2    1    2    0    0  0.35411279590E+02  0.31840182156E+03  0.73572252215E+02  0.34114276529E+03  0.91278865688E+02 0.  0.
         13    1    3    3    0    0  0.32512363632E+02  0.21301241394E+03  0.53115657983E+01  0.21554478655E+03  0.00000000000E+00 0. -1.
        -13    1    3    3    0    0  0.28989159578E+01  0.10538940762E+03  0.68260686417E+02  0.12559797874E+03  0.00000000000E+00 0.  1.
         22    1    1    2    0    0 -0.35411279590E+02 -0.31840182156E+03  0.59005968808E+03  0.67141947707E+03  0.00000000000E+00 0. -1.
<mgrwt>
<rscale>  0 0.76477117E+03</rscale>
<asrwt>0</asrwt>
<pdfrwt beam="1">  1        2 0.12893801E+00 0.76477117E+03</pdfrwt>
<pdfrwt beam="2">  1       -2 0.26840793E-01 0.76477117E+03</pdfrwt>
<totfact> 0.40958053E+02</totfact>
</mgrwt>
</event>
<event>
 6    1  0.2047711E-005  0.1780061E+04  0.7818608E-02  0.8716975E-01
          2   -1    0    0  501    0  0.00000000000E+00  0.00000000000E+00  0.14356341172E+04  0.14356341172E+04  0.00000000000E+00 0. -1.
         -2   -1    0    0    0  501 -0.00000000000E+00 -0.00000000000E+00 -0.55177985465E+03  0.55177985465E+03  0.00000000000E+00 0.  1.
         23    2    1    2    0    0  0.26299650789E+03  0.15396449866E+03  0.13739403737E+04  0.14103033877E+04  0.91494616624E+02 0.  0.
         13    1    3    3    0    0  0.24238998392E+03  0.10343561694E+03  0.11259844593E+04  0.11564137814E+04  0.00000000000E+00 0.  1.
        -13    1    3    3    0    0  0.20606523971E+02  0.50528881715E+02  0.24795591441E+03  0.25388960634E+03  0.00000000000E+00 0. -1.
         22    1    1    2    0    0 -0.26299650789E+03 -0.15396449866E+03 -0.49008611115E+03  0.57711058416E+03  0.00000000000E+00 0.  1.
<mgrwt>
<rscale>  0 0.17800607E+04</rscale>
<asrwt>0</asrwt>
<pdfrwt beam="1">  1        2 0.22086679E+00 0.17800607E+04</pdfrwt>
<pdfrwt beam="2">  1       -2 0.84889209E-01 0.17800607E+04</pdfrwt>
<totfact> 0.15778986E+01</totfact>
</mgrwt>
</event>
<event>
 6    1  0.2047711E-005  0.2891405E+04  0.7818608E-02  0.8275439E-01
          2   -1    0    0  501    0  0.00000000000E+00  0.00000000000E+00  0.17737899072E+04  0.17737899072E+04  0.00000000000E+00 0. -1.
         -2   -1    0    0    0  501 -0.00000000000E+00 -0.00000000000E+00 -0.11782991196E+04  0.11782991196E+04  0.00000000000E+00 0.  1.
         23    2    1    2    0    0 -0.48817988914E+03 -0.56004081941E+02 -0.10886359485E+04  0.11977404511E+04  0.89430970354E+02 0.  0.
         13    1    3    3    0    0 -0.18952350615E+03  0.61199957106E+01 -0.33929117636E+03  0.38868382535E+03  0.00000000000E+00 0.  1.
        -13    1    3    3    0    0 -0.29865638299E+03 -0.62124077652E+02 -0.74934477219E+03  0.80905662579E+03  0.00000000000E+00 0. -1.
         22    1    1    2    0    0  0.48817988914E+03  0.56004081941E+02  0.16841267362E+04  0.17543485757E+04  0.00000000000E+00 0. -1.
<mgrwt>
<rscale>  0 0.28914046E+04</rscale>
<asrwt>0</asrwt>
<pdfrwt beam="1">  1        2 0.27289075E+00 0.28914046E+04</pdfrwt>
<pdfrwt beam="2">  1       -2 0.18127679E+00 0.28914046E+04</pdfrwt>
<totfact> 0.13695084E+00</totfact>
</mgrwt>
</event>
<event>
 6    1  0.2047711E-005  0.3653164E+04  0.7818608E-02  0.8078421E-01
         -2   -1    0    0    0  501 -0.00000000000E+00  0.00000000000E+00  0.18136757801E+04  0.18136757801E+04  0.00000000000E+00 0. -1.
          2   -1    0    0  501    0  0.00000000000E+00 -0.00000000000E+00 -0.18395798107E+04  0.18395798107E+04  0.00000000000E+00 0.  1.
         23    2    1    2    0    0 -0.11127527202E+04  0.13061632729E+03  0.14282724469E+04  0.18175245459E+04  0.90299784663E+02 0.  0.
         11    1    3    3    0    0 -0.88226804139E+03  0.13925824983E+03  0.11484341868E+04  0.14548851633E+04  0.00000000000E+00 0. -1.
        -11    1    3    3    0    0 -0.23048467880E+03 -0.86419225424E+01  0.27983826012E+03  0.36263938261E+03  0.00000000000E+00 0.  1.
         22    1    1    2    0    0  0.11127527202E+04 -0.13061632729E+03 -0.14541764776E+04  0.18357310449E+04  0.00000000000E+00 0.  1.
<mgrwt>
<rscale>  0 0.36531638E+04</rscale>
<asrwt>0</asrwt>
<pdfrwt beam="1">  1        2 0.28301228E+00 0.36531638E+04</pdfrwt>
<pdfrwt beam="2">  1       -2 0.27902704E+00 0.36531638E+04</pdfrwt>
<totfact> 0.28419870E-01</totfact>
</mgrwt>
</event>
<event>
 6    1  0.2047711E-005  0.3261708E+04  0.7818608E-02  0.8172708E-01
          2   -1    0    0  501    0  0.00000000000E+00  0.00000000000E+00  0.18009361967E+04  0.18009361967E+04  0.00000000000E+00 0. -1.
         -2   -1    0    0    0  501 -0.00000000000E+00 -0.00000000000E+00 -0.14768348526E+04  0.14768348526E+04  0.00000000000E+00 0.  1.
         23    2    1    2    0    0  0.14598237181E+04  0.20343371772E+03  0.86067685470E+03  0.17092099749E+04  0.90352224816E+02 0.  0.
         11    1    3    3    0    0  0.41729787890E+03  0.20572480533E+02  0.26272738698E+03  0.49354475639E+03  0.00000000000E+00 0. -1.
        -11    1    3    3    0    0  0.10425258392E+04  0.18286123719E+03  0.59794946772E+03  0.12156652185E+04  0.00000000000E+00 0.  1.
         22    1    1    2    0    0 -0.14598237181E+04 -0.20343371772E+03 -0.53657551068E+03  0.15685610744E+04  0.00000000000E+00 0.  1.
<mgrwt>
<rscale>  0 0.32617084E+04</rscale>
<asrwt>0</asrwt>
<pdfrwt beam="1">  1        2 0.27706711E+00 0.32617084E+04</pdfrwt>
<pdfrwt beam="2">  1       -2 0.22720536E+00 0.32617084E+04</pdfrwt>
<totfact> 0.64282013E-01</totfact>
</mgrwt>
</event>
<event>
 6    1  0.2047711E-005  0.3656208E+04  0.7818608E-02  0.8077737E-01
          1   -1    0    0  501    0  0.00000000000E+00  0.00000000000E+00  0.27477346651E+04  0.27477346651E+04  0.00000000000E+00 0. -1.
         -1   -1    0    0    0  501 -0.00000000000E+00 -0.00000000000E+00 -0.12162614006E+04  0.12162614006E+04  0.00000000000E+00 0.  1.
         23    2    1    2    0    0  0.33494786137E+03  0.84064202054E+03 -0.95446970098E+03  0.13184750387E+04  0.92168004075E+02 0.  0.
         13    1    3    3    0    0  0.13695145692E+03  0.46274574942E+03 -0.48743442699E+03  0.68591665002E+03  0.00000000000E+00 0.  1.
        -13    1    3    3    0    0  0.19799640446E+03  0.37789627112E+03 -0.46703527399E+03  0.63255838865E+03  0.00000000000E+00 0. -1.
         22    1    1    2    0    0 -0.33494786137E+03 -0.84064202054E+03  0.24859429655E+04  0.26455210270E+04  0.00000000000E+00 0. -1.
<mgrwt>
<rscale>  0 0.36562077E+04</rscale>
<asrwt>0</asrwt>
<pdfrwt beam="1">  1        1 0.42272841E+00 0.36562077E+04</pdfrwt>
<pdfrwt beam="2">  1       -1 0.18711714E+00 0.36562077E+04</pdfrwt>
<totfact> 0.13532693E-01</totfact>
</mgrwt>
</event>
<event>
 6    1  0.2047711E-005  0.3399418E+04  0.7818608E-02  0.8138049E-01
          2   -1    0    0  501    0  0.00000000000E+00  0.00000000000E+00  0.18375253024E+04  0.18375253024E+04  0.00000000000E+00 0. -1.
         -2   -1    0    0    0  501 -0.00000000000E+00 -0.00000000000E+00 -0.15722290591E+04  0.15722290591E+04  0.00000000000E+00 0.  1.
         23    2    1    2    0    0  0.81945280593E+03  0.11997661714E+04 -0.74979668832E+03  0.16373674322E+04  0.88517044101E+02 0.  0.
         11    1    3    3    0    0  0.48617450716E+03  0.74564917658E+03 -0.41545189379E+03  0.98232307414E+03  0.00000000000E+00 0.  1.
        -11    1    3    3    0    0  0.33327829877E+03  0.45411699485E+03 -0.33434479454E+03  0.65504435810E+03  0.00000000000E+00 0. -1.
         22    1    1    2    0    0 -0.81945280593E+03 -0.11997661714E+04  0.10150929316E+04  0.17723869293E+04  0.00000000000E+00 0. -1.
<mgrwt>
<rscale>  0 0.33994180E+04</rscale>
<asrwt>0</asrwt>
<pdfrwt beam="1">  1        2 0.28269620E+00 0.33994180E+04</pdfrwt>
<pdfrwt beam="2">  1       -2 0.24188139E+00 0.33994180E+04</pdfrwt>
<totfact> 0.49142043E-01</totfact>
</mgrwt>
</event>
<event>
 6    1  0.2047711E-005  0.6694835E+03  0.7818608E-02  0.9770891E-01
         -2   -1    0    0    0  501 -0.00000000000E+00  0.00000000000E+00  0.11466331825E+03  0.11466331825E+03  0.00000000000E+00 0.  1.
          2   -1    0    0  501    0  0.00000000000E+00 -0.00000000000E+00 -0.97722647074E+03  0.97722647074E+03  0.00000000000E+00 0. -1.
         23    2    1    2    0    0 -0.24917780240E+03  0.21347210896E+03 -0.41794523116E+03  0.53930946500E+03  0.92285233235E+02 0.  0.
         13    1    3    3    0    0 -0.38550611953E+02  0.71640819431E+02 -0.14673627528E+03  0.16777988906E+03  0.00000000000E+00 0. -1.
        -13    1    3    3    0    0 -0.21062719044E+03  0.14183128952E+03 -0.27120895588E+03  0.37152957593E+03  0.00000000000E+00 0.  1.
         22    1    1    2    0    0  0.24917780240E+03 -0.21347210896E+03 -0.44461792132E+03  0.55258032400E+03  0.00000000000E+00 0.  1.
<mgrwt>
<rscale>  0 0.66948347E+03</rscale>
<asrwt>0</asrwt>
<pdfrwt beam="1">  1        2 0.15034254E+00 0.66948347E+03</pdfrwt>
<pdfrwt beam="2">  1       -2 0.17640510E-01 0.66948347E+03</pdfrwt>
<totfact> 0.69690290E+02</totfact>
</mgrwt>
</event>
<event>
 6    1  0.2047711E-005  0.3819896E+04  0.7818608E-02  0.8041899E-01
          2   -1    0    0  501    0  0.00000000000E+00  0.00000000000E+00  0.24308583370E+04  0.24308583370E+04  0.00000000000E+00 0. -1.
         -2   -1    0    0    0  501 -0.00000000000E+00 -0.00000000000E+00 -0.15006636478E+04  0.15006636478E+04  0.00000000000E+00 0.  1.
         23    2    1    2    0    0 -0.80997818733E+03  0.11386163761E+04  0.18038344386E+04  0.22835661822E+04  0.91345009432E+02 0.  0.
         13    1    3    3    0    0 -0.24232458205E+03  0.38234978491E+03  0.52739804015E+03  0.69502608141E+03  0.00000000000E+00 0.  1.
        -13    1    3    3    0    0 -0.56765360528E+03  0.75626659115E+03  0.12764363984E+04  0.15885401007E+04  0.00000000000E+00 0. -1.
         22    1    1    2    0    0  0.80997818733E+03 -0.11386163761E+04 -0.87363974937E+03  0.16479558026E+04  0.00000000000E+00 0.  1.
<mgrwt>
<rscale>  0 0.38198957E+04</rscale>
<asrwt>0</asrwt>
<pdfrwt beam="1">  1        2 0.37397821E+00 0.38198957E+04</pdfrwt>
<pdfrwt beam="2">  1       -2 0.23087133E+00 0.38198957E+04</pdfrwt>
<totfact> 0.25795229E-01</totfact>
</mgrwt>
</event>
<event>
 6    1  0.2047711E-005  0.3084309E+04  0.7818608E-02  0.8220057E-01
         -2   -1    0    0    0  501 -0.00000000000E+00  0.00000000000E+00  0.12953160544E+04  0.12953160544E+04  0.00000000000E+00 0.  1.
          2   -1    0    0  501    0  0.00000000000E+00 -0.00000000000E+00 -0.18360309144E+04  0.18360309144E+04  0.00000000000E+00 0. -1.
         23    2    1    2    0    0  0.59733175059E+03 -0.16563705613E+03 -0.17027620604E+04  0.18143068971E+04  0.89833333976E+02 0.  0.
         13    1    3    3    0    0  0.39398261252E+03 -0.10470355673E+03 -0.12371965238E+04  0.13026282556E+04  0.00000000000E+00 0. -1.
        -13    1    3    3    0    0  0.20334913807E+03 -0.60933499403E+02 -0.46556553655E+03  0.51167864147E+03  0.00000000000E+00 0.  1.
         22    1    1    2    0    0 -0.59733175059E+03  0.16563705613E+03  0.11620472004E+04  0.13170400717E+04  0.00000000000E+00 0.  1.
<mgrwt>
<rscale>  0 0.30843089E+04</rscale>
<asrwt>0</asrwt>
<pdfrwt beam="1">  1        2 0.28246629E+00 0.30843089E+04</pdfrwt>
<pdfrwt beam="2">  1       -2 0.19927939E+00 0.30843089E+04</pdfrwt>
<totfact> 0.94202293E-01</totfact>
</mgrwt>
</event>
<event>
 6    1  0.2047711E-005  0.4467168E+04  0.7818608E-02  0.7916410E-01
          2   -1    0    0  501    0  0.00000000000E+00  0.00000000000E+00  0.25092936262E+04  0.25092936262E+04  0.00000000000E+00 0. -1.
         -2   -1    0    0    0  501 -0.00000000000E+00 -0.00000000000E+00 -0.19881679917E+04  0.19881679917E+04  0.00000000000E+00 0.  1.
         23    2    1    2    0    0  0.50081002043E+03 -0.11602821199E+04 -0.15923923747E+04  0.20349377806E+04  0.90515310768E+02 0.  0.
         11    1    3    3    0    0  0.12938254679E+03 -0.26474072808E+03 -0.43038512419E+03  0.52159261080E+03  0.00000000000E+00 0.  1.
        -11    1    3    3    0    0  0.37142747364E+03 -0.89554139181E+03 -0.11620072505E+04  0.15133451698E+04  0.00000000000E+00 0. -1.
         22    1    1    2    0    0 -0.50081002043E+03  0.11602821199E+04  0.21135180092E+04  0.24625238374E+04  0.00000000000E+00 0. -1.
<mgrwt>
<rscale>  0 0.44671679E+04</rscale>
<asrwt>0</asrwt>
<pdfrwt beam="1">  1        2 0.38604517E+00 0.44671679E+04</pdfrwt>
<pdfrwt beam="2">  1       -2 0.30587200E+00 0.44671679E+04</pdfrwt>
<totfact> 0.76414555E-02</totfact>
</mgrwt>
</event>
<event>
 6    1  0.2047711E-005  0.3522512E+04  0.7818608E-02  0.8108476E-01
         -2   -1    0    0    0  501 -0.00000000000E+00  0.00000000000E+00  0.99015050868E+03  0.99015050868E+03  0.00000000000E+00 0.  1.
          2   -1    0    0  501    0  0.00000000000E+00 -0.00000000000E+00 -0.31328791770E+04  0.31328791770E+04  0.00000000000E+00 0. -1.
         23    2    1    2    0    0  0.14948758706E+04  0.10149166670E+03 -0.21530530853E+04  0.26246769166E+04  0.91306635710E+02 0.  0.
         13    1    3    3    0    0  0.14598699925E+04  0.99157264117E+02 -0.21234237096E+04  0.25787556706E+04  0.00000000000E+00 0. -1.
        -13    1    3    3    0    0  0.35005878065E+02  0.23344025824E+01 -0.29629375718E+02  0.45921246063E+02  0.00000000000E+00 0.  1.
         22    1    1    2    0    0 -0.14948758706E+04 -0.10149166670E+03  0.10324416989E+02  0.14983527690E+04  0.00000000000E+00 0.  1.
<mgrwt>
<rscale>  0 0.35225116E+04</rscale>
<asrwt>0</asrwt>
<pdfrwt beam="1">  1        2 0.48198140E+00 0.35225116E+04</pdfrwt>
<pdfrwt beam="2">  1       -2 0.15233085E+00 0.35225116E+04</pdfrwt>
<totfact> 0.33780327E-01</totfact>
</mgrwt>
</event>
<event>
 6    1  0.2047711E-005  0.4051965E+04  0.7818608E-02  0.7994145E-01
         -2   -1    0    0    0  501 -0.00000000000E+00  0.00000000000E+00  0.14020121423E+04  0.14020121423E+04  0.00000000000E+00 0.  1.
          2   -1    0    0  501    0  0.00000000000E+00 -0.00000000000E+00 -0.29276523790E+04  0.29276523790E+04  0.00000000000E+00 0. -1.
         23    2    1    2    0    0  0.98087142189E+03 -0.42027795873E+03 -0.26021325162E+04  0.28138881735E+04  0.90170461244E+02 0.  0.
         13    1    3    3    0    0  0.57974892289E+03 -0.23410074084E+03 -0.14111933734E+04  0.15434956131E+04  0.00000000000E+00 0. -1.
        -13    1    3    3    0    0  0.40112249900E+03 -0.18617721790E+03 -0.11909391428E+04  0.12703925604E+04  0.00000000000E+00 0.  1.
         22    1    1    2    0    0 -0.98087142189E+03  0.42027795873E+03  0.10764922795E+04  0.15157763478E+04  0.00000000000E+00 0.  1.
<mgrwt>
<rscale>  0 0.40519646E+04</rscale>
<asrwt>0</asrwt>
<pdfrwt beam="1">  1        2 0.45040805E+00 0.40519646E+04</pdfrwt>
<pdfrwt beam="2">  1       -2 0.21569418E+00 0.40519646E+04</pdfrwt>
<totfact> 0.15966743E-01</totfact>
</mgrwt>
</event>
<event>
 6    1  0.2047711E-005  0.3179983E+04  0.7818608E-02  0.8194124E-01
          2   -1    0    0  501    0  0.00000000000E+00  0.00000000000E+00  0.16871758137E+04  0.16871758137E+04  0.00000000000E+00 0. -1.
         -2   -1    0    0    0  501 -0.00000000000E+00 -0.00000000000E+00 -0.14984049239E+04  0.14984049239E+04  0.00000000000E+00 0.  1.
         23    2    1    2    0    0 -0.98178195782E+03 -0.11288739425E+04 -0.44099118980E+03  0.15623578732E+04  0.90756287292E+02 0.  0.
         11    1    3    3    0    0 -0.61866817234E+03 -0.68604329971E+03 -0.31466909588E+03  0.97592128599E+03  0.00000000000E+00 0.  1.
        -11    1    3    3    0    0 -0.36311378547E+03 -0.44283064274E+03 -0.12632209393E+03  0.58643658716E+03  0.00000000000E+00 0. -1.
         22    1    1    2    0    0  0.98178195782E+03  0.11288739425E+04  0.62976207957E+03  0.16232228644E+04  0.00000000000E+00 0. -1.
<mgrwt>
<rscale>  0 0.31799827E+04</rscale>
<asrwt>0</asrwt>
<pdfrwt beam="1">  1        2 0.25956551E+00 0.31799827E+04</pdfrwt>
<pdfrwt beam="2">  1       -2 0.23052384E+00 0.31799827E+04</pdfrwt>
<totfact> 0.71358154E-01</totfact>
</mgrwt>
</event>
<event>
 6    1  0.2047711E-005  0.2515194E+04  0.7818608E-02  0.8397593E-01
          2   -1    0    0  501    0  0.00000000000E+00  0.00000000000E+00  0.17266096005E+04  0.17266096005E+04  0.00000000000E+00 0. -1.
         -2   -1    0    0    0  501 -0.00000000000E+00 -0.00000000000E+00 -0.91598569927E+03  0.91598569927E+03  0.00000000000E+00 0.  1.
         23    2    1    2    0    0  0.82683941540E+03 -0.25521334863E+03  0.13622575952E+04  0.16163901523E+04  0.90410710726E+02 0.  0.
         11    1    3    3    0    0  0.50958573651E+03 -0.13529344794E+03  0.75565498653E+03  0.92141000569E+03  0.00000000000E+00 0. -1.
        -11    1    3    3    0    0  0.31725367889E+03 -0.11991990068E+03  0.60660260870E+03  0.69498014665E+03  0.00000000000E+00 0.  1.
         22    1    1    2    0    0 -0.82683941540E+03  0.25521334863E+03 -0.55163369402E+03  0.10262051474E+04  0.00000000000E+00 0.  1.
<mgrwt>
<rscale>  0 0.25151936E+04</rscale>
<asrwt>0</asrwt>
<pdfrwt beam="1">  1        2 0.26563225E+00 0.25151936E+04</pdfrwt>
<pdfrwt beam="2">  1       -2 0.14092088E+00 0.25151936E+04</pdfrwt>
<totfact> 0.29814520E+00</totfact>
</mgrwt>
</event>
<event>
 6    1  0.2047711E-005  0.2477021E+04  0.7818608E-02  0.8411218E-01
         -1   -1    0    0    0  501 -0.00000000000E+00  0.00000000000E+00  0.85859053233E+03  0.85859053233E+03  0.00000000000E+00 0.  1.
          1   -1    0    0  501    0  0.00000000000E+00 -0.00000000000E+00 -0.17865425113E+04  0.17865425113E+04  0.00000000000E+00 0. -1.
         23    2    1    2    0    0 -0.99407991682E+03  0.28651558876E+03 -0.11883956987E+04  0.15783073809E+04  0.92107481521E+02 0.  0.
         13    1    3    3    0    0 -0.69711919688E+03  0.19913239878E+03 -0.89502730458E+03  0.11518258388E+04  0.00000000000E+00 0. -1.
        -13    1    3    3    0    0 -0.29696071994E+03  0.87383189976E+02 -0.29336839415E+03  0.42648154211E+03  0.00000000000E+00 0.  1.
         22    1    1    2    0    0  0.99407991682E+03 -0.28651558876E+03  0.26044371973E+03  0.10668256628E+04  0.00000000000E+00 0.  1.
<mgrwt>
<rscale>  0 0.24770212E+04</rscale>
<asrwt>0</asrwt>
<pdfrwt beam="1">  1        1 0.27485270E+00 0.24770212E+04</pdfrwt>
<pdfrwt beam="2">  1       -1 0.13209085E+00 0.24770212E+04</pdfrwt>
<totfact> 0.18037192E+00</totfact>
</mgrwt>
</event>
<event>
 6    1  0.2047711E-005  0.3287904E+04  0.7818608E-02  0.8165980E-01
          2   -1    0    0  501    0  0.00000000000E+00  0.00000000000E+00  0.18728582359E+04  0.18728582359E+04  0.00000000000E+00 0. -1.
         -2   -1    0    0    0  501 -0.00000000000E+00 -0.00000000000E+00 -0.14430231746E+04  0.14430231746E+04  0.00000000000E+00 0.  1.
         23    2    1    2    0    0  0.14995715801E+03  0.13081240471E+04  0.12056901195E+04  0.17876056685E+04  0.90386337394E+02 0.  0.
         13    1    3    3    0    0  0.13220198674E+03  0.87630607451E+03  0.84845736852E+03  0.12268942936E+04  0.00000000000E+00 0.  1.
        -13    1    3    3    0    0  0.17755171270E+02  0.43181797261E+03  0.35723275101E+03  0.56071137493E+03  0.00000000000E+00 0. -1.
         22    1    1    2    0    0 -0.14995715801E+03 -0.13081240471E+04 -0.77585505829E+03  0.15282757419E+04  0.00000000000E+00 0.  1.
<mgrwt>
<rscale>  0 0.32879038E+04</rscale>
<asrwt>0</asrwt>
<pdfrwt beam="1">  1        2 0.28813204E+00 0.32879038E+04</pdfrwt>
<pdfrwt beam="2">  1       -2 0.22200357E+00 0.32879038E+04</pdfrwt>
<totfact> 0.63094737E-01</totfact>
</mgrwt>
</event>
<event>
 6    1  0.2047711E-005  0.3253300E+04  0.7818608E-02  0.8174881E-01
          2   -1    0    0  501    0  0.00000000000E+00  0.00000000000E+00  0.34318548438E+04  0.34318548438E+04  0.00000000000E+00 0. -1.
         -2   -1    0    0    0  501 -0.00000000000E+00 -0.00000000000E+00 -0.77100857946E+03  0.77100857946E+03  0.00000000000E+00 0.  1.
         23    2    1    2    0    0 -0.48160647634E+03 -0.15116754410E+04  0.17878545646E+04  0.23920012129E+04  0.90213199699E+02 0.  0.
         11    1    3    3    0    0 -0.26049612630E+03 -0.78649602645E+03  0.86713457170E+03  0.11993150532E+04  0.00000000000E+00 0. -1.
        -11    1    3    3    0    0 -0.22111035004E+03 -0.72517941456E+03  0.92071999290E+03  0.11926861597E+04  0.00000000000E+00 0.  1.
         22    1    1    2    0    0  0.48160647634E+03  0.15116754410E+04  0.87299169971E+03  0.18108622103E+04  0.00000000000E+00 0.  1.
<mgrwt>
<rscale>  0 0.32532996E+04</rscale>
<asrwt>0</asrwt>
<pdfrwt beam="1">  1        2 0.52797766E+00 0.32532996E+04</pdfrwt>
<pdfrwt beam="2">  1       -2 0.11861671E+00 0.32532996E+04</pdfrwt>
<totfact> 0.41487302E-01</totfact>
</mgrwt>
</event>
<event>
 6    1  0.2047711E-005  0.7664005E+03  0.7818608E-02  0.9609966E-01
         -1   -1    0    0    0  501 -0.00000000000E+00  0.00000000000E+00  0.24378909459E+03  0.24378909459E+03  0.00000000000E+00 0.  1.
          1   -1    0    0  501    0  0.00000000000E+00 -0.00000000000E+00 -0.60233394763E+03  0.60233394763E+03  0.00000000000E+00 0. -1.
         23    2    1    2    0    0 -0.98661766834E+02  0.27756807550E+03  0.79134247023E+02  0.31854255034E+03  0.91809294465E+02 0.  0.
         13    1    3    3    0    0 -0.29624250592E+02  0.19950165570E+03  0.32183775570E+02  0.20424079480E+03  0.00000000000E+00 0. -1.
        -13    1    3    3    0    0 -0.69037516242E+02  0.78066419808E+02  0.46950471454E+02  0.11430175554E+03  0.00000000000E+00 0.  1.
         22    1    1    2    0    0  0.98661766834E+02 -0.27756807550E+03 -0.43767910007E+03  0.52758049188E+03  0.00000000000E+00 0.  1.
<mgrwt>
<rscale>  0 0.76640054E+03</rscale>
<asrwt>0</asrwt>
<pdfrwt beam="1">  1        1 0.92666761E-01 0.76640054E+03</pdfrwt>
<pdfrwt beam="2">  1       -1 0.37506014E-01 0.76640054E+03</pdfrwt>
<totfact> 0.23589445E+02</totfact>
</mgrwt>
</event>
<event>
 6    1  0.2047711E-005  0.2753981E+04  0.7818608E-02  0.8317699E-01
         -2   -1    0    0    0  501 -0.00000000000E+00  0.00000000000E+00  0.20258530539E+04  0.20258530539E+04  0.00000000000E+00 0.  1.
          2   -1    0    0  501    0  0.00000000000E+00 -0.00000000000E+00 -0.93595284409E+03  0.93595284409E+03  0.00000000000E+00 0. -1.
         23    2    1    2    0    0 -0.34213966137E+03 -0.13147049820E+04  0.77755314099E+03  0.15678656450E+04  0.90028084997E+02 0.  0.
         11    1    3    3    0    0 -0.52657882165E+02 -0.28342483106E+03  0.13028689685E+03  0.31634974776E+03  0.00000000000E+00 0. -1.
        -11    1    3    3    0    0 -0.28948177920E+03 -0.10312801509E+04  0.64726624414E+03  0.12515158972E+04  0.00000000000E+00 0.  1.
         22    1    1    2    0    0  0.34213966137E+03  0.13147049820E+04  0.31234706883E+03  0.13939402530E+04  0.00000000000E+00 0. -1.
<mgrwt>
<rscale>  0 0.27539811E+04</rscale>
<asrwt>0</asrwt>
<pdfrwt beam="1">  1        2 0.14399275E+00 0.27539811E+04</pdfrwt>
<pdfrwt beam="2">  1       -2 0.31166970E+00 0.27539811E+04</pdfrwt>
<totfact> 0.65293306E-01</totfact>
</mgrwt>
</event>
<event>
 6    1  0.2314184E-005  0.2626070E+04  0.7818608E-02  0.8359399E-01
          2   -1    0    0  501    0  0.00000000000E+00  0.00000000000E+00  0.22056865549E+04  0.22056865549E+04  0.00000000000E+00 0. -1.
         -2   -1    0    0    0  501 -0.00000000000E+00 -0.00000000000E+00 -0.78164354274E+03  0.78164354274E+03  0.00000000000E+00 0.  1.
         23    2    1    2    0    0 -0.92790219893E+03 -0.15919361416E+03  0.17519113296E+04  0.19904134857E+04  0.78787307685E+02 0.  0.
         11    1    3    3    0    0 -0.57832121092E+03 -0.11927722031E+03  0.11653076964E+04  0.13063783929E+04  0.00000000000E+00 0. -1.
        -11    1    3    3    0    0 -0.34958098801E+03 -0.39916393841E+02  0.58660363318E+03  0.68403509277E+03  0.00000000000E+00 0.  1.
         22    1    1    2    0    0  0.92790219893E+03  0.15919361416E+03 -0.32786831742E+03  0.99691661193E+03  0.00000000000E+00 0.  1.
<mgrwt>
<rscale>  0 0.26260698E+04</rscale>
<asrwt>0</asrwt>
<pdfrwt beam="1">  1        2 0.33933639E+00 0.26260698E+04</pdfrwt>
<pdfrwt beam="2">  1       -2 0.12025285E+00 0.26260698E+04</pdfrwt>
<totfact> 0.23896967E+00</totfact>
</mgrwt>
</event>
<event>
 6    1  0.2047711E-005  0.8081747E+03  0.7818608E-02  0.9548259E-01
          2   -1    0    0  501    0  0.00000000000E+00  0.00000000000E+00  0.45728211403E+03  0.45728211403E+03  0.00000000000E+00 0. -1.
         -2   -1    0    0    0  501 -0.00000000000E+00 -0.00000000000E+00 -0.35708059863E+03  0.35708059863E+03  0.00000000000E+00 0.  1.
         23    2    1    2    0    0 -0.17316821132E+03 -0.23017048123E+03  0.32921745385E+03  0.44637632718E+03  0.88893271444E+02 0.  0.
         13    1    3    3    0    0 -0.91752863632E+02 -0.13866195417E+03  0.25090629650E+03  0.30099783245E+03  0.00000000000E+00 0. -1.
        -13    1    3    3    0    0 -0.81415347683E+02 -0.91508527065E+02  0.78311157349E+02  0.14537849473E+03  0.00000000000E+00 0.  1.
         22    1    1    2    0    0  0.17316821132E+03  0.23017048123E+03 -0.22901593844E+03  0.36798638548E+03  0.00000000000E+00 0.  1.
<mgrwt>
<rscale>  0 0.80817466E+03</rscale>
<asrwt>0</asrwt>
<pdfrwt beam="1">  1        2 0.70351094E-01 0.80817466E+03</pdfrwt>
<pdfrwt beam="2">  1       -2 0.54935477E-01 0.80817466E+03</pdfrwt>
<totfact> 0.21432288E+02</totfact>
</mgrwt>
</event>
<event>
 6    1  0.2047711E-005  0.1720830E+04  0.7818608E-02  0.8749573E-01
          2   -1    0    0  501    0  0.00000000000E+00  0.00000000000E+00  0.51956788162E+03  0.51956788162E+03  0.00000000000E+00 0. -1.
         -2   -1    0    0    0  501 -0.00000000000E+00 -0.00000000000E+00 -0.14248644076E+04  0.14248644076E+04  0.00000000000E+00 0.  1.
         23    2    1    2    0    0 -0.34185828243E+03  0.50655974349E+03  0.22587907643E+03  0.65873088435E+03  0.97134761231E+02 0.  0.
         13    1    3    3    0    0 -0.14997562289E+03  0.29599614434E+03  0.94499739087E+02  0.34501681932E+03  0.00000000000E+00 0. -1.
        -13    1    3    3    0    0 -0.19188265953E+03  0.21056359915E+03  0.13137933734E+03  0.31371406503E+03  0.00000000000E+00 0.  1.
         22    1    1    2    0    0  0.34185828243E+03 -0.50655974349E+03 -0.11311756024E+04  0.12857014048E+04  0.00000000000E+00 0.  1.
<mgrwt>
<rscale>  0 0.17208298E+04</rscale>
<asrwt>0</asrwt>
<pdfrwt beam="1">  1        2 0.79933521E-01 0.17208298E+04</pdfrwt>
<pdfrwt beam="2">  1       -2 0.21920991E+00 0.17208298E+04</pdfrwt>
<totfact> 0.55883490E+00</totfact>
</mgrwt>
</event>
<event>
 6    1  0.2047711E-005  0.2545092E+04  0.7818608E-02  0.8387095E-01
          2   -1    0    0  501    0  0.00000000000E+00  0.00000000000E+00  0.32335532400E+04  0.32335532400E+04  0.00000000000E+00 0. -1.
         -2   -1    0    0    0  501 -0.00000000000E+00 -0.00000000000E+00 -0.50080287182E+03  0.50080287182E+03  0.00000000000E+00 0.  1.
         23    2    1    2    0    0 -0.49876402744E+03  0.95658872242E+03  0.38252113709E+03  0.11483543760E+04  0.92562484995E+02 0.  0.
         11    1    3    3    0    0 -0.77554937832E+02  0.17605086551E+03  0.33784423342E+02  0.19532041084E+03  0.00000000000E+00 0. -1.
        -11    1    3    3    0    0 -0.42120908961E+03  0.78053785691E+03  0.34873671375E+03  0.95303396516E+03  0.00000000000E+00 0.  1.
         22    1    1    2    0    0  0.49876402744E+03 -0.95658872242E+03  0.23502292311E+04  0.25860017358E+04  0.00000000000E+00 0. -1.
<mgrwt>
<rscale>  0 0.25450915E+04</rscale>
<asrwt>0</asrwt>
<pdfrwt beam="1">  1        2 0.49746972E+00 0.25450915E+04</pdfrwt>
<pdfrwt beam="2">  1       -2 0.77046598E-01 0.25450915E+04</pdfrwt>
<totfact> 0.16480135E+00</totfact>
</mgrwt>
</event>
<event>
 6    1  0.2047711E-005  0.2777524E+04  0.7818608E-02  0.8310281E-01
          2   -1    0    0  501    0  0.00000000000E+00  0.00000000000E+00  0.26893642019E+04  0.26893642019E+04  0.00000000000E+00 0. -1.
         -2   -1    0    0    0  501 -0.00000000000E+00 -0.00000000000E+00 -0.71714320147E+03  0.71714320147E+03  0.00000000000E+00 0.  1.
         23    2    1    2    0    0 -0.11342114007E+04 -0.19876331208E+03  0.19360866840E+04  0.22544448858E+04  0.90264829252E+02 0.  0.
         11    1    3    3    0    0 -0.23761887660E+03 -0.57399810848E+02  0.34816459035E+03  0.42541280044E+03  0.00000000000E+00 0. -1.
        -11    1    3    3    0    0 -0.89659252410E+03 -0.14136350123E+03  0.15879220936E+04  0.18290320853E+04  0.00000000000E+00 0.  1.
         22    1    1    2    0    0  0.11342114007E+04  0.19876331208E+03  0.36134316502E+02  0.11520625176E+04  0.00000000000E+00 0. -1.
<mgrwt>
<rscale>  0 0.27775235E+04</rscale>
<asrwt>0</asrwt>
<pdfrwt beam="1">  1        2 0.41374833E+00 0.27775235E+04</pdfrwt>
<pdfrwt beam="2">  1       -2 0.11032972E+00 0.27775235E+04</pdfrwt>
<totfact> 0.15316588E+00</totfact>
</mgrwt>
</event>
<event>
 6    1  0.2047711E-005  0.3651107E+04  0.7818608E-02  0.8078884E-01
         -2   -1    0    0    0  501 -0.00000000000E+00  0.00000000000E+00  0.22892307510E+04  0.22892307510E+04  0.00000000000E+00 0.  1.
          2   -1    0    0  501    0  0.00000000000E+00 -0.00000000000E+00 -0.14557930054E+04  0.14557930054E+04  0.00000000000E+00 0. -1.
         23    2    1    2    0    0 -0.10239710894E+04  0.14556608802E+04  0.53346015101E+01  0.17820616560E+04  0.90828947923E+02 0.  0.
         13    1    3    3    0    0 -0.19354421469E+03  0.31462700031E+03 -0.27885448731E+02  0.37044177764E+03  0.00000000000E+00 0.  1.
        -13    1    3    3    0    0 -0.83042687471E+03  0.11410338799E+04  0.33220050241E+02  0.14116198784E+04  0.00000000000E+00 0. -1.
         22    1    1    2    0    0  0.10239710894E+04 -0.14556608802E+04  0.82810314408E+03  0.19629621003E+04  0.00000000000E+00 0. -1.
<mgrwt>
<rscale>  0 0.36511073E+04</rscale>
<asrwt>0</asrwt>
<pdfrwt beam="1">  1        2 0.22396816E+00 0.36511073E+04</pdfrwt>
<pdfrwt beam="2">  1       -2 0.35218934E+00 0.36511073E+04</pdfrwt>
<totfact> 0.16442491E-01</totfact>
</mgrwt>
</event>
<event>
 6    1  0.2047711E-005  0.8205911E+03  0.7818608E-02  0.9530681E-01
         -2   -1    0    0    0  501 -0.00000000000E+00  0.00000000000E+00  0.10091821527E+03  0.10091821527E+03  0.00000000000E+00 0.  1.
          2   -1    0    0  501    0  0.00000000000E+00 -0.00000000000E+00 -0.16681074776E+04  0.16681074776E+04  0.00000000000E+00 0. -1.
         23    2    1    2    0    0  0.10117128847E+03 -0.39044917160E+03 -0.85143423610E+03  0.94744706438E+03  0.10014737231E+03 0.  0.
         11    1    3    3    0    0 -0.62050948931E+01 -0.15588863655E+03 -0.28130664248E+03  0.32167250008E+03  0.00000000000E+00 0.  1.
        -11    1    3    3    0    0  0.10737638337E+03 -0.23456053505E+03 -0.57012759362E+03  0.62577456429E+03  0.00000000000E+00 0. -1.
         22    1    1    2    0    0 -0.10117128847E+03  0.39044917160E+03 -0.71575502624E+03  0.82157862850E+03  0.00000000000E+00 0.  1.
<mgrwt>
<rscale>  0 0.82059108E+03</rscale>
<asrwt>0</asrwt>
<pdfrwt beam="1">  1        2 0.25663191E+00 0.82059108E+03</pdfrwt>
<pdfrwt beam="2">  1       -2 0.15525880E-01 0.82059108E+03</pdfrwt>
<totfact> 0.34143936E+02</totfact>
</mgrwt>
</event>
<event>
 6    1  0.2047711E-005  0.9218695E+03  0.7818608E-02  0.9398649E-01
         -2   -1    0    0    0  501 -0.00000000000E+00  0.00000000000E+00  0.71571471755E+03  0.71571471755E+03  0.00000000000E+00 0.  1.
          2   -1    0    0  501    0  0.00000000000E+00 -0.00000000000E+00 -0.29685132657E+03  0.29685132657E+03  0.00000000000E+00 0. -1.
         23    2    1    2    0    0 -0.32867653203E+03 -0.23105410622E+03  0.44949916117E+03  0.60963576092E+03  0.90509681267E+02 0.  0.
         13    1    3    3    0    0 -0.19180042726E+03 -0.16739857694E+03  0.22902527052E+03  0.34243577792E+03  0.00000000000E+00 0.  1.
        -13    1    3    3    0    0 -0.13687610477E+03 -0.63655529275E+02  0.22047389064E+03  0.26719998301E+03  0.00000000000E+00 0. -1.
         22    1    1    2    0    0  0.32867653203E+03  0.23105410622E+03 -0.30635770181E+02  0.40293028320E+03  0.00000000000E+00 0. -1.
<mgrwt>
<rscale>  0 0.92186954E+03</rscale>
<asrwt>0</asrwt>
<pdfrwt beam="1">  1        2 0.45669435E-01 0.92186954E+03</pdfrwt>
<pdfrwt beam="2">  1       -2 0.11010996E+00 0.92186954E+03</pdfrwt>
<totfact> 0.72965887E+01</totfact>
</mgrwt>
</event>
<event>
 6    1  0.2047711E-005  0.2438505E+04  0.7818608E-02  0.8425227E-01
         -2   -1    0    0    0  501 -0.00000000000E+00  0.00000000000E+00  0.79629421628E+03  0.79629421628E+03  0.00000000000E+00 0. -1.
          2   -1    0    0  501    0  0.00000000000E+00 -0.00000000000E+00 -0.18668679870E+04  0.18668679870E+04  0.00000000000E+00 0.  1.
         23    2    1    2    0    0 -0.41876685348E+03 -0.11387032191E+04 -0.65258327726E+03  0.13799136882E+04  0.79285271813E+02 0.  0.
         11    1    3    3    0    0 -0.16089077132E+03 -0.55197330699E+03 -0.31125695312E+03  0.65378992252E+03  0.00000000000E+00 0. -1.
        -11    1    3    3    0    0 -0.25787608216E+03 -0.58672991212E+03 -0.34132632414E+03  0.72612376567E+03  0.00000000000E+00 0.  1.
         22    1    1    2    0    0  0.41876685348E+03  0.11387032191E+04 -0.41799049343E+03  0.12832485150E+04  0.00000000000E+00 0. -1.
<mgrwt>
<rscale>  0 0.24385046E+04</rscale>
<asrwt>0</asrwt>
<pdfrwt beam="1">  1        2 0.28721046E+00 0.24385046E+04</pdfrwt>
<pdfrwt beam="2">  1       -2 0.12250680E+00 0.24385046E+04</pdfrwt>
<totfact> 0.35814635E+00</totfact>
</mgrwt>
</event>
<event>
 6    1  0.2047711E-005  0.2365044E+04  0.7818608E-02  0.8452708E-01
         -2   -1    0    0    0  501 -0.00000000000E+00  0.00000000000E+00  0.74011827302E+03  0.74011827302E+03  0.00000000000E+00 0.  1.
          2   -1    0    0  501    0  0.00000000000E+00 -0.00000000000E+00 -0.18893721711E+04  0.18893721711E+04  0.00000000000E+00 0. -1.
         23    2    1    2    0    0  0.92806860593E+03  0.14969700697E+03  0.21881912817E+03  0.96956745303E+03  0.91971212407E+02 0.  0.
         13    1    3    3    0    0  0.66994448037E+02 -0.11476922286E+02  0.72719954388E+01  0.68358304036E+02  0.00000000000E+00 0.  1.
        -13    1    3    3    0    0  0.86107415789E+03  0.16117392926E+03  0.21154713273E+03  0.90120914899E+03  0.00000000000E+00 0. -1.
         22    1    1    2    0    0 -0.92806860593E+03 -0.14969700697E+03 -0.13680730263E+04  0.16599229911E+04  0.00000000000E+00 0.  1.
<mgrwt>
<rscale>  0 0.23650445E+04</rscale>
<asrwt>0</asrwt>
<pdfrwt beam="1">  1        2 0.29067264E+00 0.23650445E+04</pdfrwt>
<pdfrwt beam="2">  1       -2 0.11386435E+00 0.23650445E+04</pdfrwt>
<totfact> 0.41935450E+00</totfact>
</mgrwt>
</event>
<event>
 6    1  0.2047711E-005  0.3234851E+04  0.7818608E-02  0.8179673E-01
          2   -1    0    0  501    0  0.00000000000E+00  0.00000000000E+00  0.38465722049E+04  0.38465722049E+04  0.00000000000E+00 0. -1.
         -2   -1    0    0    0  501 -0.00000000000E+00 -0.00000000000E+00 -0.68010306572E+03  0.68010306572E+03  0.00000000000E+00 0.  1.
         23    2    1    2    0    0 -0.82054583425E+02 -0.16112769900E+04  0.14455375487E+04  0.21677449977E+04  0.81197768186E+02 0.  0.
         13    1    3    3    0    0  0.14664140516E+02 -0.30316341999E+03  0.25826514516E+03  0.39852726562E+03  0.00000000000E+00 0. -1.
        -13    1    3    3    0    0 -0.96718723941E+02 -0.13081135700E+04  0.11872724035E+04  0.17692177321E+04  0.00000000000E+00 0.  1.
         22    1    1    2    0    0  0.82054583425E+02  0.16112769900E+04  0.17209315905E+04  0.23589302729E+04  0.00000000000E+00 0. -1.
<mgrwt>
<rscale>  0 0.32348512E+04</rscale>
<asrwt>0</asrwt>
<pdfrwt beam="1">  1        2 0.59178033E+00 0.32348512E+04</pdfrwt>
<pdfrwt beam="2">  1       -2 0.10463124E+00 0.32348512E+04</pdfrwt>
<totfact> 0.28109998E-01</totfact>
</mgrwt>
</event>
<event>
 6    1  0.2047711E-005  0.1763747E+04  0.7818608E-02  0.8725819E-01
          2   -1    0    0  501    0  0.00000000000E+00  0.00000000000E+00  0.14705853797E+04  0.14705853797E+04  0.00000000000E+00 0.  1.
         -2   -1    0    0    0  501 -0.00000000000E+00 -0.00000000000E+00 -0.52883766115E+03  0.52883766115E+03  0.00000000000E+00 0. -1.
         23    2    1    2    0    0  0.52291233517E+03  0.64278166003E+03  0.13789311045E+03  0.84495874788E+03  0.91297332744E+02 0.  0.
         13    1    3    3    0    0  0.89409991368E+02  0.13225518624E+03  0.60637818904E+02  0.17077038948E+03  0.00000000000E+00 0. -1.
        -13    1    3    3    0    0  0.43350234380E+03  0.51052647379E+03  0.77255291542E+02  0.67418835839E+03  0.00000000000E+00 0.  1.
         22    1    1    2    0    0 -0.52291233517E+03 -0.64278166003E+03  0.80385460807E+03  0.11544642929E+04  0.00000000000E+00 0. -1.
<mgrwt>
<rscale>  0 0.17637471E+04</rscale>
<asrwt>0</asrwt>
<pdfrwt beam="1">  1        2 0.22624390E+00 0.17637471E+04</pdfrwt>
<pdfrwt beam="2">  1       -2 0.81359641E-01 0.17637471E+04</pdfrwt>
<totfact> 0.16618857E+01</totfact>
</mgrwt>
</event>
<event>
 6    1  0.2047711E-005  0.9192301E+03  0.7818608E-02  0.9401857E-01
          2   -1    0    0  501    0  0.00000000000E+00  0.00000000000E+00  0.23514230900E+04  0.23514230900E+04  0.00000000000E+00 0.  1.
         -2   -1    0    0    0  501 -0.00000000000E+00 -0.00000000000E+00 -0.89837509950E+02  0.89837509950E+02  0.00000000000E+00 0. -1.
         23    2    1    2    0    0  0.22421241110E+03 -0.38072907072E+03  0.85397902471E+03  0.96593621351E+03  0.92340475144E+02 0.  0.
         13    1    3    3    0    0  0.15524995719E+03 -0.28814608439E+03  0.54054059222E+03  0.63191363887E+03  0.00000000000E+00 0.  1.
        -13    1    3    3    0    0  0.68962453912E+02 -0.92582986328E+02  0.31343843249E+03  0.33402257464E+03  0.00000000000E+00 0. -1.
         22    1    1    2    0    0 -0.22421241110E+03  0.38072907072E+03  0.14076065554E+04  0.14753243865E+04  0.00000000000E+00 0.  1.
<mgrwt>
<rscale>  0 0.91923010E+03</rscale>
<asrwt>0</asrwt>
<pdfrwt beam="1">  1        2 0.36175735E+00 0.91923010E+03</pdfrwt>
<pdfrwt beam="2">  1       -2 0.13821157E-01 0.91923010E+03</pdfrwt>
<totfact> 0.17344414E+02</totfact>
</mgrwt>
</event>
<event>
 6    1  0.2047711E-005  0.2951277E+04  0.7818608E-02  0.8257783E-01
         -2   -1    0    0    0  501 -0.00000000000E+00  0.00000000000E+00  0.13631932114E+04  0.13631932114E+04  0.00000000000E+00 0. -1.
          2   -1    0    0  501    0  0.00000000000E+00 -0.00000000000E+00 -0.15973586683E+04  0.15973586683E+04  0.00000000000E+00 0.  1.
         23    2    1    2    0    0 -0.61628365643E+03  0.29005001153E+03 -0.14287527223E+04  0.15854252350E+04  0.91127821321E+02 0.  0.
         13    1    3    3    0    0 -0.22288843668E+03  0.14083421281E+03 -0.48216215499E+03  0.54953969320E+03  0.00000000000E+00 0.  1.
        -13    1    3    3    0    0 -0.39339521975E+03  0.14921579872E+03 -0.94659056732E+03  0.10358855418E+04  0.00000000000E+00 0. -1.
         22    1    1    2    0    0  0.61628365643E+03 -0.29005001153E+03  0.11945872654E+04  0.13751266448E+04  0.00000000000E+00 0. -1.
<mgrwt>
<rscale>  0 0.29512767E+04</rscale>
<asrwt>0</asrwt>
<pdfrwt beam="1">  1        2 0.24574749E+00 0.29512767E+04</pdfrwt>
<pdfrwt beam="2">  1       -2 0.20972203E+00 0.29512767E+04</pdfrwt>
<totfact> 0.11059093E+00</totfact>
</mgrwt>
</event>
<event>
 6    1  0.2047711E-005  0.1299225E+04  0.7818608E-02  0.9030180E-01
         -2   -1    0    0    0  501 -0.00000000000E+00  0.00000000000E+00  0.19267028474E+03  0.19267028474E+03  0.00000000000E+00 0.  1.
          2   -1    0    0  501    0  0.00000000000E+00 -0.00000000000E+00 -0.21902523612E+04  0.21902523612E+04  0.00000000000E+00 0. -1.
         23    2    1    2    0    0  0.62205100188E+03  0.14271137069E+03 -0.11923100194E+04  0.13554125146E+04  0.90696846428E+02 0.  0.
         11    1    3    3    0    0  0.45317065747E+03  0.12497508793E+03 -0.94431039236E+03  0.10548481097E+04  0.00000000000E+00 0.  1.
        -11    1    3    3    0    0  0.16888034441E+03  0.17736282758E+02 -0.24799962707E+03  0.30056440488E+03  0.00000000000E+00 0. -1.
         22    1    1    2    0    0 -0.62205100188E+03 -0.14271137069E+03 -0.80527205707E+03  0.10275101314E+04  0.00000000000E+00 0.  1.
<mgrwt>
<rscale>  0 0.12992252E+04</rscale>
<asrwt>0</asrwt>
<pdfrwt beam="1">  1        2 0.33696191E+00 0.12992252E+04</pdfrwt>
<pdfrwt beam="2">  1       -2 0.29641581E-01 0.12992252E+04</pdfrwt>
<totfact> 0.53867691E+01</totfact>
</mgrwt>
</event>
<event>
 6    1  0.2047711E-005  0.2099778E+04  0.7818608E-02  0.8561341E-01
         -1   -1    0    0    0  501 -0.00000000000E+00  0.00000000000E+00  0.64225956324E+03  0.64225956324E+03  0.00000000000E+00 0.  1.
          1   -1    0    0  501    0  0.00000000000E+00 -0.00000000000E+00 -0.17162319812E+04  0.17162319812E+04  0.00000000000E+00 0. -1.
         23    2    1    2    0    0  0.54733023394E+03  0.24440190504E+02 -0.15419209797E+04  0.16379753654E+04  0.72631138630E+02 0.  0.
         11    1    3    3    0    0  0.10723918029E+03  0.30712698419E+02 -0.35265978747E+03  0.36988165314E+03  0.00000000000E+00 0. -1.
        -11    1    3    3    0    0  0.44009105365E+03 -0.62725079144E+01 -0.11892611922E+04  0.12680937123E+04  0.00000000000E+00 0.  1.
         22    1    1    2    0    0 -0.54733023394E+03 -0.24440190504E+02  0.46794856168E+03  0.72051617905E+03  0.00000000000E+00 0.  1.
<mgrwt>
<rscale>  0 0.20997775E+04</rscale>
<asrwt>0</asrwt>
<pdfrwt beam="1">  1        1 0.26403568E+00 0.20997775E+04</pdfrwt>
<pdfrwt beam="2">  1       -1 0.98809165E-01 0.20997775E+04</pdfrwt>
<totfact> 0.41851224E+00</totfact>
</mgrwt>
</event>
<event>
 6    1  0.2047711E-005  0.2927226E+04  0.7818608E-02  0.8264823E-01
          2   -1    0    0  501    0  0.00000000000E+00  0.00000000000E+00  0.17261798504E+04  0.17261798504E+04  0.00000000000E+00 0. -1.
         -2   -1    0    0    0  501 -0.00000000000E+00 -0.00000000000E+00 -0.12409844419E+04  0.12409844419E+04  0.00000000000E+00 0.  1.
         23    2    1    2    0    0  0.14366248416E+03 -0.11838832795E+04 -0.61482911784E+03  0.13447363317E+04  0.89902329460E+02 0.  0.
         13    1    3    3    0    0  0.14083413962E+03 -0.10162861802E+04 -0.55685542936E+03  0.11673730441E+04  0.00000000000E+00 0. -1.
        -13    1    3    3    0    0  0.28283445363E+01 -0.16759709926E+03 -0.57973688476E+02  0.17736328755E+03  0.00000000000E+00 0.  1.
         22    1    1    2    0    0 -0.14366248416E+03  0.11838832795E+04  0.11000245263E+04  0.16224279606E+04  0.00000000000E+00 0. -1.
<mgrwt>
<rscale>  0 0.29272255E+04</rscale>
<asrwt>0</asrwt>
<pdfrwt beam="1">  1        2 0.26556613E+00 0.29272255E+04</pdfrwt>
<pdfrwt beam="2">  1       -2 0.19092068E+00 0.29272255E+04</pdfrwt>
<totfact> 0.12481086E+00</totfact>
</mgrwt>
</event>
<event>
 6    1  0.2047711E-005  0.1355588E+04  0.7818608E-02  0.8986609E-01
          2   -1    0    0  501    0  0.00000000000E+00  0.00000000000E+00  0.42645326496E+03  0.42645326496E+03  0.00000000000E+00 0. -1.
         -2   -1    0    0    0  501 -0.00000000000E+00 -0.00000000000E+00 -0.10772678817E+04  0.10772678817E+04  0.00000000000E+00 0.  1.
         23    2    1    2    0    0  0.55553890798E+02 -0.66190147821E+03 -0.19525977993E+03  0.69828337068E+03  0.90958685522E+02 0.  0.
         13    1    3    3    0    0  0.29886521876E+02 -0.51936705949E+02 -0.17062733303E+02  0.62303791878E+02  0.00000000000E+00 0. -1.
        -13    1    3    3    0    0  0.25667368922E+02 -0.60996477226E+03 -0.17819704663E+03  0.63597957881E+03  0.00000000000E+00 0.  1.
         22    1    1    2    0    0 -0.55553890798E+02  0.66190147821E+03 -0.45555483684E+03  0.80543777600E+03  0.00000000000E+00 0.  1.
<mgrwt>
<rscale>  0 0.13555876E+04</rscale>
<asrwt>0</asrwt>
<pdfrwt beam="1">  1        2 0.65608195E-01 0.13555876E+04</pdfrwt>
<pdfrwt beam="2">  1       -2 0.16573352E+00 0.13555876E+04</pdfrwt>
<totfact> 0.16494169E+01</totfact>
</mgrwt>
</event>
<event>
 6    1  0.2047711E-005  0.1080700E+04  0.7818608E-02  0.9224209E-01
         -2   -1    0    0    0  501 -0.00000000000E+00  0.00000000000E+00  0.76919589593E+02  0.76919589593E+02  0.00000000000E+00 0.  1.
          2   -1    0    0  501    0  0.00000000000E+00 -0.00000000000E+00 -0.37958904662E+04  0.37958904662E+04  0.00000000000E+00 0. -1.
         23    2    1    2    0    0 -0.18906652846E+03 -0.48222563454E+03 -0.13731478988E+04  0.14704834422E+04  0.92188324851E+02 0.  0.
         13    1    3    3    0    0 -0.50856391795E+02 -0.20749999999E+03 -0.66401066386E+03  0.69753335713E+03  0.00000000000E+00 0.  1.
        -13    1    3    3    0    0 -0.13821013667E+03 -0.27472563455E+03 -0.70913723489E+03  0.77295008511E+03  0.00000000000E+00 0. -1.
         22    1    1    2    0    0  0.18906652846E+03  0.48222563454E+03 -0.23458229779E+04  0.24023266136E+04  0.00000000000E+00 0. -1.
<mgrwt>
<rscale>  0 0.10807004E+04</rscale>
<asrwt>0</asrwt>
<pdfrwt beam="1">  1        2 0.58398317E+00 0.10807004E+04</pdfrwt>
<pdfrwt beam="2">  1       -2 0.11833783E-01 0.10807004E+04</pdfrwt>
<totfact> 0.26784907E+01</totfact>
</mgrwt>
</event>
<event>
 6    1  0.2047711E-005  0.4057667E+04  0.7818608E-02  0.7993013E-01
         -1   -1    0    0    0  501 -0.00000000000E+00  0.00000000000E+00  0.22815965766E+04  0.22815965766E+04  0.00000000000E+00 0.  1.
          1   -1    0    0  501    0  0.00000000000E+00 -0.00000000000E+00 -0.18040728189E+04  0.18040728189E+04  0.00000000000E+00 0. -1.
         23    2    1    2    0    0 -0.78041172264E+03 -0.14987212082E+04  0.13676795087E+04  0.21758042229E+04  0.91482573187E+02 0.  0.
         13    1    3    3    0    0 -0.70755180437E+03 -0.13966874270E+04  0.12444393226E+04  0.19999986381E+04  0.00000000000E+00 0. -1.
        -13    1    3    3    0    0 -0.72859918266E+02 -0.10203378119E+03  0.12324018611E+03  0.17580558486E+03  0.00000000000E+00 0.  1.
         22    1    1    2    0    0  0.78041172264E+03  0.14987212082E+04 -0.89015575102E+03  0.19098651726E+04  0.00000000000E+00 0. -1.
<mgrwt>
<rscale>  0 0.40576675E+04</rscale>
<asrwt>0</asrwt>
<pdfrwt beam="1">  1        1 0.27754966E+00 0.40576675E+04</pdfrwt>
<pdfrwt beam="2">  1       -1 0.35101486E+00 0.40576675E+04</pdfrwt>
<totfact> 0.48226017E-02</totfact>
</mgrwt>
</event>
<event>
 6    1  0.2047711E-005  0.2274044E+04  0.7818608E-02  0.8488226E-01
          2   -1    0    0  501    0  0.00000000000E+00  0.00000000000E+00  0.17858968535E+04  0.17858968535E+04  0.00000000000E+00 0. -1.
         -2   -1    0    0    0  501 -0.00000000000E+00 -0.00000000000E+00 -0.72390455644E+03  0.72390455644E+03  0.00000000000E+00 0.  1.
         23    2    1    2    0    0  0.70837994462E+03 -0.78842485490E+03  0.97974136443E+03  0.14467016434E+04  0.98166216558E+02 0.  0.
         11    1    3    3    0    0  0.40443358125E+03 -0.38412964747E+03  0.48470456750E+03  0.73895915006E+03  0.00000000000E+00 0. -1.
        -11    1    3    3    0    0  0.30394636337E+03 -0.40429520743E+03  0.49503679693E+03  0.70774249333E+03  0.00000000000E+00 0.  1.
         22    1    1    2    0    0 -0.70837994462E+03  0.78842485490E+03  0.82250932657E+02  0.10630997666E+04  0.00000000000E+00 0.  1.
<mgrwt>
<rscale>  0 0.22740439E+04</rscale>
<asrwt>0</asrwt>
<pdfrwt beam="1">  1        2 0.27475336E+00 0.22740439E+04</pdfrwt>
<pdfrwt beam="2">  1       -2 0.11136993E+00 0.22740439E+04</pdfrwt>
<totfact> 0.50895506E+00</totfact>
</mgrwt>
</event>
<event>
 6    1  0.2047711E-005  0.1828396E+04  0.7818608E-02  0.8691343E-01
         -2   -1    0    0    0  501 -0.00000000000E+00  0.00000000000E+00  0.48490925486E+03  0.48490925486E+03  0.00000000000E+00 0.  1.
          2   -1    0    0  501    0  0.00000000000E+00 -0.00000000000E+00 -0.17235357484E+04  0.17235357484E+04  0.00000000000E+00 0. -1.
         23    2    1    2    0    0  0.22887945008E+03 -0.28546613934E+03  0.38796794931E+03  0.54120590796E+03  0.92238743159E+02 0.  0.
         11    1    3    3    0    0  0.18046341685E+03 -0.23330027825E+03  0.25287731649E+03  0.38851383739E+03  0.00000000000E+00 0.  1.
        -11    1    3    3    0    0  0.48416033230E+02 -0.52165861089E+02  0.13509063282E+03  0.15269207057E+03  0.00000000000E+00 0. -1.
         22    1    1    2    0    0 -0.22887945008E+03  0.28546613934E+03 -0.16265944429E+04  0.16672390953E+04  0.00000000000E+00 0. -1.
<mgrwt>
<rscale>  0 0.18283965E+04</rscale>
<asrwt>0</asrwt>
<pdfrwt beam="1">  1        2 0.26515934E+00 0.18283965E+04</pdfrwt>
<pdfrwt beam="2">  1       -2 0.74601425E-01 0.18283965E+04</pdfrwt>
<totfact> 0.14480979E+01</totfact>
</mgrwt>
</event>
<event>
 6    1  0.2047711E-005  0.7991512E+03  0.7818608E-02  0.9561247E-01
         -2   -1    0    0    0  501 -0.00000000000E+00  0.00000000000E+00  0.25390947154E+04  0.25390947154E+04  0.00000000000E+00 0.  1.
          2   -1    0    0  501    0  0.00000000000E+00 -0.00000000000E+00 -0.62880935419E+02  0.62880935419E+02  0.00000000000E+00 0. -1.
         23    2    1    2    0    0 -0.35831542305E+03  0.85686886229E+02  0.79767442032E+03  0.88348021387E+03  0.92307218596E+02 0.  0.
         13    1    3    3    0    0 -0.10645019862E+03  0.64944163350E+02  0.21865396677E+03  0.25171203055E+03  0.00000000000E+00 0. -1.
        -13    1    3    3    0    0 -0.25186522443E+03  0.20742722879E+02  0.57902045355E+03  0.63176818332E+03  0.00000000000E+00 0.  1.
         22    1    1    2    0    0  0.35831542305E+03 -0.85686886229E+02  0.16785393597E+04  0.17184954369E+04  0.00000000000E+00 0.  1.
<mgrwt>
<rscale>  0 0.79915118E+03</rscale>
<asrwt>0</asrwt>
<pdfrwt beam="1">  1        2 0.96739920E-02 0.79915118E+03</pdfrwt>
<pdfrwt beam="2">  1       -2 0.39062988E+00 0.79915118E+03</pdfrwt>
<totfact> 0.62574740E+00</totfact>
</mgrwt>
</event>
<event>
 6    1  0.2047711E-005  0.2817074E+04  0.7818608E-02  0.8297987E-01
         -2   -1    0    0    0  501 -0.00000000000E+00  0.00000000000E+00  0.59142399279E+03  0.59142399279E+03  0.00000000000E+00 0.  1.
          2   -1    0    0  501    0  0.00000000000E+00 -0.00000000000E+00 -0.33545761602E+04  0.33545761602E+04  0.00000000000E+00 0. -1.
         23    2    1    2    0    0  0.18152029737E+03  0.12948828722E+04 -0.65487658255E+03  0.14651742396E+04  0.90559057946E+02 0.  0.
         13    1    3    3    0    0  0.77950542943E+02  0.75689497043E+03 -0.41960526638E+03  0.86892742101E+03  0.00000000000E+00 0. -1.
        -13    1    3    3    0    0  0.10356975442E+03  0.53798790174E+03 -0.23527131617E+03  0.59624681858E+03  0.00000000000E+00 0.  1.
         22    1    1    2    0    0 -0.18152029737E+03 -0.12948828722E+04 -0.21082755849E+04  0.24808259134E+04  0.00000000000E+00 0. -1.
<mgrwt>
<rscale>  0 0.28170742E+04</rscale>
<asrwt>0</asrwt>
<pdfrwt beam="1">  1        2 0.51608863E+00 0.28170742E+04</pdfrwt>
<pdfrwt beam="2">  1       -2 0.90988308E-01 0.28170742E+04</pdfrwt>
<totfact> 0.91627830E-01</totfact>
</mgrwt>
</event>
<event>
 6    1  0.2047711E-005  0.3595010E+04  0.7818608E-02  0.8091636E-01
         -2   -1    0    0    0  501 -0.00000000000E+00  0.00000000000E+00  0.16876161331E+04  0.16876161331E+04  0.00000000000E+00 0.  1.
          2   -1    0    0  501    0  0.00000000000E+00 -0.00000000000E+00 -0.19145495707E+04  0.19145495707E+04  0.00000000000E+00 0. -1.
         23    2    1    2    0    0  0.16488411456E+04 -0.30887017285E+03  0.53021442332E+03  0.17616900071E+04  0.91358849493E+02 0.  0.
         11    1    3    3    0    0  0.69386420348E+03 -0.88384327061E+02  0.20102707483E+03  0.72778513790E+03  0.00000000000E+00 0. -1.
        -11    1    3    3    0    0  0.95497694209E+03 -0.22048584579E+03  0.32918734849E+03  0.10339048692E+04  0.00000000000E+00 0.  1.
         22    1    1    2    0    0 -0.16488411456E+04  0.30887017285E+03 -0.75714786088E+03  0.18404756967E+04  0.00000000000E+00 0. -1.
<mgrwt>
<rscale>  0 0.35950103E+04</rscale>
<asrwt>0</asrwt>
<pdfrwt beam="1">  1        2 0.29454609E+00 0.35950103E+04</pdfrwt>
<pdfrwt beam="2">  1       -2 0.25963325E+00 0.35950103E+04</pdfrwt>
<totfact> 0.34084674E-01</totfact>
</mgrwt>
</event>
<event>
 6    1  0.2047711E-005  0.9678775E+03  0.7818608E-02  0.9344495E-01
          2   -1    0    0  501    0  0.00000000000E+00  0.00000000000E+00  0.49673934058E+03  0.49673934058E+03  0.00000000000E+00 0. -1.
         -2   -1    0    0    0  501 -0.00000000000E+00 -0.00000000000E+00 -0.47146800377E+03  0.47146800377E+03  0.00000000000E+00 0.  1.
         23    2    1    2    0    0  0.24914852405E+03 -0.17278361905E+03  0.38407690350E+03  0.49845144950E+03  0.94918984706E+02 0.  0.
         11    1    3    3    0    0  0.22965190606E+03 -0.11992401136E+03  0.33669462843E+03  0.42483530841E+03  0.00000000000E+00 0.  1.
        -11    1    3    3    0    0  0.19496617989E+02 -0.52859607691E+02  0.47382275074E+02  0.73616141093E+02  0.00000000000E+00 0. -1.
         22    1    1    2    0    0 -0.24914852405E+03  0.17278361905E+03 -0.35880556670E+03  0.46975589485E+03  0.00000000000E+00 0.  1.
<mgrwt>
<rscale>  0 0.96787748E+03</rscale>
<asrwt>0</asrwt>
<pdfrwt beam="1">  1        2 0.76421438E-01 0.96787748E+03</pdfrwt>
<pdfrwt beam="2">  1       -2 0.72533539E-01 0.96787748E+03</pdfrwt>
<totfact> 0.10677752E+02</totfact>
</mgrwt>
</event>
<event>
 6    1  0.2047711E-005  0.2022073E+04  0.7818608E-02  0.8596370E-01
          2   -1    0    0  501    0  0.00000000000E+00  0.00000000000E+00  0.61229144401E+03  0.61229144401E+03  0.00000000000E+00 0. -1.
         -2   -1    0    0    0  501 -0.00000000000E+00 -0.00000000000E+00 -0.16694583929E+04  0.16694583929E+04  0.00000000000E+00 0.  1.
         23    2    1    2    0    0  0.32693313332E+02 -0.54266798719E+03 -0.14887957693E+04  0.15875878704E+04  0.91460408378E+02 0.  0.
         11    1    3    3    0    0  0.51442993793E+01 -0.17242826933E+03 -0.60158417207E+03  0.62582864106E+03  0.00000000000E+00 0. -1.
        -11    1    3    3    0    0  0.27549013953E+02 -0.37023971786E+03 -0.88721159728E+03  0.96175922933E+03  0.00000000000E+00 0.  1.
         22    1    1    2    0    0 -0.32693313332E+02  0.54266798719E+03  0.43162882048E+03  0.69416196650E+03  0.00000000000E+00 0. -1.
<mgrwt>
<rscale>  0 0.20220733E+04</rscale>
<asrwt>0</asrwt>
<pdfrwt beam="1">  1        2 0.94198682E-01 0.20220733E+04</pdfrwt>
<pdfrwt beam="2">  1       -2 0.25683976E+00 0.20220733E+04</pdfrwt>
<totfact> 0.26177058E+00</totfact>
</mgrwt>
</event>
<event>
 6    1  0.2047711E-005  0.7512466E+04  0.7818608E-02  0.7526776E-01
          2   -1    0    0  501    0  0.00000000000E+00  0.00000000000E+00  0.25000295413E+04  0.25000295413E+04  0.00000000000E+00 0. -1.
         -2   -1    0    0    0  501 -0.00000000000E+00 -0.00000000000E+00 -0.56436481873E+04  0.56436481873E+04  0.00000000000E+00 0.  1.
         23    2    1    2    0    0 -0.14706408096E+04  0.34272927667E+04 -0.20521109006E+04  0.42577403568E+04  0.89853756244E+02 0.  0.
         11    1    3    3    0    0 -0.75451867060E+03  0.17977273338E+04 -0.10246443760E+04  0.22025026875E+04  0.00000000000E+00 0. -1.
        -11    1    3    3    0    0 -0.71612213905E+03  0.16295654329E+04 -0.10274665246E+04  0.20552376693E+04  0.00000000000E+00 0.  1.
         22    1    1    2    0    0  0.14706408096E+04 -0.34272927667E+04 -0.10915077454E+04  0.38859373718E+04  0.00000000000E+00 0.  1.
<mgrwt>
<rscale>  0 0.75124662E+04</rscale>
<asrwt>0</asrwt>
<pdfrwt beam="1">  1        2 0.38461994E+00 0.75124662E+04</pdfrwt>
<pdfrwt beam="2">  1       -2 0.86825355E+00 0.75124662E+04</pdfrwt>
<totfact> 0.44884250E-05</totfact>
</mgrwt>
</event>
<event>
 6    1  0.2800284E-005  0.3570228E+04  0.7818608E-02  0.8097346E-01
          2   -1    0    0  501    0  0.00000000000E+00  0.00000000000E+00  0.18671701674E+04  0.18671701674E+04  0.00000000000E+00 0. -1.
         -2   -1    0    0    0  501 -0.00000000000E+00 -0.00000000000E+00 -0.17066636507E+04  0.17066636507E+04  0.00000000000E+00 0.  1.
         23    2    1    2    0    0  0.43975745563E+03  0.54656497804E+03  0.17221422639E+04  0.18618682513E+04  0.93056503885E+02 0.  0.
         11    1    3    3    0    0  0.55649539076E+02  0.12767130363E+03  0.34734702129E+03  0.37422825410E+03  0.00000000000E+00 0. -1.
        -11    1    3    3    0    0  0.38410791655E+03  0.41889367441E+03  0.13747952426E+04  0.14876399972E+04  0.00000000000E+00 0.  1.
         22    1    1    2    0    0 -0.43975745563E+03 -0.54656497804E+03 -0.15616357472E+04  0.17119655668E+04  0.00000000000E+00 0.  1.
<mgrwt>
<rscale>  0 0.35702277E+04</rscale>
<asrwt>0</asrwt>
<pdfrwt beam="1">  1        2 0.28725695E+00 0.35702277E+04</pdfrwt>
<pdfrwt beam="2">  1       -2 0.26256364E+00 0.35702277E+04</pdfrwt>
<totfact> 0.34818536E-01</totfact>
</mgrwt>
</event>
<event>
 6    1  0.2047711E-005  0.1610650E+04  0.7818608E-02  0.8814032E-01
         -2   -1    0    0    0  501 -0.00000000000E+00  0.00000000000E+00  0.16921235419E+04  0.16921235419E+04  0.00000000000E+00 0.  1.
          2   -1    0    0  501    0  0.00000000000E+00 -0.00000000000E+00 -0.38327463502E+03  0.38327463502E+03  0.00000000000E+00 0. -1.
         23    2    1    2    0    0 -0.55673803832E+03 -0.19140129926E+03  0.13597804473E+04  0.14844787895E+04  0.89903898141E+02 0.  0.
         11    1    3    3    0    0 -0.43022250008E+03 -0.18560735632E+03  0.10906679967E+04  0.11870544087E+04  0.00000000000E+00 0.  1.
        -11    1    3    3    0    0 -0.12651553824E+03 -0.57939429421E+01  0.26911245059E+03  0.29742438073E+03  0.00000000000E+00 0. -1.
         22    1    1    2    0    0  0.55673803832E+03  0.19140129926E+03 -0.50931540400E+02  0.59091938746E+03  0.00000000000E+00 0. -1.
<mgrwt>
<rscale>  0 0.16106496E+04</rscale>
<asrwt>0</asrwt>
<pdfrwt beam="1">  1        2 0.58965330E-01 0.16106496E+04</pdfrwt>
<pdfrwt beam="2">  1       -2 0.26032669E+00 0.16106496E+04</pdfrwt>
<totfact> 0.44434598E+00</totfact>
</mgrwt>
</event>
<event>
 6    1  0.2047711E-005  0.7767873E+03  0.7818608E-02  0.9594238E-01
          2   -1    0    0  501    0  0.00000000000E+00  0.00000000000E+00  0.22784766251E+04  0.22784766251E+04  0.00000000000E+00 0. -1.
         -2   -1    0    0    0  501 -0.00000000000E+00 -0.00000000000E+00 -0.66206344387E+02  0.66206344387E+02  0.00000000000E+00 0.  1.
         23    2    1    2    0    0  0.14449825381E+03 -0.28230200933E+03  0.17699799085E+04  0.18004450222E+04  0.90549610488E+02 0.  0.
         11    1    3    3    0    0  0.10861562284E+03 -0.11360546811E+03  0.87231383643E+03  0.88636052774E+03  0.00000000000E+00 0. -1.
        -11    1    3    3    0    0  0.35882630969E+02 -0.16869654122E+03  0.89766607203E+03  0.91408449450E+03  0.00000000000E+00 0.  1.
         22    1    1    2    0    0 -0.14449825381E+03  0.28230200933E+03  0.44229037224E+03  0.54423794722E+03  0.00000000000E+00 0.  1.
<mgrwt>
<rscale>  0 0.77678725E+03</rscale>
<asrwt>0</asrwt>
<pdfrwt beam="1">  1        2 0.35053481E+00 0.77678725E+03</pdfrwt>
<pdfrwt beam="2">  1       -2 0.10185593E-01 0.77678725E+03</pdfrwt>
<totfact> 0.31957497E+02</totfact>
</mgrwt>
</event>
<event>
 6    1  0.2047711E-005  0.2167972E+04  0.7818608E-02  0.8531878E-01
         -2   -1    0    0    0  501 -0.00000000000E+00  0.00000000000E+00  0.39267639552E+03  0.39267639552E+03  0.00000000000E+00 0.  1.
          2   -1    0    0  501    0  0.00000000000E+00 -0.00000000000E+00 -0.29923504575E+04  0.29923504575E+04  0.00000000000E+00 0. -1.
         23    2    1    2    0    0  0.92163246893E+03  0.23730614875E+03 -0.49805998268E+03  0.10779719438E+04  0.90769758985E+02 0.  0.
         11    1    3    3    0    0  0.39397252320E+03  0.11686868428E+03 -0.26304378431E+03  0.48791871338E+03  0.00000000000E+00 0.  1.
        -11    1    3    3    0    0  0.52765994573E+03  0.12043746447E+03 -0.23501619837E+03  0.59005323037E+03  0.00000000000E+00 0. -1.
         22    1    1    2    0    0 -0.92163246893E+03 -0.23730614875E+03 -0.21016140793E+04  0.23070549093E+04  0.00000000000E+00 0.  1.
<mgrwt>
<rscale>  0 0.21679718E+04</rscale>
<asrwt>0</asrwt>
<pdfrwt beam="1">  1        2 0.46036161E+00 0.21679718E+04</pdfrwt>
<pdfrwt beam="2">  1       -2 0.60411753E-01 0.21679718E+04</pdfrwt>
<totfact> 0.41241444E+00</totfact>
</mgrwt>
</event>
<event>
 6    1  0.2047711E-005  0.3259432E+04  0.7818608E-02  0.8173295E-01
          2   -1    0    0  501    0  0.00000000000E+00  0.00000000000E+00  0.12319833068E+04  0.12319833068E+04  0.00000000000E+00 0. -1.
         -2   -1    0    0    0  501 -0.00000000000E+00 -0.00000000000E+00 -0.21558529509E+04  0.21558529509E+04  0.00000000000E+00 0.  1.
         23    2    1    2    0    0 -0.73995999991E+03  0.86001343128E+03 -0.16764958237E+04  0.20263627657E+04  0.91344994086E+02 0.  0.
         11    1    3    3    0    0 -0.72684711022E+02  0.59428270068E+02 -0.17524730559E+03  0.19881248607E+03  0.00000000000E+00 0. -1.
        -11    1    3    3    0    0 -0.66727528889E+03  0.80058516121E+03 -0.15012485181E+04  0.18275502796E+04  0.00000000000E+00 0.  1.
         22    1    1    2    0    0  0.73995999991E+03 -0.86001343128E+03  0.75262617957E+03  0.13614734921E+04  0.00000000000E+00 0. -1.
<mgrwt>
<rscale>  0 0.32594324E+04</rscale>
<asrwt>0</asrwt>
<pdfrwt beam="1">  1        2 0.18953589E+00 0.32594324E+04</pdfrwt>
<pdfrwt beam="2">  1       -2 0.33166968E+00 0.32594324E+04</pdfrwt>
<totfact> 0.30778863E-01</totfact>
</mgrwt>
</event>
<event>
 6    1  0.2047711E-005  0.3093992E+04  0.7818608E-02  0.8217389E-01
          2   -1    0    0  501    0  0.00000000000E+00  0.00000000000E+00  0.29889354719E+04  0.29889354719E+04  0.00000000000E+00 0. -1.
         -2   -1    0    0    0  501 -0.00000000000E+00 -0.00000000000E+00 -0.80068519488E+03  0.80068519488E+03  0.00000000000E+00 0.  1.
         23    2    1    2    0    0 -0.72587840736E+03  0.11005953432E+04  0.10708118470E+03  0.13259903450E+04  0.92598289442E+02 0.  0.
         13    1    3    3    0    0 -0.21295753963E+03  0.30166631573E+03  0.70145872984E+02  0.37586423510E+03  0.00000000000E+00 0. -1.
        -13    1    3    3    0    0 -0.51292086773E+03  0.79892902744E+03  0.36935311718E+02  0.95012610988E+03  0.00000000000E+00 0.  1.
         22    1    1    2    0    0  0.72587840736E+03 -0.11005953432E+04  0.20811690923E+04  0.24636303218E+04  0.00000000000E+00 0. -1.
<mgrwt>
<rscale>  0 0.30939918E+04</rscale>
<asrwt>0</asrwt>
<pdfrwt beam="1">  1        2 0.45983622E+00 0.30939918E+04</pdfrwt>
<pdfrwt beam="2">  1       -2 0.12318234E+00 0.30939918E+04</pdfrwt>
<totfact> 0.74704166E-01</totfact>
</mgrwt>
</event>
<event>
 6    1  0.2047711E-005  0.1240952E+04  0.7818608E-02  0.9077748E-01
         -2   -1    0    0    0  501 -0.00000000000E+00  0.00000000000E+00  0.44801403910E+03  0.44801403910E+03  0.00000000000E+00 0.  1.
          2   -1    0    0  501    0  0.00000000000E+00 -0.00000000000E+00 -0.85932692388E+03  0.85932692388E+03  0.00000000000E+00 0. -1.
         23    2    1    2    0    0 -0.46824148180E+03  0.39538278954E+03 -0.28329123607E+03  0.68126814126E+03  0.91075355156E+02 0.  0.
         11    1    3    3    0    0 -0.35599379278E+03  0.24790648769E+03 -0.21006511771E+03  0.48199228294E+03  0.00000000000E+00 0. -1.
        -11    1    3    3    0    0 -0.11224768902E+03  0.14747630185E+03 -0.73226118359E+02  0.19927585832E+03  0.00000000000E+00 0.  1.
         22    1    1    2    0    0  0.46824148180E+03 -0.39538278954E+03 -0.12802164871E+03  0.62607282171E+03  0.00000000000E+00 0.  1.
<mgrwt>
<rscale>  0 0.12409521E+04</rscale>
<asrwt>0</asrwt>
<pdfrwt beam="1">  1        2 0.13220414E+00 0.12409521E+04</pdfrwt>
<pdfrwt beam="2">  1       -2 0.68925237E-01 0.12409521E+04</pdfrwt>
<totfact> 0.59185940E+01</totfact>
</mgrwt>
</event>
<event>
 6    1  0.2047711E-005  0.5265079E+04  0.7818608E-02  0.7788868E-01
         -2   -1    0    0    0  501 -0.00000000000E+00  0.00000000000E+00  0.21318692433E+04  0.21318692433E+04  0.00000000000E+00 0.  1.
          2   -1    0    0  501    0  0.00000000000E+00 -0.00000000000E+00 -0.32507920218E+04  0.32507920218E+04  0.00000000000E+00 0. -1.
         23    2    1    2    0    0  0.24015001746E+04 -0.42207982968E+03 -0.15720211044E+04  0.29026103455E+04  0.92422908552E+02 0.  0.
         11    1    3    3    0    0  0.12034643731E+04 -0.16466637510E+03 -0.78553784535E+03  0.14465514920E+04  0.00000000000E+00 0. -1.
        -11    1    3    3    0    0  0.11980358014E+04 -0.25741345457E+03 -0.78648325909E+03  0.14560588535E+04  0.00000000000E+00 0.  1.
         22    1    1    2    0    0 -0.24015001746E+04  0.42207982968E+03  0.45309832597E+03  0.24800509196E+04  0.00000000000E+00 0.  1.
<mgrwt>
<rscale>  0 0.52650787E+04</rscale>
<asrwt>0</asrwt>
<pdfrwt beam="1">  1        2 0.50012185E+00 0.52650787E+04</pdfrwt>
<pdfrwt beam="2">  1       -2 0.32797988E+00 0.52650787E+04</pdfrwt>
<totfact> 0.18273411E-02</totfact>
</mgrwt>
</event>
<event>
 6    1  0.2047711E-005  0.1696462E+04  0.7818608E-02  0.8763385E-01
          2   -1    0    0  501    0  0.00000000000E+00  0.00000000000E+00  0.14221742559E+04  0.14221742559E+04  0.00000000000E+00 0.  1.
         -2   -1    0    0    0  501 -0.00000000000E+00 -0.00000000000E+00 -0.50591282563E+03  0.50591282563E+03  0.00000000000E+00 0. -1.
         23    2    1    2    0    0  0.41015868855E+03  0.66955560086E+03  0.81623701363E+03  0.11365444508E+04  0.94633893104E+02 0.  0.
         13    1    3    3    0    0  0.31612774425E+03  0.43573041835E+03  0.57509715757E+03  0.78774011502E+03  0.00000000000E+00 0. -1.
        -13    1    3    3    0    0  0.94030944305E+02  0.23382518251E+03  0.24113985605E+03  0.34880433575E+03  0.00000000000E+00 0.  1.
         22    1    1    2    0    0 -0.41015868855E+03 -0.66955560086E+03  0.10002441669E+03  0.79154263080E+03  0.00000000000E+00 0. -1.
<mgrwt>
<rscale>  0 0.16964624E+04</rscale>
<asrwt>0</asrwt>
<pdfrwt beam="1">  1        2 0.21879604E+00 0.16964624E+04</pdfrwt>
<pdfrwt beam="2">  1       -2 0.77832743E-01 0.16964624E+04</pdfrwt>
<totfact> 0.19666588E+01</totfact>
</mgrwt>
</event>
<event>
 6    1  0.2047711E-005  0.6212956E+03  0.7818608E-02  0.9862184E-01
          2   -1    0    0  501    0  0.00000000000E+00  0.00000000000E+00  0.31097644001E+04  0.31097644001E+04  0.00000000000E+00 0. -1.
         -2   -1    0    0    0  501 -0.00000000000E+00 -0.00000000000E+00 -0.31031952486E+02  0.31031952486E+02  0.00000000000E+00 0.  1.
         23    2    1    2    0    0  0.21992209474E+03 -0.20392023577E+03  0.17938355972E+04  0.18213612059E+04  0.97781910260E+02 0.  0.
         13    1    3    3    0    0  0.53321665577E+02 -0.11334999120E+03  0.66115797559E+03  0.67291997237E+03  0.00000000000E+00 0. -1.
        -13    1    3    3    0    0  0.16660042916E+03 -0.90570244573E+02  0.11326776216E+04  0.11484412335E+04  0.00000000000E+00 0.  1.
         22    1    1    2    0    0 -0.21992209474E+03  0.20392023577E+03  0.12848968504E+04  0.13194351467E+04  0.00000000000E+00 0.  1.
<mgrwt>
<rscale>  0 0.62129562E+03</rscale>
<asrwt>0</asrwt>
<pdfrwt beam="1">  1        2 0.47842504E+00 0.62129562E+03</pdfrwt>
<pdfrwt beam="2">  1       -2 0.47741490E-02 0.62129562E+03</pdfrwt>
<totfact> 0.35385427E+02</totfact>
</mgrwt>
</event>
<event>
 6    1  0.2047711E-005  0.9691804E+03  0.7818608E-02  0.9343008E-01
         -2   -1    0    0    0  501 -0.00000000000E+00  0.00000000000E+00  0.19153945541E+03  0.19153945541E+03  0.00000000000E+00 0. -1.
          2   -1    0    0  501    0  0.00000000000E+00 -0.00000000000E+00 -0.12260016276E+04  0.12260016276E+04  0.00000000000E+00 0.  1.
         23    2    1    2    0    0 -0.20479643785E+03 -0.31188518279E+03 -0.79753940084E+02  0.39251339722E+03  0.92152741888E+02 0.  0.
         13    1    3    3    0    0 -0.10858020611E+03 -0.90513688570E+02 -0.12326813263E+02  0.14189552249E+03  0.00000000000E+00 0. -1.
        -13    1    3    3    0    0 -0.96216231745E+02 -0.22137149422E+03 -0.67427126822E+02  0.25061787473E+03  0.00000000000E+00 0.  1.
         22    1    1    2    0    0  0.20479643785E+03  0.31188518279E+03 -0.95470823207E+03  0.10250276858E+04  0.00000000000E+00 0.  1.
<mgrwt>
<rscale>  0 0.96918045E+03</rscale>
<asrwt>0</asrwt>
<pdfrwt beam="1">  1        2 0.18861564E+00 0.96918045E+03</pdfrwt>
<pdfrwt beam="2">  1       -2 0.29467608E-01 0.96918045E+03</pdfrwt>
<totfact> 0.19345891E+02</totfact>
</mgrwt>
</event>
<event>
 6    1  0.2047711E-005  0.2281829E+04  0.7818608E-02  0.8485120E-01
          1   -1    0    0  501    0  0.00000000000E+00  0.00000000000E+00  0.21964951843E+04  0.21964951843E+04  0.00000000000E+00 0. -1.
         -1   -1    0    0    0  501 -0.00000000000E+00 -0.00000000000E+00 -0.59261946372E+03  0.59261946372E+03  0.00000000000E+00 0.  1.
         23    2    1    2    0    0  0.46167313421E+03  0.15086383946E+03  0.20626338641E+04  0.21210120996E+04  0.91279178822E+02 0.  0.
         13    1    3    3    0    0  0.21306602098E+03  0.87445278048E+02  0.11589225448E+04  0.11815859135E+04  0.00000000000E+00 0.  1.
        -13    1    3    3    0    0  0.24860711323E+03  0.63418561417E+02  0.90371131925E+03  0.93942618614E+03  0.00000000000E+00 0. -1.
         22    1    1    2    0    0 -0.46167313421E+03 -0.15086383946E+03 -0.45875814352E+03  0.66810254839E+03  0.00000000000E+00 0.  1.
<mgrwt>
<rscale>  0 0.22818289E+04</rscale>
<asrwt>0</asrwt>
<pdfrwt beam="1">  1        1 0.33792233E+00 0.22818289E+04</pdfrwt>
<pdfrwt beam="2">  1       -1 0.91172226E-01 0.22818289E+04</pdfrwt>
<totfact> 0.23273433E+00</totfact>
</mgrwt>
</event>
<event>
 6    1  0.2047711E-005  0.1455344E+04  0.7818608E-02  0.8914704E-01
         -2   -1    0    0    0  501 -0.00000000000E+00  0.00000000000E+00  0.40275994776E+03  0.40275994776E+03  0.00000000000E+00 0. -1.
          2   -1    0    0  501    0  0.00000000000E+00 -0.00000000000E+00 -0.13146945587E+04  0.13146945587E+04  0.00000000000E+00 0.  1.
         23    2    1    2    0    0 -0.39736253382E+03 -0.58758660167E+03 -0.28166054963E+03  0.76856020777E+03  0.90538003109E+02 0.  0.
         11    1    3    3    0    0 -0.36303265855E+03 -0.50516610925E+03 -0.21909334843E+03  0.65953574918E+03  0.00000000000E+00 0.  1.
        -11    1    3    3    0    0 -0.34329875264E+02 -0.82420492419E+02 -0.62567201202E+02  0.10902445860E+03  0.00000000000E+00 0. -1.
         22    1    1    2    0    0  0.39736253382E+03  0.58758660167E+03 -0.63027406132E+03  0.94889429871E+03  0.00000000000E+00 0.  1.
<mgrwt>
<rscale>  0 0.14553437E+04</rscale>
<asrwt>0</asrwt>
<pdfrwt beam="1">  1        2 0.20226070E+00 0.14553437E+04</pdfrwt>
<pdfrwt beam="2">  1       -2 0.61963070E-01 0.14553437E+04</pdfrwt>
<totfact> 0.38002642E+01</totfact>
</mgrwt>
</event>
<event>
 6    1  0.2047711E-005  0.1669088E+04  0.7818608E-02  0.8779194E-01
         -2   -1    0    0    0  501 -0.00000000000E+00  0.00000000000E+00  0.37198545497E+03  0.37198545497E+03  0.00000000000E+00 0.  1.
          2   -1    0    0  501    0  0.00000000000E+00 -0.00000000000E+00 -0.18722870204E+04  0.18722870204E+04  0.00000000000E+00 0. -1.
         23    2    1    2    0    0 -0.12482733832E+03  0.60020411818E+03  0.41577777619E+01  0.61970337459E+03  0.90488327927E+02 0.  0.
         11    1    3    3    0    0 -0.42107437741E+02  0.13745254235E+03  0.37087723754E+02  0.14846459836E+03  0.00000000000E+00 0. -1.
        -11    1    3    3    0    0 -0.82719900578E+02  0.46275157583E+03 -0.32929945992E+02  0.47123877623E+03  0.00000000000E+00 0.  1.
         22    1    1    2    0    0  0.12482733832E+03 -0.60020411818E+03 -0.15044593432E+04  0.16245691007E+04  0.00000000000E+00 0. -1.
<mgrwt>
<rscale>  0 0.16690878E+04</rscale>
<asrwt>0</asrwt>
<pdfrwt beam="1">  1        2 0.28804416E+00 0.16690878E+04</pdfrwt>
<pdfrwt beam="2">  1       -2 0.57228531E-01 0.16690878E+04</pdfrwt>
<totfact> 0.21471267E+01</totfact>
</mgrwt>
</event>
<event>
 6    1  0.2047711E-005  0.4439093E+04  0.7818608E-02  0.7921387E-01
          2   -1    0    0  501    0  0.00000000000E+00  0.00000000000E+00  0.30024706131E+04  0.30024706131E+04  0.00000000000E+00 0. -1.
         -2   -1    0    0    0  501 -0.00000000000E+00 -0.00000000000E+00 -0.16407777885E+04  0.16407777885E+04  0.00000000000E+00 0.  1.
         23    2    1    2    0    0 -0.88207721354E+03 -0.19906602858E+04  0.11268685870E+04  0.24532869849E+04  0.89418309019E+02 0.  0.
         11    1    3    3    0    0 -0.70193922924E+03 -0.16549495746E+04  0.95008090050E+03  0.20332807218E+04  0.00000000000E+00 0.  1.
        -11    1    3    3    0    0 -0.18013798431E+03 -0.33571071114E+03  0.17678768647E+03  0.42000626312E+03  0.00000000000E+00 0. -1.
         22    1    1    2    0    0  0.88207721354E+03  0.19906602858E+04  0.23482423767E+03  0.21899614167E+04  0.00000000000E+00 0.  1.
<mgrwt>
<rscale>  0 0.44390932E+04</rscale>
<asrwt>0</asrwt>
<pdfrwt beam="1">  1        2 0.46191855E+00 0.44390932E+04</pdfrwt>
<pdfrwt beam="2">  1       -2 0.25242735E+00 0.44390932E+04</pdfrwt>
<totfact> 0.81979882E-02</totfact>
</mgrwt>
</event>
<event>
 6    1  0.2047711E-005  0.3469256E+04  0.7818608E-02  0.8121115E-01
          2   -1    0    0  501    0  0.00000000000E+00  0.00000000000E+00  0.21775646649E+04  0.21775646649E+04  0.00000000000E+00 0.  1.
         -2   -1    0    0    0  501 -0.00000000000E+00 -0.00000000000E+00 -0.13817887706E+04  0.13817887706E+04  0.00000000000E+00 0. -1.
         23    2    1    2    0    0  0.10212927576E+04 -0.77483770115E+03 -0.79888821388E+03  0.15132923470E+04  0.91755051735E+02 0.  0.
         11    1    3    3    0    0  0.61039031508E+03 -0.45544530238E+03 -0.42163196102E+03  0.87050575573E+03  0.00000000000E+00 0.  1.
        -11    1    3    3    0    0  0.41090244249E+03 -0.31939239877E+03 -0.37725625286E+03  0.64278659130E+03  0.00000000000E+00 0. -1.
         22    1    1    2    0    0 -0.10212927576E+04  0.77483770115E+03  0.15946641082E+04  0.20460610885E+04  0.00000000000E+00 0.  1.
<mgrwt>
<rscale>  0 0.34692561E+04</rscale>
<asrwt>0</asrwt>
<pdfrwt beam="1">  1        2 0.33500995E+00 0.34692561E+04</pdfrwt>
<pdfrwt beam="2">  1       -2 0.21258289E+00 0.34692561E+04</pdfrwt>
<totfact> 0.48265846E-01</totfact>
</mgrwt>
</event>
<event>
 6    1  0.2047711E-005  0.2008389E+04  0.7818608E-02  0.8602709E-01
          2   -1    0    0  501    0  0.00000000000E+00  0.00000000000E+00  0.19951077253E+04  0.19951077253E+04  0.00000000000E+00 0. -1.
         -2   -1    0    0    0  501 -0.00000000000E+00 -0.00000000000E+00 -0.50543966891E+03  0.50543966891E+03  0.00000000000E+00 0.  1.
         23    2    1    2    0    0  0.69740110721E+03  0.54202903028E+03  0.15763505509E+03  0.90227467324E+03  0.95325764495E+02 0.  0.
         13    1    3    3    0    0  0.35223573570E+03  0.32993908015E+03  0.68487318768E+02  0.48746315035E+03  0.00000000000E+00 0.  1.
        -13    1    3    3    0    0  0.34516537151E+03  0.21208995013E+03  0.89147736323E+02  0.41481152290E+03  0.00000000000E+00 0. -1.
         22    1    1    2    0    0 -0.69740110721E+03 -0.54202903028E+03  0.13320330013E+04  0.15982727209E+04  0.00000000000E+00 0. -1.
<mgrwt>
<rscale>  0 0.20083890E+04</rscale>
<asrwt>0</asrwt>
<pdfrwt beam="1">  1        2 0.30693965E+00 0.20083890E+04</pdfrwt>
<pdfrwt beam="2">  1       -2 0.77759950E-01 0.20083890E+04</pdfrwt>
<totfact> 0.91954218E+00</totfact>
</mgrwt>
</event>
<event>
 6    1  0.2047711E-005  0.2203497E+04  0.7818608E-02  0.8516974E-01
          2   -1    0    0  501    0  0.00000000000E+00  0.00000000000E+00  0.31482368693E+04  0.31482368693E+04  0.00000000000E+00 0. -1.
         -2   -1    0    0    0  501 -0.00000000000E+00 -0.00000000000E+00 -0.38556511183E+03  0.38556511183E+03  0.00000000000E+00 0.  1.
         23    2    1    2    0    0 -0.16798383735E+03  0.15644550211E+03  0.31082405251E+04  0.31189387050E+04  0.11800728170E+03 0.  0.
         11    1    3    3    0    0 -0.69928758112E+02  0.11695424074E+03  0.11877320096E+04  0.11955231710E+04  0.00000000000E+00 0.  1.
        -11    1    3    3    0    0 -0.98055079240E+02  0.39491261364E+02  0.19205085155E+04  0.19234155340E+04  0.00000000000E+00 0. -1.
         22    1    1    2    0    0  0.16798383735E+03 -0.15644550211E+03 -0.34556876766E+03  0.41486327618E+03  0.00000000000E+00 0.  1.
<mgrwt>
<rscale>  0 0.22034975E+04</rscale>
<asrwt>0</asrwt>
<pdfrwt beam="1">  1        2 0.48434412E+00 0.22034975E+04</pdfrwt>
<pdfrwt beam="2">  1       -2 0.59317712E-01 0.22034975E+04</pdfrwt>
<totfact> 0.34031675E+00</totfact>
</mgrwt>
</event>
<event>
 6    1  0.2047711E-005  0.7074381E+03  0.7818608E-02  0.9704596E-01
         -2   -1    0    0    0  501 -0.00000000000E+00  0.00000000000E+00  0.14948294200E+03  0.14948294200E+03  0.00000000000E+00 0.  1.
          2   -1    0    0  501    0  0.00000000000E+00 -0.00000000000E+00 -0.83699973011E+03  0.83699973011E+03  0.00000000000E+00 0. -1.
         23    2    1    2    0    0 -0.23894400536E+03 -0.21793050943E+03 -0.17075346819E+03  0.37686617507E+03  0.91013308768E+02 0.  0.
         13    1    3    3    0    0 -0.15845262975E+03 -0.13135265449E+03 -0.15489899693E+03  0.25759358487E+03  0.00000000000E+00 0.  1.
        -13    1    3    3    0    0 -0.80491375604E+02 -0.86577854945E+02 -0.15854471263E+02  0.11927259020E+03  0.00000000000E+00 0. -1.
         22    1    1    2    0    0  0.23894400536E+03  0.21793050943E+03 -0.51676331992E+03  0.60961649703E+03  0.00000000000E+00 0.  1.
<mgrwt>
<rscale>  0 0.70743814E+03</rscale>
<asrwt>0</asrwt>
<pdfrwt beam="1">  1        2 0.12876919E+00 0.70743814E+03</pdfrwt>
<pdfrwt beam="2">  1       -2 0.22997376E-01 0.70743814E+03</pdfrwt>
<totfact> 0.54319465E+02</totfact>
</mgrwt>
</event>
<event>
 6    1  0.2047711E-005  0.1817626E+04  0.7818608E-02  0.8696982E-01
         -2   -1    0    0    0  501 -0.00000000000E+00  0.00000000000E+00  0.10537898995E+04  0.10537898995E+04  0.00000000000E+00 0.  1.
          2   -1    0    0  501    0  0.00000000000E+00 -0.00000000000E+00 -0.78378131578E+03  0.78378131578E+03  0.00000000000E+00 0. -1.
         23    2    1    2    0    0  0.22635274783E+03 -0.87713561353E+03  0.99368940553E+02  0.91576844961E+03  0.90306234504E+02 0.  0.
         11    1    3    3    0    0  0.96640556090E+02 -0.44200873747E+03  0.91729083771E+02  0.46165500743E+03  0.00000000000E+00 0. -1.
        -11    1    3    3    0    0  0.12971219174E+03 -0.43512687606E+03  0.76398567821E+01  0.45411344218E+03  0.00000000000E+00 0.  1.
         22    1    1    2    0    0 -0.22635274783E+03  0.87713561353E+03  0.17063964317E+03  0.92180276567E+03  0.00000000000E+00 0.  1.
<mgrwt>
<rscale>  0 0.18176257E+04</rscale>
<asrwt>0</asrwt>
<pdfrwt beam="1">  1        2 0.12058174E+00 0.18176257E+04</pdfrwt>
<pdfrwt beam="2">  1       -2 0.16212152E+00 0.18176257E+04</pdfrwt>
<totfact> 0.81042516E+00</totfact>
</mgrwt>
</event>
<event>
 6    1  0.2047711E-005  0.4368847E+04  0.7818608E-02  0.7934009E-01
         -2   -1    0    0    0  501 -0.00000000000E+00  0.00000000000E+00  0.18305553631E+04  0.18305553631E+04  0.00000000000E+00 0.  1.
          2   -1    0    0  501    0  0.00000000000E+00 -0.00000000000E+00 -0.26066983379E+04  0.26066983379E+04  0.00000000000E+00 0. -1.
         23    2    1    2    0    0 -0.86591307773E+03  0.18758832620E+04  0.32911107114E+03  0.20941083840E+04  0.90732331654E+02 0.  0.
         11    1    3    3    0    0 -0.42311790705E+03  0.94589249741E+03  0.20927376910E+03  0.10571361740E+04  0.00000000000E+00 0.  1.
        -11    1    3    3    0    0 -0.44279517068E+03  0.92999076457E+03  0.11983730204E+03  0.10369722100E+04  0.00000000000E+00 0. -1.
         22    1    1    2    0    0  0.86591307773E+03 -0.18758832620E+04 -0.11052540459E+04  0.23431453170E+04  0.00000000000E+00 0. -1.
<mgrwt>
<rscale>  0 0.43688468E+04</rscale>
<asrwt>0</asrwt>
<pdfrwt beam="1">  1        2 0.40103051E+00 0.43688468E+04</pdfrwt>
<pdfrwt beam="2">  1       -2 0.28162390E+00 0.43688468E+04</pdfrwt>
<totfact> 0.95056099E-02</totfact>
</mgrwt>
</event>
<event>
 6    1  0.2047711E-005  0.8256143E+03  0.7818608E-02  0.9523664E-01
          2   -1    0    0  501    0  0.00000000000E+00  0.00000000000E+00  0.70544455767E+03  0.70544455767E+03  0.00000000000E+00 0. -1.
         -2   -1    0    0    0  501 -0.00000000000E+00 -0.00000000000E+00 -0.24156360174E+03  0.24156360174E+03  0.00000000000E+00 0.  1.
         23    2    1    2    0    0 -0.27355227926E+03  0.30246638289E+03  0.24109669931E+03  0.48230439649E+03  0.90405476544E+02 0.  0.
         13    1    3    3    0    0 -0.14592966656E+03  0.19116442271E+03  0.94749572889E+02  0.25848943045E+03  0.00000000000E+00 0. -1.
        -13    1    3    3    0    0 -0.12762261270E+03  0.11130196019E+03  0.14634712642E+03  0.22381496604E+03  0.00000000000E+00 0.  1.
         22    1    1    2    0    0  0.27355227926E+03 -0.30246638289E+03  0.22278425661E+03  0.46470376291E+03  0.00000000000E+00 0. -1.
<mgrwt>
<rscale>  0 0.82561426E+03</rscale>
<asrwt>0</asrwt>
<pdfrwt beam="1">  1        2 0.10852993E+00 0.82561426E+03</pdfrwt>
<pdfrwt beam="2">  1       -2 0.37163631E-01 0.82561426E+03</pdfrwt>
<totfact> 0.27821216E+02</totfact>
</mgrwt>
</event>
<event>
 6    1  0.2047711E-005  0.1937320E+04  0.7818608E-02  0.8636499E-01
         -2   -1    0    0    0  501 -0.00000000000E+00  0.00000000000E+00  0.11034648640E+04  0.11034648640E+04  0.00000000000E+00 0.  1.
          2   -1    0    0  501    0  0.00000000000E+00 -0.00000000000E+00 -0.85032397519E+03  0.85032397519E+03  0.00000000000E+00 0. -1.
         23    2    1    2    0    0 -0.24722611934E+03 -0.60381510465E+03  0.84592547665E+03  0.10722521116E+04  0.91767336157E+02 0.  0.
         11    1    3    3    0    0 -0.18673865435E+03 -0.36430994871E+03  0.48173047393E+03  0.63218455634E+03  0.00000000000E+00 0. -1.
        -11    1    3    3    0    0 -0.60487464985E+02 -0.23950515594E+03  0.36419500272E+03  0.44006755521E+03  0.00000000000E+00 0.  1.
         22    1    1    2    0    0  0.24722611934E+03  0.60381510465E+03 -0.59278458781E+03  0.88153672767E+03  0.00000000000E+00 0. -1.
<mgrwt>
<rscale>  0 0.19373204E+04</rscale>
<asrwt>0</asrwt>
<pdfrwt beam="1">  1        2 0.13081907E+00 0.19373204E+04</pdfrwt>
<pdfrwt beam="2">  1       -2 0.16976383E+00 0.19373204E+04</pdfrwt>
<totfact> 0.63351519E+00</totfact>
</mgrwt>
</event>
<event>
 6    1  0.2047711E-005  0.2562272E+04  0.7818608E-02  0.8381131E-01
          1   -1    0    0  501    0  0.00000000000E+00  0.00000000000E+00  0.12782012543E+04  0.12782012543E+04  0.00000000000E+00 0. -1.
         -1   -1    0    0    0  501 -0.00000000000E+00 -0.00000000000E+00 -0.12840773707E+04  0.12840773707E+04  0.00000000000E+00 0.  1.
         23    2    1    2    0    0  0.68030448169E+03 -0.93678696122E+03  0.54183281326E+03  0.12815096879E+04  0.91105895484E+02 0.  0.
         11    1    3    3    0    0  0.27943215900E+03 -0.37507461861E+03  0.26813378490E+03  0.53912802525E+03  0.00000000000E+00 0. -1.
        -11    1    3    3    0    0  0.40087232269E+03 -0.56171234262E+03  0.27369902836E+03  0.74238166267E+03  0.00000000000E+00 0.  1.
         22    1    1    2    0    0 -0.68030448169E+03  0.93678696122E+03 -0.54770892961E+03  0.12807689370E+04  0.00000000000E+00 0. -1.
<mgrwt>
<rscale>  0 0.25622719E+04</rscale>
<asrwt>0</asrwt>
<pdfrwt beam="1">  1        1 0.19664635E+00 0.25622719E+04</pdfrwt>
<pdfrwt beam="2">  1       -1 0.19755036E+00 0.25622719E+04</pdfrwt>
<totfact> 0.12967652E+00</totfact>
</mgrwt>
</event>
<event>
 6    1  0.2047711E-005  0.1641492E+04  0.7818608E-02  0.8795455E-01
         -2   -1    0    0    0  501 -0.00000000000E+00  0.00000000000E+00  0.67506923521E+03  0.67506923521E+03  0.00000000000E+00 0.  1.
          2   -1    0    0  501    0  0.00000000000E+00 -0.00000000000E+00 -0.99785962861E+03  0.99785962861E+03  0.00000000000E+00 0. -1.
         23    2    1    2    0    0  0.55575113540E+03 -0.57252223942E+03  0.22794588211E+02  0.80340599544E+03  0.91107415331E+02 0.  0.
         13    1    3    3    0    0  0.42650226218E+03 -0.44969026972E+03 -0.19755928803E+02  0.62009339220E+03  0.00000000000E+00 0. -1.
        -13    1    3    3    0    0  0.12924887322E+03 -0.12283196970E+03  0.42550517014E+02  0.18331260324E+03  0.00000000000E+00 0.  1.
         22    1    1    2    0    0 -0.55575113540E+03  0.57252223942E+03 -0.34558498161E+03  0.86952286838E+03  0.00000000000E+00 0. -1.
<mgrwt>
<rscale>  0 0.16414924E+04</rscale>
<asrwt>0</asrwt>
<pdfrwt beam="1">  1        2 0.15351686E+00 0.16414924E+04</pdfrwt>
<pdfrwt beam="2">  1       -2 0.10385681E+00 0.16414924E+04</pdfrwt>
<totfact> 0.18230815E+01</totfact>
</mgrwt>
</event>
<event>
 6    1  0.2047711E-005  0.3517033E+04  0.7818608E-02  0.8109765E-01
          1   -1    0    0  501    0  0.00000000000E+00  0.00000000000E+00  0.42154917581E+04  0.42154917581E+04  0.00000000000E+00 0. -1.
         -1   -1    0    0    0  501 -0.00000000000E+00 -0.00000000000E+00 -0.73357511188E+03  0.73357511188E+03  0.00000000000E+00 0.  1.
         23    2    1    2    0    0 -0.51733201494E+03 -0.13988776930E+04  0.43440771788E+03  0.15561622321E+04  0.91867368545E+02 0.  0.
         11    1    3    3    0    0 -0.15454457207E+03 -0.51728174802E+03  0.12845069894E+03  0.55494505463E+03  0.00000000000E+00 0. -1.
        -11    1    3    3    0    0 -0.36278744287E+03 -0.88159594501E+03  0.30595701894E+03  0.10012171774E+04  0.00000000000E+00 0.  1.
         22    1    1    2    0    0  0.51733201494E+03  0.13988776930E+04  0.30475089284E+04  0.33929046380E+04  0.00000000000E+00 0. -1.
<mgrwt>
<rscale>  0 0.35170327E+04</rscale>
<asrwt>0</asrwt>
<pdfrwt beam="1">  1        1 0.64853718E+00 0.35170327E+04</pdfrwt>
<pdfrwt beam="2">  1       -1 0.11285771E+00 0.35170327E+04</pdfrwt>
<totfact> 0.35675951E-02</totfact>
</mgrwt>
</event>
<event>
 6    1  0.2047711E-005  0.3887690E+04  0.7818608E-02  0.8027594E-01
         -2   -1    0    0    0  501 -0.00000000000E+00  0.00000000000E+00  0.16736458470E+04  0.16736458470E+04  0.00000000000E+00 0.  1.
          2   -1    0    0  501    0  0.00000000000E+00 -0.00000000000E+00 -0.22576660133E+04  0.22576660133E+04  0.00000000000E+00 0. -1.
         23    2    1    2    0    0  0.47149922332E+03  0.10688408430E+04 -0.18618231069E+04  0.21999792463E+04  0.93761066168E+02 0.  0.
         13    1    3    3    0    0  0.18108433944E+03  0.51093034513E+03 -0.90566731997E+03  0.10554973472E+04  0.00000000000E+00 0.  1.
        -13    1    3    3    0    0  0.29041488388E+03  0.55791049783E+03 -0.95615578695E+03  0.11444818991E+04  0.00000000000E+00 0. -1.
         22    1    1    2    0    0 -0.47149922332E+03 -0.10688408430E+04  0.12778029406E+04  0.17313326140E+04  0.00000000000E+00 0.  1.
<mgrwt>
<rscale>  0 0.38876900E+04</rscale>
<asrwt>0</asrwt>
<pdfrwt beam="1">  1        2 0.34733323E+00 0.38876900E+04</pdfrwt>
<pdfrwt beam="2">  1       -2 0.25748398E+00 0.38876900E+04</pdfrwt>
<totfact> 0.22049923E-01</totfact>
</mgrwt>
</event>
<event>
 6    1  0.3029062E-005  0.2363974E+04  0.7818608E-02  0.8453116E-01
          2   -1    0    0  501    0  0.00000000000E+00  0.00000000000E+00  0.22037525075E+04  0.22037525075E+04  0.00000000000E+00 0.  1.
         -2   -1    0    0    0  501 -0.00000000000E+00 -0.00000000000E+00 -0.63396099530E+03  0.63396099530E+03  0.00000000000E+00 0. -1.
         23    2    1    2    0    0  0.17063700795E+03 -0.10763016315E+04  0.13312935194E+04  0.17221761959E+04  0.77499833925E+02 0.  0.
         13    1    3    3    0    0  0.42351593614E+02 -0.37502517831E+03  0.40996403967E+03  0.55723249696E+03  0.00000000000E+00 0. -1.
        -13    1    3    3    0    0  0.12828541434E+03 -0.70127645323E+03  0.92132947974E+03  0.11649436989E+04  0.00000000000E+00 0.  1.
         22    1    1    2    0    0 -0.17063700795E+03  0.10763016315E+04  0.23849799277E+03  0.11155373069E+04  0.00000000000E+00 0.  1.
<mgrwt>
<rscale>  0 0.23639739E+04</rscale>
<asrwt>0</asrwt>
<pdfrwt beam="1">  1        2 0.33903884E+00 0.23639739E+04</pdfrwt>
<pdfrwt beam="2">  1       -2 0.97532462E-01 0.23639739E+04</pdfrwt>
<totfact> 0.40603469E+00</totfact>
</mgrwt>
</event>
<event>
 6    1  0.2047711E-005  0.2278903E+04  0.7818608E-02  0.8486286E-01
         -2   -1    0    0    0  501 -0.00000000000E+00  0.00000000000E+00  0.10211655840E+04  0.10211655840E+04  0.00000000000E+00 0.  1.
          2   -1    0    0  501    0  0.00000000000E+00 -0.00000000000E+00 -0.12714387495E+04  0.12714387495E+04  0.00000000000E+00 0. -1.
         23    2    1    2    0    0 -0.32944443754E+03 -0.37712204630E+03  0.90230957776E+03  0.10359414291E+04  0.90870210497E+02 0.  0.
         13    1    3    3    0    0 -0.21110672150E+03 -0.30164656286E+03  0.67117980632E+03  0.76553186032E+03  0.00000000000E+00 0. -1.
        -13    1    3    3    0    0 -0.11833771604E+03 -0.75475483442E+02  0.23112977144E+03  0.27040956878E+03  0.00000000000E+00 0.  1.
         22    1    1    2    0    0  0.32944443754E+03  0.37712204630E+03 -0.11525827432E+04  0.12566629044E+04  0.00000000000E+00 0. -1.
<mgrwt>
<rscale>  0 0.22789028E+04</rscale>
<asrwt>0</asrwt>
<pdfrwt beam="1">  1        2 0.19560596E+00 0.22789028E+04</pdfrwt>
<pdfrwt beam="2">  1       -2 0.15710240E+00 0.22789028E+04</pdfrwt>
<totfact> 0.41307889E+00</totfact>
</mgrwt>
</event>
<event>
 6    1  0.2047711E-005  0.1411791E+04  0.7818608E-02  0.8945327E-01
         -2   -1    0    0    0  501 -0.00000000000E+00  0.00000000000E+00  0.43641211763E+03  0.43641211763E+03  0.00000000000E+00 0.  1.
          2   -1    0    0  501    0  0.00000000000E+00 -0.00000000000E+00 -0.11417849342E+04  0.11417849342E+04  0.00000000000E+00 0. -1.
         23    2    1    2    0    0 -0.24008975796E+03 -0.63150983527E+02  0.38093182549E+03  0.46388609257E+03  0.91924494075E+02 0.  0.
         13    1    3    3    0    0 -0.60193846382E+02  0.20311266388E+02  0.12394582150E+03  0.13927818692E+03  0.00000000000E+00 0.  1.
        -13    1    3    3    0    0 -0.17989591157E+03 -0.83462249915E+02  0.25698600399E+03  0.32460790564E+03  0.00000000000E+00 0. -1.
         22    1    1    2    0    0  0.24008975796E+03  0.63150983527E+02 -0.10863046421E+04  0.11143109593E+04  0.00000000000E+00 0. -1.
<mgrwt>
<rscale>  0 0.14117915E+04</rscale>
<asrwt>0</asrwt>
<pdfrwt beam="1">  1        2 0.17565922E+00 0.14117915E+04</pdfrwt>
<pdfrwt beam="2">  1       -2 0.67140327E-01 0.14117915E+04</pdfrwt>
<totfact> 0.40659926E+01</totfact>
</mgrwt>
</event>
<event>
 6    1  0.2047711E-005  0.1621672E+04  0.7818608E-02  0.8807344E-01
         -2   -1    0    0    0  501 -0.00000000000E+00  0.00000000000E+00  0.85902798049E+03  0.85902798049E+03  0.00000000000E+00 0.  1.
          2   -1    0    0  501    0  0.00000000000E+00 -0.00000000000E+00 -0.76534737656E+03  0.76534737656E+03  0.00000000000E+00 0. -1.
         23    2    1    2    0    0 -0.18023506938E+03  0.72082426628E+03  0.36586062610E+03  0.83307625584E+03  0.89943022086E+02 0.  0.
         13    1    3    3    0    0 -0.11202574602E+03  0.30769091232E+03  0.19281786641E+03  0.38000288802E+03  0.00000000000E+00 0. -1.
        -13    1    3    3    0    0 -0.68209323363E+02  0.41313335396E+03  0.17304275968E+03  0.45307336782E+03  0.00000000000E+00 0.  1.
         22    1    1    2    0    0  0.18023506938E+03 -0.72082426628E+03 -0.27218002217E+03  0.79129910120E+03  0.00000000000E+00 0. -1.
<mgrwt>
<rscale>  0 0.16216717E+04</rscale>
<asrwt>0</asrwt>
<pdfrwt beam="1">  1        2 0.11774575E+00 0.16216717E+04</pdfrwt>
<pdfrwt beam="2">  1       -2 0.13215815E+00 0.16216717E+04</pdfrwt>
<totfact> 0.14559420E+01</totfact>
</mgrwt>
</event>
<event>
 6    1  0.2047711E-005  0.6137503E+03  0.7818608E-02  0.9877282E-01
         -2   -1    0    0    0  501 -0.00000000000E+00  0.00000000000E+00  0.45120579735E+02  0.45120579735E+02  0.00000000000E+00 0.  1.
          2   -1    0    0  501    0  0.00000000000E+00 -0.00000000000E+00 -0.20871262488E+04  0.20871262488E+04  0.00000000000E+00 0. -1.
         23    2    1    2    0    0  0.16429977985E+03 -0.25085187624E+03 -0.11451300653E+04  0.11865688018E+04  0.81863139910E+02 0.  0.
         13    1    3    3    0    0  0.16486437479E+03 -0.19690740214E+03 -0.95644500595E+03  0.99032309702E+03  0.00000000000E+00 0.  1.
        -13    1    3    3    0    0 -0.56459494832E+00 -0.53944474091E+02 -0.18868505931E+03  0.19624570482E+03  0.00000000000E+00 0. -1.
         22    1    1    2    0    0 -0.16429977985E+03  0.25085187624E+03 -0.89687560381E+03  0.94567802670E+03  0.00000000000E+00 0.  1.
<mgrwt>
<rscale>  0 0.61375026E+03</rscale>
<asrwt>0</asrwt>
<pdfrwt beam="1">  1        2 0.32109636E+00 0.61375026E+03</pdfrwt>
<pdfrwt beam="2">  1       -2 0.69416273E-02 0.61375026E+03</pdfrwt>
<totfact> 0.76292318E+02</totfact>
</mgrwt>
</event>
<event>
 6    1  0.2047711E-005  0.3112109E+04  0.7818608E-02  0.8212423E-01
          2   -1    0    0  501    0  0.00000000000E+00  0.00000000000E+00  0.25936580724E+04  0.25936580724E+04  0.00000000000E+00 0. -1.
         -2   -1    0    0    0  501 -0.00000000000E+00 -0.00000000000E+00 -0.93354825229E+03  0.93354825229E+03  0.00000000000E+00 0.  1.
         23    2    1    2    0    0 -0.39050585773E+03  0.14989790015E+04  0.98225293385E+03  0.18363713741E+04  0.89476955252E+02 0.  0.
         11    1    3    3    0    0 -0.35727876307E+03  0.12390681965E+04  0.81316869180E+03  0.15245266254E+04  0.00000000000E+00 0. -1.
        -11    1    3    3    0    0 -0.33227094666E+02  0.25991080501E+03  0.16908424205E+03  0.31184474870E+03  0.00000000000E+00 0.  1.
         22    1    1    2    0    0  0.39050585773E+03 -0.14989790015E+04  0.67785688628E+03  0.16908349506E+04  0.00000000000E+00 0. -1.
<mgrwt>
<rscale>  0 0.31121086E+04</rscale>
<asrwt>0</asrwt>
<pdfrwt beam="1">  1        2 0.39902432E+00 0.31121086E+04</pdfrwt>
<pdfrwt beam="2">  1       -2 0.14362281E+00 0.31121086E+04</pdfrwt>
<totfact> 0.87446805E-01</totfact>
</mgrwt>
</event>
<event>
 6    1  0.2047711E-005  0.3275857E+04  0.7818608E-02  0.8169066E-01
         -2   -1    0    0    0  501 -0.00000000000E+00  0.00000000000E+00  0.77617346866E+03  0.77617346866E+03  0.00000000000E+00 0.  1.
          2   -1    0    0  501    0  0.00000000000E+00 -0.00000000000E+00 -0.34564566782E+04  0.34564566782E+04  0.00000000000E+00 0. -1.
         23    2    1    2    0    0 -0.81185011391E+02 -0.35655899668E+03 -0.34023965120E+04  0.34232026048E+04  0.91042431985E+02 0.  0.
         13    1    3    3    0    0 -0.93304921431E+02 -0.21673594696E+03 -0.20441784807E+04  0.20577526431E+04  0.00000000000E+00 0. -1.
        -13    1    3    3    0    0  0.12119910040E+02 -0.13982304972E+03 -0.13582180313E+04  0.13654499617E+04  0.00000000000E+00 0.  1.
         22    1    1    2    0    0  0.81185011391E+02  0.35655899668E+03  0.72211330248E+03  0.80942754204E+03  0.00000000000E+00 0.  1.
<mgrwt>
<rscale>  0 0.32758571E+04</rscale>
<asrwt>0</asrwt>
<pdfrwt beam="1">  1        2 0.53176256E+00 0.32758571E+04</pdfrwt>
<pdfrwt beam="2">  1       -2 0.11941130E+00 0.32758571E+04</pdfrwt>
<totfact> 0.39164893E-01</totfact>
</mgrwt>
</event>
<event>
 6    1  0.2047711E-005  0.1559154E+04  0.7818608E-02  0.8846042E-01
         -4   -1    0    0    0  501 -0.00000000000E+00  0.00000000000E+00  0.57965153391E+03  0.57965153391E+03  0.00000000000E+00 0. -1.
          4   -1    0    0  501    0  0.00000000000E+00 -0.00000000000E+00 -0.10484583322E+04  0.10484583322E+04  0.00000000000E+00 0.  1.
         23    2    1    2    0    0  0.23212458649E+03  0.34808129380E+03  0.44843221384E+03  0.61995818303E+03  0.90632706833E+02 0.  0.
         11    1    3    3    0    0  0.11472660980E+03  0.10550775813E+03  0.19878536369E+03  0.25260582503E+03  0.00000000000E+00 0.  1.
        -11    1    3    3    0    0  0.11739797669E+03  0.24257353566E+03  0.24964685015E+03  0.36735235800E+03  0.00000000000E+00 0. -1.
         22    1    1    2    0    0 -0.23212458649E+03 -0.34808129380E+03 -0.91723901210E+03  0.10081516831E+04  0.00000000000E+00 0.  1.
<mgrwt>
<rscale>  0 0.15591542E+04</rscale>
<asrwt>0</asrwt>
<pdfrwt beam="1">  1        4 0.16130128E+00 0.15591542E+04</pdfrwt>
<pdfrwt beam="2">  1       -4 0.89177161E-01 0.15591542E+04</pdfrwt>
<totfact> 0.50892502E-01</totfact>
</mgrwt>
</event>
<event>
 6    1  0.2047711E-005  0.1590004E+04  0.7818608E-02  0.8826712E-01
          1   -1    0    0  501    0  0.00000000000E+00  0.00000000000E+00  0.12944141807E+04  0.12944141807E+04  0.00000000000E+00 0. -1.
         -1   -1    0    0    0  501 -0.00000000000E+00 -0.00000000000E+00 -0.48827382183E+03  0.48827382183E+03  0.00000000000E+00 0.  1.
         23    2    1    2    0    0  0.11093353567E+03 -0.35735257328E+03  0.11876285976E+04  0.12483282106E+04  0.88625755185E+02 0.  0.
         11    1    3    3    0    0  0.66074694460E+02 -0.11420205218E+03  0.31936924413E+03  0.34554983442E+03  0.00000000000E+00 0.  1.
        -11    1    3    3    0    0  0.44858841214E+02 -0.24315052110E+03  0.86825935349E+03  0.90277837616E+03  0.00000000000E+00 0. -1.
         22    1    1    2    0    0 -0.11093353567E+03  0.35735257328E+03 -0.38148823874E+03  0.53435979196E+03  0.00000000000E+00 0.  1.
<mgrwt>
<rscale>  0 0.15900045E+04</rscale>
<asrwt>0</asrwt>
<pdfrwt beam="1">  1        1 0.19914064E+00 0.15900045E+04</pdfrwt>
<pdfrwt beam="2">  1       -1 0.75119050E-01 0.15900045E+04</pdfrwt>
<totfact> 0.15623058E+01</totfact>
</mgrwt>
</event>
<event>
 6    1  0.2047711E-005  0.4598186E+04  0.7818608E-02  0.7893669E-01
          2   -1    0    0  501    0  0.00000000000E+00  0.00000000000E+00  0.30778052994E+04  0.30778052994E+04  0.00000000000E+00 0.  1.
         -2   -1    0    0    0  501 -0.00000000000E+00 -0.00000000000E+00 -0.17174017174E+04  0.17174017174E+04  0.00000000000E+00 0. -1.
         23    2    1    2    0    0  0.13060612200E+03  0.11133388960E+04 -0.14117326984E+04  0.18050028410E+04  0.92003194605E+02 0.  0.
         11    1    3    3    0    0  0.71765588215E+02  0.77493606768E+03 -0.91713284929E+03  0.12028336842E+04  0.00000000000E+00 0.  1.
        -11    1    3    3    0    0  0.58840533788E+02  0.33840282829E+03 -0.49459984912E+03  0.60216915677E+03  0.00000000000E+00 0. -1.
         22    1    1    2    0    0 -0.13060612200E+03 -0.11133388960E+04  0.27721362804E+04  0.29902041759E+04  0.00000000000E+00 0.  1.
<mgrwt>
<rscale>  0 0.45981858E+04</rscale>
<asrwt>0</asrwt>
<pdfrwt beam="1">  1        2 0.47350851E+00 0.45981858E+04</pdfrwt>
<pdfrwt beam="2">  1       -2 0.26421565E+00 0.45981858E+04</pdfrwt>
<totfact> 0.61407443E-02</totfact>
</mgrwt>
</event>
<event>
 6    1  0.2047711E-005  0.3225274E+04  0.7818608E-02  0.8182174E-01
          2   -1    0    0  501    0  0.00000000000E+00  0.00000000000E+00  0.12535585917E+04  0.12535585917E+04  0.00000000000E+00 0.  1.
         -2   -1    0    0    0  501 -0.00000000000E+00 -0.00000000000E+00 -0.20745723672E+04  0.20745723672E+04  0.00000000000E+00 0. -1.
         23    2    1    2    0    0  0.63419424087E+03 -0.50504013255E+02  0.11167791229E+04  0.12885735785E+04  0.92050352469E+02 0.  0.
         11    1    3    3    0    0  0.57949136795E+03 -0.20545838000E+02  0.10240229948E+04  0.11767988234E+04  0.00000000000E+00 0. -1.
        -11    1    3    3    0    0  0.54702872914E+02 -0.29958175255E+02  0.92756128142E+02  0.11177475510E+03  0.00000000000E+00 0.  1.
         22    1    1    2    0    0 -0.63419424087E+03  0.50504013255E+02 -0.19377928985E+04  0.20395573804E+04  0.00000000000E+00 0. -1.
<mgrwt>
<rscale>  0 0.32252740E+04</rscale>
<asrwt>0</asrwt>
<pdfrwt beam="1">  1        2 0.19285517E+00 0.32252740E+04</pdfrwt>
<pdfrwt beam="2">  1       -2 0.31916497E+00 0.32252740E+04</pdfrwt>
<totfact> 0.35832726E-01</totfact>
</mgrwt>
</event>
<event>
 6    1  0.2047711E-005  0.1875526E+04  0.7818608E-02  0.8667135E-01
         -2   -1    0    0    0  501 -0.00000000000E+00  0.00000000000E+00  0.48228580447E+03  0.48228580447E+03  0.00000000000E+00 0.  1.
          2   -1    0    0  501    0  0.00000000000E+00 -0.00000000000E+00 -0.18233990835E+04  0.18233990835E+04  0.00000000000E+00 0. -1.
         23    2    1    2    0    0 -0.26949589523E+03  0.13563833427E+03  0.41653306998E+03  0.52233229146E+03  0.91134126719E+02 0.  0.
         11    1    3    3    0    0 -0.19879512046E+03  0.12993004242E+03  0.36160841355E+03  0.43262219152E+03  0.00000000000E+00 0. -1.
        -11    1    3    3    0    0 -0.70700774770E+02  0.57082918499E+01  0.54924656423E+02  0.89710099945E+02  0.00000000000E+00 0.  1.
         22    1    1    2    0    0  0.26949589523E+03 -0.13563833427E+03 -0.17576463490E+04  0.17833525965E+04  0.00000000000E+00 0. -1.
<mgrwt>
<rscale>  0 0.18755261E+04</rscale>
<asrwt>0</asrwt>
<pdfrwt beam="1">  1        2 0.28052294E+00 0.18755261E+04</pdfrwt>
<pdfrwt beam="2">  1       -2 0.74197816E-01 0.18755261E+04</pdfrwt>
<totfact> 0.12850165E+01</totfact>
</mgrwt>
</event>
<event>
 6    1  0.2047711E-005  0.1342872E+04  0.7818608E-02  0.8996241E-01
          2   -1    0    0  501    0  0.00000000000E+00  0.00000000000E+00  0.13927215124E+04  0.13927215124E+04  0.00000000000E+00 0. -1.
         -2   -1    0    0    0  501 -0.00000000000E+00 -0.00000000000E+00 -0.32370192031E+03  0.32370192031E+03  0.00000000000E+00 0.  1.
         23    2    1    2    0    0 -0.71860495173E+02  0.52250147684E+03  0.10613895415E+04  0.11889483700E+04  0.94227086612E+02 0.  0.
         13    1    3    3    0    0 -0.70220385647E+02  0.17926910677E+03  0.37942069538E+03  0.42547429921E+03  0.00000000000E+00 0. -1.
        -13    1    3    3    0    0 -0.16401095265E+01  0.34323237007E+03  0.68196884607E+03  0.76347407083E+03  0.00000000000E+00 0.  1.
         22    1    1    2    0    0  0.71860495173E+02 -0.52250147684E+03  0.76300506291E+01  0.52747506267E+03  0.00000000000E+00 0.  1.
<mgrwt>
<rscale>  0 0.13428725E+04</rscale>
<asrwt>0</asrwt>
<pdfrwt beam="1">  1        2 0.21426484E+00 0.13428725E+04</pdfrwt>
<pdfrwt beam="2">  1       -2 0.49800296E-01 0.13428725E+04</pdfrwt>
<totfact> 0.54461350E+01</totfact>
</mgrwt>
</event>
<event>
 6    1  0.2047711E-005  0.2059158E+04  0.7818608E-02  0.8579451E-01
          2   -1    0    0  501    0  0.00000000000E+00  0.00000000000E+00  0.60850987806E+03  0.60850987806E+03  0.00000000000E+00 0. -1.
         -2   -1    0    0    0  501 -0.00000000000E+00 -0.00000000000E+00 -0.17420137444E+04  0.17420137444E+04  0.00000000000E+00 0.  1.
         23    2    1    2    0    0 -0.58628685453E+03  0.83662356530E+03 -0.69384621116E+03  0.12383320384E+04  0.91500856954E+02 0.  0.
         11    1    3    3    0    0 -0.42547361958E+03  0.67161680985E+03 -0.52672410264E+03  0.95369555967E+03  0.00000000000E+00 0. -1.
        -11    1    3    3    0    0 -0.16081323495E+03  0.16500675546E+03 -0.16712210852E+03  0.28463647875E+03  0.00000000000E+00 0.  1.
         22    1    1    2    0    0  0.58628685453E+03 -0.83662356530E+03 -0.43965765515E+03  0.11121915840E+04  0.00000000000E+00 0. -1.
<mgrwt>
<rscale>  0 0.20591577E+04</rscale>
<asrwt>0</asrwt>
<pdfrwt beam="1">  1        2 0.93616904E-01 0.20591577E+04</pdfrwt>
<pdfrwt beam="2">  1       -2 0.26800211E+00 0.20591577E+04</pdfrwt>
<totfact> 0.22474473E+00</totfact>
</mgrwt>
</event>
<event>
 6    1  0.2047711E-005  0.2667585E+04  0.7818608E-02  0.8345600E-01
          2   -1    0    0  501    0  0.00000000000E+00  0.00000000000E+00  0.34475828989E+04  0.34475828989E+04  0.00000000000E+00 0. -1.
         -2   -1    0    0    0  501 -0.00000000000E+00 -0.00000000000E+00 -0.51601445717E+03  0.51601445717E+03  0.00000000000E+00 0.  1.
         23    2    1    2    0    0  0.22164298260E+03 -0.13133341164E+04  0.15130305965E+04  0.20177757478E+04  0.90472478884E+02 0.  0.
         11    1    3    3    0    0 -0.23892037894E+01 -0.15222692071E+03  0.18403288717E+03  0.23884481834E+03  0.00000000000E+00 0.  1.
        -11    1    3    3    0    0  0.22403218639E+03 -0.11611071957E+04  0.13289977093E+04  0.17789309294E+04  0.00000000000E+00 0. -1.
         22    1    1    2    0    0 -0.22164298260E+03  0.13133341164E+04  0.14185378452E+04  0.19458216083E+04  0.00000000000E+00 0.  1.
<mgrwt>
<rscale>  0 0.26675851E+04</rscale>
<asrwt>0</asrwt>
<pdfrwt beam="1">  1        2 0.53039735E+00 0.26675851E+04</pdfrwt>
<pdfrwt beam="2">  1       -2 0.79386842E-01 0.26675851E+04</pdfrwt>
<totfact> 0.10942009E+00</totfact>
</mgrwt>
</event>
<event>
 6    1  0.2047711E-005  0.2002590E+04  0.7818608E-02  0.8605411E-01
          2   -1    0    0  501    0  0.00000000000E+00  0.00000000000E+00  0.13430590124E+04  0.13430590124E+04  0.00000000000E+00 0. -1.
         -2   -1    0    0    0  501 -0.00000000000E+00 -0.00000000000E+00 -0.74649862003E+03  0.74649862003E+03  0.00000000000E+00 0.  1.
         23    2    1    2    0    0 -0.61451642304E+03 -0.75813333425E+03  0.75462171394E+02  0.98323944014E+03  0.93105696100E+02 0.  0.
         13    1    3    3    0    0 -0.43657606309E+03 -0.50835755542E+03  0.12745168842E+02  0.67021526567E+03  0.00000000000E+00 0. -1.
        -13    1    3    3    0    0 -0.17794035995E+03 -0.24977577883E+03  0.62717002552E+02  0.31302417446E+03  0.00000000000E+00 0.  1.
         22    1    1    2    0    0  0.61451642304E+03  0.75813333425E+03  0.52109822098E+03  0.11063181923E+04  0.00000000000E+00 0.  1.
<mgrwt>
<rscale>  0 0.20025900E+04</rscale>
<asrwt>0</asrwt>
<pdfrwt beam="1">  1        2 0.20662446E+00 0.20025900E+04</pdfrwt>
<pdfrwt beam="2">  1       -2 0.11484594E+00 0.20025900E+04</pdfrwt>
<totfact> 0.85767916E+00</totfact>
</mgrwt>
</event>
<event>
 6    1  0.2047711E-005  0.2035049E+04  0.7818608E-02  0.8590407E-01
         -2   -1    0    0    0  501 -0.00000000000E+00  0.00000000000E+00  0.87648208840E+03  0.87648208840E+03  0.00000000000E+00 0.  1.
          2   -1    0    0  501    0  0.00000000000E+00 -0.00000000000E+00 -0.11812636614E+04  0.11812636614E+04  0.00000000000E+00 0. -1.
         23    2    1    2    0    0  0.41718196047E+03 -0.92580988420E+03 -0.15485517924E+03  0.10312747793E+04  0.91557708654E+02 0.  0.
         11    1    3    3    0    0  0.33603599027E+03 -0.67364926818E+03 -0.14186565361E+03  0.76606095511E+03  0.00000000000E+00 0. -1.
        -11    1    3    3    0    0  0.81145970197E+02 -0.25216061603E+03 -0.12989525632E+02  0.26521382417E+03  0.00000000000E+00 0.  1.
         22    1    1    2    0    0 -0.41718196047E+03  0.92580988420E+03 -0.14992639379E+03  0.10264709706E+04  0.00000000000E+00 0. -1.
<mgrwt>
<rscale>  0 0.20350493E+04</rscale>
<asrwt>0</asrwt>
<pdfrwt beam="1">  1        2 0.18173287E+00 0.20350493E+04</pdfrwt>
<pdfrwt beam="2">  1       -2 0.13484340E+00 0.20350493E+04</pdfrwt>
<totfact> 0.71261868E+00</totfact>
</mgrwt>
</event>
<event>
 6    1  0.2047711E-005  0.2475282E+04  0.7818608E-02  0.8411845E-01
          2   -1    0    0  501    0  0.00000000000E+00  0.00000000000E+00  0.69147902747E+03  0.69147902747E+03  0.00000000000E+00 0. -1.
         -2   -1    0    0    0  501 -0.00000000000E+00 -0.00000000000E+00 -0.22151863145E+04  0.22151863145E+04  0.00000000000E+00 0.  1.
         23    2    1    2    0    0  0.18000779150E+03  0.42045933093E+03 -0.21107500918E+04  0.21624824957E+04  0.10897587021E+03 0.  0.
         13    1    3    3    0    0  0.22018847942E+02  0.14949265718E+03 -0.84813190331E+03  0.86148744021E+03  0.00000000000E+00 0.  1.
        -13    1    3    3    0    0  0.15798894356E+03  0.27096667375E+03 -0.12626181885E+04  0.13009950555E+04  0.00000000000E+00 0. -1.
         22    1    1    2    0    0 -0.18000779150E+03 -0.42045933093E+03  0.58704280479E+03  0.74418284623E+03  0.00000000000E+00 0. -1.
<mgrwt>
<rscale>  0 0.24752817E+04</rscale>
<asrwt>0</asrwt>
<pdfrwt beam="1">  1        2 0.10638139E+00 0.24752817E+04</pdfrwt>
<pdfrwt beam="2">  1       -2 0.34079789E+00 0.24752817E+04</pdfrwt>
<totfact> 0.66138779E-01</totfact>
</mgrwt>
</event>
<event>
 6    1  0.2047711E-005  0.4276085E+04  0.7818608E-02  0.7951055E-01
         -2   -1    0    0    0  501 -0.00000000000E+00  0.00000000000E+00  0.16857680910E+04  0.16857680910E+04  0.00000000000E+00 0.  1.
          2   -1    0    0  501    0  0.00000000000E+00 -0.00000000000E+00 -0.27116576954E+04  0.27116576954E+04  0.00000000000E+00 0. -1.
         23    2    1    2    0    0 -0.92978517141E+03 -0.12643211781E+04  0.97850327902E+03  0.18517236559E+04  0.91669648351E+02 0.  0.
         11    1    3    3    0    0 -0.36683800747E+03 -0.44608423056E+03  0.32318441428E+03  0.66182280869E+03  0.00000000000E+00 0. -1.
        -11    1    3    3    0    0 -0.56294716395E+03 -0.81823694753E+03  0.65531886474E+03  0.11899008472E+04  0.00000000000E+00 0.  1.
         22    1    1    2    0    0  0.92978517141E+03  0.12643211781E+04 -0.20043928834E+04  0.25457021306E+04  0.00000000000E+00 0. -1.
<mgrwt>
<rscale>  0 0.42760851E+04</rscale>
<asrwt>0</asrwt>
<pdfrwt beam="1">  1        2 0.41717810E+00 0.42760851E+04</pdfrwt>
<pdfrwt beam="2">  1       -2 0.25934894E+00 0.42760851E+04</pdfrwt>
<totfact> 0.11351196E-01</totfact>
</mgrwt>
</event>
<event>
 6    1  0.2047711E-005  0.2865213E+04  0.7818608E-02  0.8283303E-01
          2   -1    0    0  501    0  0.00000000000E+00  0.00000000000E+00  0.23792679556E+04  0.23792679556E+04  0.00000000000E+00 0. -1.
         -2   -1    0    0    0  501 -0.00000000000E+00 -0.00000000000E+00 -0.86260229180E+03  0.86260229180E+03  0.00000000000E+00 0.  1.
         23    2    1    2    0    0 -0.69016683499E+03  0.53715212487E+03  0.20408632411E+04  0.22222400373E+04  0.91462284678E+02 0.  0.
         13    1    3    3    0    0 -0.41146059537E+03  0.37416786488E+03  0.13200087861E+04  0.14323842390E+04  0.00000000000E+00 0.  1.
        -13    1    3    3    0    0 -0.27870623962E+03  0.16298425999E+03  0.72085445494E+03  0.78985579837E+03  0.00000000000E+00 0. -1.
         22    1    1    2    0    0  0.69016683499E+03 -0.53715212487E+03 -0.52419757722E+03  0.10196302101E+04  0.00000000000E+00 0.  1.
<mgrwt>
<rscale>  0 0.28652134E+04</rscale>
<asrwt>0</asrwt>
<pdfrwt beam="1">  1        2 0.36604122E+00 0.28652134E+04</pdfrwt>
<pdfrwt beam="2">  1       -2 0.13270805E+00 0.28652134E+04</pdfrwt>
<totfact> 0.14572187E+00</totfact>
</mgrwt>
</event>
<event>
 6    1  0.2047711E-005  0.1627946E+04  0.7818608E-02  0.8803561E-01
          2   -1    0    0  501    0  0.00000000000E+00  0.00000000000E+00  0.15687642971E+04  0.15687642971E+04  0.00000000000E+00 0. -1.
         -2   -1    0    0    0  501 -0.00000000000E+00 -0.00000000000E+00 -0.42234005488E+03  0.42234005488E+03  0.00000000000E+00 0.  1.
         23    2    1    2    0    0 -0.77908158611E+03 -0.22686706674E+03  0.56430269038E+03  0.99245412045E+03  0.89949269173E+02 0.  0.
         13    1    3    3    0    0 -0.34727072815E+03 -0.67966186287E+02  0.28348946527E+03  0.45341221645E+03  0.00000000000E+00 0. -1.
        -13    1    3    3    0    0 -0.43181085797E+03 -0.15890088045E+03  0.28081322511E+03  0.53904190400E+03  0.00000000000E+00 0.  1.
         22    1    1    2    0    0  0.77908158611E+03  0.22686706674E+03  0.58212155181E+03  0.99865023150E+03  0.00000000000E+00 0. -1.
<mgrwt>
<rscale>  0 0.16279459E+04</rscale>
<asrwt>0</asrwt>
<pdfrwt beam="1">  1        2 0.24134835E+00 0.16279459E+04</pdfrwt>
<pdfrwt beam="2">  1       -2 0.64975394E-01 0.16279459E+04</pdfrwt>
<totfact> 0.24272277E+01</totfact>
</mgrwt>
</event>
<event>
 6    1  0.2047711E-005  0.1557781E+04  0.7818608E-02  0.8846913E-01
         -2   -1    0    0    0  501 -0.00000000000E+00  0.00000000000E+00  0.70582854112E+03  0.70582854112E+03  0.00000000000E+00 0. -1.
          2   -1    0    0  501    0  0.00000000000E+00 -0.00000000000E+00 -0.85951499640E+03  0.85951499640E+03  0.00000000000E+00 0.  1.
         23    2    1    2    0    0 -0.41874734630E+01 -0.58559886171E+03  0.43499162027E+03  0.73499093867E+03  0.89724068388E+02 0.  0.
         13    1    3    3    0    0 -0.10291686398E+02 -0.57072183235E+03  0.43686046278E+03  0.71880205388E+03  0.00000000000E+00 0. -1.
        -13    1    3    3    0    0  0.61042129352E+01 -0.14877029367E+02 -0.18688425094E+01  0.16188884787E+02  0.00000000000E+00 0.  1.
         22    1    1    2    0    0  0.41874734630E+01  0.58559886171E+03 -0.58867807555E+03  0.83035259885E+03  0.00000000000E+00 0.  1.
<mgrwt>
<rscale>  0 0.15577807E+04</rscale>
<asrwt>0</asrwt>
<pdfrwt beam="1">  1        2 0.13223308E+00 0.15577807E+04</pdfrwt>
<pdfrwt beam="2">  1       -2 0.10858901E+00 0.15577807E+04</pdfrwt>
<totfact> 0.20386575E+01</totfact>
</mgrwt>
</event>
<event>
 6    1  0.2047711E-005  0.1703217E+04  0.7818608E-02  0.8759532E-01
          2   -1    0    0  501    0  0.00000000000E+00  0.00000000000E+00  0.14892838192E+04  0.14892838192E+04  0.00000000000E+00 0. -1.
         -2   -1    0    0    0  501 -0.00000000000E+00 -0.00000000000E+00 -0.48697008798E+03  0.48697008798E+03  0.00000000000E+00 0.  1.
         23    2    1    2    0    0 -0.95921070348E+02 -0.65572861784E+03  0.11186722371E+04  0.13034090708E+04  0.90921723157E+02 0.  0.
         13    1    3    3    0    0  0.10500570824E+02 -0.94600353377E+02  0.12254431316E+03  0.15516635439E+03  0.00000000000E+00 0.  1.
        -13    1    3    3    0    0 -0.10642164117E+03 -0.56112826447E+03  0.99612792398E+03  0.11482427164E+04  0.00000000000E+00 0. -1.
         22    1    1    2    0    0  0.95921070348E+02  0.65572861784E+03 -0.11635850588E+03  0.67284483641E+03  0.00000000000E+00 0.  1.
<mgrwt>
<rscale>  0 0.17032166E+04</rscale>
<asrwt>0</asrwt>
<pdfrwt beam="1">  1        2 0.22912059E+00 0.17032166E+04</pdfrwt>
<pdfrwt beam="2">  1       -2 0.74918476E-01 0.17032166E+04</pdfrwt>
<totfact> 0.19600247E+01</totfact>
</mgrwt>
</event>
<event>
 6    1  0.2047711E-005  0.2362654E+04  0.7818608E-02  0.8453619E-01
         -2   -1    0    0    0  501 -0.00000000000E+00  0.00000000000E+00  0.13575261273E+04  0.13575261273E+04  0.00000000000E+00 0.  1.
          2   -1    0    0  501    0  0.00000000000E+00 -0.00000000000E+00 -0.10279972805E+04  0.10279972805E+04  0.00000000000E+00 0. -1.
         23    2    1    2    0    0  0.70220329055E+03  0.86616481267E+03 -0.22304693092E+03  0.11410673282E+04  0.94624363435E+02 0.  0.
         13    1    3    3    0    0  0.40363205025E+03  0.50349147845E+03 -0.81446809885E+02  0.65042761604E+03  0.00000000000E+00 0.  1.
        -13    1    3    3    0    0  0.29857124030E+03  0.36267333422E+03 -0.14160012104E+03  0.49063971218E+03  0.00000000000E+00 0. -1.
         22    1    1    2    0    0 -0.70220329055E+03 -0.86616481267E+03  0.55257577776E+03  0.12444560796E+04  0.00000000000E+00 0.  1.
<mgrwt>
<rscale>  0 0.23626537E+04</rscale>
<asrwt>0</asrwt>
<pdfrwt beam="1">  1        2 0.15815343E+00 0.23626537E+04</pdfrwt>
<pdfrwt beam="2">  1       -2 0.20885017E+00 0.23626537E+04</pdfrwt>
<totfact> 0.25389760E+00</totfact>
</mgrwt>
</event>
<event>
 6    1  0.2047711E-005  0.2029916E+04  0.7818608E-02  0.8592760E-01
          2   -1    0    0  501    0  0.00000000000E+00  0.00000000000E+00  0.12710423832E+04  0.12710423832E+04  0.00000000000E+00 0. -1.
         -2   -1    0    0    0  501 -0.00000000000E+00 -0.00000000000E+00 -0.81046865648E+03  0.81046865648E+03  0.00000000000E+00 0.  1.
         23    2    1    2    0    0 -0.28435628526E+03 -0.18096029405E+03  0.12101982150E+04  0.12595974199E+04  0.91655963404E+02 0.  0.
         13    1    3    3    0    0 -0.18243829844E+03 -0.16496710431E+03  0.83468730553E+03  0.87017284275E+03  0.00000000000E+00 0.  1.
        -13    1    3    3    0    0 -0.10191798682E+03 -0.15993189736E+02  0.37551090946E+03  0.38942457714E+03  0.00000000000E+00 0. -1.
         22    1    1    2    0    0  0.28435628526E+03  0.18096029405E+03 -0.74962448827E+03  0.82191361980E+03  0.00000000000E+00 0.  1.
<mgrwt>
<rscale>  0 0.20299163E+04</rscale>
<asrwt>0</asrwt>
<pdfrwt beam="1">  1        2 0.19554498E+00 0.20299163E+04</pdfrwt>
<pdfrwt beam="2">  1       -2 0.12468749E+00 0.20299163E+04</pdfrwt>
<totfact> 0.76885003E+00</totfact>
</mgrwt>
</event>
<event>
 6    1  0.2047711E-005  0.3336880E+04  0.7818608E-02  0.8153574E-01
          1   -1    0    0  501    0  0.00000000000E+00  0.00000000000E+00  0.23279387078E+04  0.23279387078E+04  0.00000000000E+00 0. -1.
         -1   -1    0    0    0  501 -0.00000000000E+00 -0.00000000000E+00 -0.11957751344E+04  0.11957751344E+04  0.00000000000E+00 0.  1.
         23    2    1    2    0    0 -0.20808030893E+03  0.16487033642E+04  0.70855713924E+03  0.18087903428E+04  0.90272292274E+02 0.  0.
         11    1    3    3    0    0 -0.16215844995E+03  0.11154553254E+04  0.51978377874E+03  0.12412538510E+04  0.00000000000E+00 0.  1.
        -11    1    3    3    0    0 -0.45921858979E+02  0.53324803870E+03  0.18877336050E+03  0.56753649182E+03  0.00000000000E+00 0. -1.
         22    1    1    2    0    0  0.20808030893E+03 -0.16487033642E+04  0.42360643412E+03  0.17149234994E+04  0.00000000000E+00 0.  1.
<mgrwt>
<rscale>  0 0.33368795E+04</rscale>
<asrwt>0</asrwt>
<pdfrwt beam="1">  1        1 0.35814442E+00 0.33368795E+04</pdfrwt>
<pdfrwt beam="2">  1       -1 0.18396541E+00 0.33368795E+04</pdfrwt>
<totfact> 0.28709640E-01</totfact>
</mgrwt>
</event>
<event>
 6    1  0.2047711E-005  0.2398173E+04  0.7818608E-02  0.8440188E-01
          1   -1    0    0  501    0  0.00000000000E+00  0.00000000000E+00  0.21302473377E+04  0.21302473377E+04  0.00000000000E+00 0. -1.
         -1   -1    0    0    0  501 -0.00000000000E+00 -0.00000000000E+00 -0.67494929427E+03  0.67494929427E+03  0.00000000000E+00 0.  1.
         23    2    1    2    0    0  0.63147499361E+03  0.58845863499E+03  0.16993417949E+04  0.19082007650E+04  0.91779033989E+02 0.  0.
         13    1    3    3    0    0  0.51891221090E+03  0.48763581503E+03  0.13190174254E+04  0.14989548156E+04  0.00000000000E+00 0. -1.
        -13    1    3    3    0    0  0.11256278271E+03  0.10082281996E+03  0.38032436948E+03  0.40924594940E+03  0.00000000000E+00 0.  1.
         22    1    1    2    0    0 -0.63147499361E+03 -0.58845863499E+03 -0.24404375148E+03  0.89699586693E+03  0.00000000000E+00 0.  1.
<mgrwt>
<rscale>  0 0.23981734E+04</rscale>
<asrwt>0</asrwt>
<pdfrwt beam="1">  1        1 0.32773036E+00 0.23981734E+04</pdfrwt>
<pdfrwt beam="2">  1       -1 0.10383835E+00 0.23981734E+04</pdfrwt>
<totfact> 0.19028135E+00</totfact>
</mgrwt>
</event>
<event>
 6    1  0.2047711E-005  0.4274825E+04  0.7818608E-02  0.7951290E-01
         -2   -1    0    0    0  501 -0.00000000000E+00  0.00000000000E+00  0.21588835612E+04  0.21588835612E+04  0.00000000000E+00 0.  1.
          2   -1    0    0  501    0  0.00000000000E+00 -0.00000000000E+00 -0.21161548469E+04  0.21161548469E+04  0.00000000000E+00 0. -1.
         23    2    1    2    0    0  0.13425944144E+04  0.13956427550E+04  0.92345956408E+03  0.21475832874E+04  0.94646440424E+02 0.  0.
         11    1    3    3    0    0  0.90622419569E+02  0.65749934545E+02  0.64373297836E+02  0.12914874485E+03  0.00000000000E+00 0. -1.
        -11    1    3    3    0    0  0.12519719948E+04  0.13298928205E+04  0.85908626624E+03  0.20184345425E+04  0.00000000000E+00 0.  1.
         22    1    1    2    0    0 -0.13425944144E+04 -0.13956427550E+04 -0.88073084975E+03  0.21274551208E+04  0.00000000000E+00 0. -1.
<mgrwt>
<rscale>  0 0.42748249E+04</rscale>
<asrwt>0</asrwt>
<pdfrwt beam="1">  1        2 0.32556228E+00 0.42748249E+04</pdfrwt>
<pdfrwt beam="2">  1       -2 0.33213593E+00 0.42748249E+04</pdfrwt>
<totfact> 0.89394463E-02</totfact>
</mgrwt>
</event>
<event>
 6    1  0.2047711E-005  0.2337899E+04  0.7818608E-02  0.8463126E-01
          2   -1    0    0  501    0  0.00000000000E+00  0.00000000000E+00  0.27863790096E+04  0.27863790096E+04  0.00000000000E+00 0. -1.
         -2   -1    0    0    0  501 -0.00000000000E+00 -0.00000000000E+00 -0.49040081674E+03  0.49040081674E+03  0.00000000000E+00 0.  1.
         23    2    1    2    0    0 -0.75032804942E+03 -0.24011785409E+03  0.23564398238E+04  0.24866504861E+04  0.99866065659E+02 0.  0.
         11    1    3    3    0    0 -0.43213806104E+03 -0.18097273025E+03  0.14787682897E+04  0.15512092340E+04  0.00000000000E+00 0. -1.
        -11    1    3    3    0    0 -0.31818998838E+03 -0.59145123832E+02  0.87767153411E+03  0.93544125212E+03  0.00000000000E+00 0.  1.
         22    1    1    2    0    0  0.75032804942E+03  0.24011785409E+03 -0.60461630906E+02  0.79012934031E+03  0.00000000000E+00 0.  1.
<mgrwt>
<rscale>  0 0.23378987E+04</rscale>
<asrwt>0</asrwt>
<pdfrwt beam="1">  1        2 0.42867368E+00 0.23378987E+04</pdfrwt>
<pdfrwt beam="2">  1       -2 0.75446281E-01 0.23378987E+04</pdfrwt>
<totfact> 0.33575572E+00</totfact>
</mgrwt>
</event>
<event>
 6    1  0.2047711E-005  0.1266258E+04  0.7818608E-02  0.9056759E-01
          2   -1    0    0  501    0  0.00000000000E+00  0.00000000000E+00  0.14384691438E+04  0.14384691438E+04  0.00000000000E+00 0.  1.
         -2   -1    0    0    0  501 -0.00000000000E+00 -0.00000000000E+00 -0.27866599488E+03  0.27866599488E+03  0.00000000000E+00 0. -1.
         23    2    1    2    0    0  0.72514627642E+02  0.53791297929E+03  0.14931687893E+03  0.57009928644E+03  0.90049550556E+02 0.  0.
         13    1    3    3    0    0 -0.72569815208E+01  0.18796761291E+03  0.22578381219E+02  0.18945783326E+03  0.00000000000E+00 0. -1.
        -13    1    3    3    0    0  0.79771609162E+02  0.34994536638E+03  0.12673849771E+03  0.38064145318E+03  0.00000000000E+00 0.  1.
         22    1    1    2    0    0 -0.72514627642E+02 -0.53791297929E+03  0.10104862700E+04  0.11470358523E+04  0.00000000000E+00 0.  1.
<mgrwt>
<rscale>  0 0.12662582E+04</rscale>
<asrwt>0</asrwt>
<pdfrwt beam="1">  1        2 0.22130294E+00 0.12662582E+04</pdfrwt>
<pdfrwt beam="2">  1       -2 0.42871692E-01 0.12662582E+04</pdfrwt>
<totfact> 0.69680278E+01</totfact>
</mgrwt>
</event>
<event>
 6    1  0.2047711E-005  0.1491833E+04  0.7818608E-02  0.8889902E-01
          1   -1    0    0  501    0  0.00000000000E+00  0.00000000000E+00  0.29512010435E+04  0.29512010435E+04  0.00000000000E+00 0. -1.
         -1   -1    0    0    0  501 -0.00000000000E+00 -0.00000000000E+00 -0.18853046078E+03  0.18853046078E+03  0.00000000000E+00 0.  1.
         23    2    1    2    0    0 -0.61736528242E+03  0.38978605337E+03  0.16772501605E+04  0.18315990369E+04  0.92270643073E+02 0.  0.
         13    1    3    3    0    0 -0.44458169340E+03  0.32503937400E+03  0.12214295435E+04  0.13398483521E+04  0.00000000000E+00 0. -1.
        -13    1    3    3    0    0 -0.17278358902E+03  0.64746679370E+02  0.45582061703E+03  0.49175068483E+03  0.00000000000E+00 0.  1.
         22    1    1    2    0    0  0.61736528242E+03 -0.38978605337E+03  0.10854204222E+04  0.13081324674E+04  0.00000000000E+00 0.  1.
<mgrwt>
<rscale>  0 0.14918328E+04</rscale>
<asrwt>0</asrwt>
<pdfrwt beam="1">  1        1 0.45403090E+00 0.14918328E+04</pdfrwt>
<pdfrwt beam="2">  1       -1 0.29004688E-01 0.14918328E+04</pdfrwt>
<totfact> 0.68384708E+00</totfact>
</mgrwt>
</event>
<event>
 6    1  0.2047711E-005  0.6810422E+03  0.7818608E-02  0.9750213E-01
         -1   -1    0    0    0  501 -0.00000000000E+00  0.00000000000E+00  0.21271658527E+03  0.21271658527E+03  0.00000000000E+00 0.  1.
          1   -1    0    0  501    0  0.00000000000E+00 -0.00000000000E+00 -0.54511322325E+03  0.54511322325E+03  0.00000000000E+00 0. -1.
         23    2    1    2    0    0 -0.67619033447E+02 -0.31625911931E+03 -0.73775495323E+02  0.34373192195E+03  0.90092431587E+02 0.  0.
         13    1    3    3    0    0 -0.13923839454E+02 -0.27625488049E+02 -0.36410127732E+02  0.47778010597E+02  0.00000000000E+00 0. -1.
        -13    1    3    3    0    0 -0.53695193993E+02 -0.28863363126E+03 -0.37365367591E+02  0.29595391135E+03  0.00000000000E+00 0.  1.
         22    1    1    2    0    0  0.67619033447E+02  0.31625911931E+03 -0.25862114266E+03  0.41409788657E+03  0.00000000000E+00 0.  1.
<mgrwt>
<rscale>  0 0.68104221E+03</rscale>
<asrwt>0</asrwt>
<pdfrwt beam="1">  1        1 0.83863574E-01 0.68104221E+03</pdfrwt>
<pdfrwt beam="2">  1       -1 0.32725628E-01 0.68104221E+03</pdfrwt>
<totfact> 0.34776471E+02</totfact>
</mgrwt>
</event>
<event>
 6    1  0.2047711E-005  0.6261588E+03  0.7818608E-02  0.9852573E-01
          2   -1    0    0  501    0  0.00000000000E+00  0.00000000000E+00  0.79507302489E+03  0.79507302489E+03  0.00000000000E+00 0. -1.
         -2   -1    0    0    0  501 -0.00000000000E+00 -0.00000000000E+00 -0.12328263852E+03  0.12328263852E+03  0.00000000000E+00 0.  1.
         23    2    1    2    0    0 -0.16919623267E+03  0.52905819790E+02  0.70935792750E+03  0.73714387830E+03  0.93627117246E+02 0.  0.
         13    1    3    3    0    0 -0.25018088223E+02 -0.89936936639E+01  0.25650732910E+03  0.25788137030E+03  0.00000000000E+00 0.  1.
        -13    1    3    3    0    0 -0.14417814444E+03  0.61899513454E+02  0.45285059840E+03  0.47926250800E+03  0.00000000000E+00 0. -1.
         22    1    1    2    0    0  0.16919623267E+03 -0.52905819790E+02 -0.37567541133E+02  0.18121178511E+03  0.00000000000E+00 0.  1.
<mgrwt>
<rscale>  0 0.62615877E+03</rscale>
<asrwt>0</asrwt>
<pdfrwt beam="1">  1        2 0.12231892E+00 0.62615877E+03</pdfrwt>
<pdfrwt beam="2">  1       -2 0.18966560E-01 0.62615877E+03</pdfrwt>
<totfact> 0.81788421E+02</totfact>
</mgrwt>
</event>
<event>
 6    1  0.2047711E-005  0.9880845E+03  0.7818608E-02  0.9321711E-01
         -2   -1    0    0    0  501 -0.00000000000E+00  0.00000000000E+00  0.21733791298E+03  0.21733791298E+03  0.00000000000E+00 0.  1.
          2   -1    0    0  501    0  0.00000000000E+00 -0.00000000000E+00 -0.11230335006E+04  0.11230335006E+04  0.00000000000E+00 0. -1.
         23    2    1    2    0    0 -0.40785048286E+03 -0.21663426822E+03 -0.67769219709E+03  0.82533940618E+03  0.92983863426E+02 0.  0.
         13    1    3    3    0    0 -0.13590993655E+03 -0.12298113358E+03 -0.25286355760E+03  0.31230729871E+03  0.00000000000E+00 0. -1.
        -13    1    3    3    0    0 -0.27194054631E+03 -0.93653134641E+02 -0.42482863950E+03  0.51303210747E+03  0.00000000000E+00 0.  1.
         22    1    1    2    0    0  0.40785048286E+03  0.21663426822E+03 -0.22800339052E+03  0.51503200738E+03  0.00000000000E+00 0.  1.
<mgrwt>
<rscale>  0 0.98808453E+03</rscale>
<asrwt>0</asrwt>
<pdfrwt beam="1">  1        2 0.17277438E+00 0.98808453E+03</pdfrwt>
<pdfrwt beam="2">  1       -2 0.33436602E-01 0.98808453E+03</pdfrwt>
<totfact> 0.17583483E+02</totfact>
</mgrwt>
</event>
<event>
 6    1  0.2047711E-005  0.6355320E+03  0.7818608E-02  0.9834312E-01
          1   -1    0    0  501    0  0.00000000000E+00  0.00000000000E+00  0.63852792701E+03  0.63852792701E+03  0.00000000000E+00 0. -1.
         -1   -1    0    0    0  501 -0.00000000000E+00 -0.00000000000E+00 -0.15813755342E+03  0.15813755342E+03  0.00000000000E+00 0.  1.
         23    2    1    2    0    0 -0.16749247422E+03 -0.21116356685E+03  0.49487969339E+02  0.28841292226E+03  0.89939833962E+02 0.  0.
         11    1    3    3    0    0 -0.79012280433E+02 -0.14956544119E+03 -0.14853833118E+01  0.16915959334E+03  0.00000000000E+00 0. -1.
        -11    1    3    3    0    0 -0.88480193788E+02 -0.61598125668E+02  0.50973352650E+02  0.11925332892E+03  0.00000000000E+00 0.  1.
         22    1    1    2    0    0  0.16749247422E+03  0.21116356685E+03  0.43090240425E+03  0.50825255816E+03  0.00000000000E+00 0. -1.
<mgrwt>
<rscale>  0 0.63553204E+03</rscale>
<asrwt>0</asrwt>
<pdfrwt beam="1">  1        1 0.98235064E-01 0.63553204E+03</pdfrwt>
<pdfrwt beam="2">  1       -1 0.24328855E-01 0.63553204E+03</pdfrwt>
<totfact> 0.46378314E+02</totfact>
</mgrwt>
</event>
<event>
 6    1  0.2047711E-005  0.5090691E+04  0.7818608E-02  0.7814668E-01
          2   -1    0    0  501    0  0.00000000000E+00  0.00000000000E+00  0.18374093760E+04  0.18374093760E+04  0.00000000000E+00 0. -1.
         -2   -1    0    0    0  501 -0.00000000000E+00 -0.00000000000E+00 -0.35260421166E+04  0.35260421166E+04  0.00000000000E+00 0.  1.
         23    2    1    2    0    0  0.18600532063E+04 -0.15470841778E+04 -0.13928643153E+02  0.24210203214E+04  0.88758132067E+02 0.  0.
         11    1    3    3    0    0  0.33517737146E+03 -0.29470855528E+03  0.29612527023E+02  0.44729621578E+03  0.00000000000E+00 0. -1.
        -11    1    3    3    0    0  0.15248758348E+04 -0.12523756226E+04 -0.43541170176E+02  0.19737241056E+04  0.00000000000E+00 0.  1.
         22    1    1    2    0    0 -0.18600532063E+04  0.15470841778E+04 -0.16747040974E+04  0.29424311712E+04  0.00000000000E+00 0.  1.
<mgrwt>
<rscale>  0 0.50906907E+04</rscale>
<asrwt>0</asrwt>
<pdfrwt beam="1">  1        2 0.28267837E+00 0.50906907E+04</pdfrwt>
<pdfrwt beam="2">  1       -2 0.54246801E+00 0.50906907E+04</pdfrwt>
<totfact> 0.56180655E-03</totfact>
</mgrwt>
</event>
<event>
 6    1  0.2047711E-005  0.4383572E+04  0.7818608E-02  0.7931343E-01
         -2   -1    0    0    0  501 -0.00000000000E+00  0.00000000000E+00  0.14067157711E+04  0.14067157711E+04  0.00000000000E+00 0.  1.
          2   -1    0    0  501    0  0.00000000000E+00 -0.00000000000E+00 -0.34149940663E+04  0.34149940663E+04  0.00000000000E+00 0. -1.
         23    2    1    2    0    0  0.18388300917E+04  0.74049333470E+03  0.21413777856E+02  0.19845851669E+04  0.92158829974E+02 0.  0.
         13    1    3    3    0    0  0.63355037719E+03  0.21359295904E+03 -0.13100936902E+02  0.66871493713E+03  0.00000000000E+00 0. -1.
        -13    1    3    3    0    0  0.12052797145E+04  0.52690037566E+03  0.34514714758E+02  0.13158702297E+04  0.00000000000E+00 0.  1.
         22    1    1    2    0    0 -0.18388300917E+04 -0.74049333470E+03 -0.20296920731E+04  0.28371246706E+04  0.00000000000E+00 0. -1.
<mgrwt>
<rscale>  0 0.43835721E+04</rscale>
<asrwt>0</asrwt>
<pdfrwt beam="1">  1        2 0.52538370E+00 0.43835721E+04</pdfrwt>
<pdfrwt beam="2">  1       -2 0.21641781E+00 0.43835721E+04</pdfrwt>
<totfact> 0.74059930E-02</totfact>
</mgrwt>
</event>
<event>
 6    1  0.2047711E-005  0.9411140E+03  0.7818608E-02  0.9375598E-01
         -2   -1    0    0    0  501 -0.00000000000E+00  0.00000000000E+00  0.10898320316E+03  0.10898320316E+03  0.00000000000E+00 0.  1.
          2   -1    0    0  501    0  0.00000000000E+00 -0.00000000000E+00 -0.20317248113E+04  0.20317248113E+04  0.00000000000E+00 0. -1.
         23    2    1    2    0    0 -0.31347003385E+03 -0.16808493837E+03 -0.28308911740E+03  0.46291890404E+03  0.87398253422E+02 0.  0.
         13    1    3    3    0    0 -0.25396252412E+03 -0.16098673144E+03 -0.20262207350E+03  0.36258708751E+03  0.00000000000E+00 0. -1.
        -13    1    3    3    0    0 -0.59507509731E+02 -0.70982069346E+01 -0.80467043899E+02  0.10033181654E+03  0.00000000000E+00 0.  1.
         22    1    1    2    0    0  0.31347003385E+03  0.16808493837E+03 -0.16396524908E+04  0.16777891104E+04  0.00000000000E+00 0. -1.
<mgrwt>
<rscale>  0 0.94111397E+03</rscale>
<asrwt>0</asrwt>
<pdfrwt beam="1">  1        2 0.31257306E+00 0.94111397E+03</pdfrwt>
<pdfrwt beam="2">  1       -2 0.16766646E-01 0.94111397E+03</pdfrwt>
<totfact> 0.18757906E+02</totfact>
</mgrwt>
</event>
<event>
 6    1  0.2047711E-005  0.5950202E+04  0.7818608E-02  0.7696607E-01
          2   -1    0    0  501    0  0.00000000000E+00  0.00000000000E+00  0.19772944151E+04  0.19772944151E+04  0.00000000000E+00 0. -1.
         -2   -1    0    0    0  501 -0.00000000000E+00 -0.00000000000E+00 -0.44764324407E+04  0.44764324407E+04  0.00000000000E+00 0.  1.
         23    2    1    2    0    0  0.17271638640E+04 -0.20913167254E+04  0.74473503594E+02  0.27147193722E+04  0.86338334173E+02 0.  0.
         13    1    3    3    0    0  0.13243192592E+04 -0.15904942704E+04  0.21026397434E+02  0.20697670483E+04  0.00000000000E+00 0. -1.
        -13    1    3    3    0    0  0.40284460481E+03 -0.50082245496E+03  0.53447106161E+02  0.64495232395E+03  0.00000000000E+00 0.  1.
         22    1    1    2    0    0 -0.17271638640E+04  0.20913167254E+04 -0.25736115292E+04  0.37390074836E+04  0.00000000000E+00 0.  1.
<mgrwt>
<rscale>  0 0.59502016E+04</rscale>
<asrwt>0</asrwt>
<pdfrwt beam="1">  1        2 0.30419914E+00 0.59502016E+04</pdfrwt>
<pdfrwt beam="2">  1       -2 0.68868191E+00 0.59502016E+04</pdfrwt>
<totfact> 0.11799006E-03</totfact>
</mgrwt>
</event>
<event>
 6    1  0.2047711E-005  0.1389040E+04  0.7818608E-02  0.8961790E-01
          2   -1    0    0  501    0  0.00000000000E+00  0.00000000000E+00  0.26468311603E+04  0.26468311603E+04  0.00000000000E+00 0. -1.
         -2   -1    0    0    0  501 -0.00000000000E+00 -0.00000000000E+00 -0.18223982659E+03  0.18223982659E+03  0.00000000000E+00 0.  1.
         23    2    1    2    0    0  0.43390959212E+03  0.53816616629E+03  0.12135049023E+04  0.13996943341E+04  0.93003894078E+02 0.  0.
         13    1    3    3    0    0  0.70998718812E+02  0.14951150950E+03  0.30486726456E+03  0.34689848449E+03  0.00000000000E+00 0. -1.
        -13    1    3    3    0    0  0.36291087330E+03  0.38865465679E+03  0.90863763774E+03  0.10527958496E+04  0.00000000000E+00 0.  1.
         22    1    1    2    0    0 -0.43390959212E+03 -0.53816616629E+03  0.12510864314E+04  0.14293766527E+04  0.00000000000E+00 0.  1.
<mgrwt>
<rscale>  0 0.13890400E+04</rscale>
<asrwt>0</asrwt>
<pdfrwt beam="1">  1        2 0.40720477E+00 0.13890400E+04</pdfrwt>
<pdfrwt beam="2">  1       -2 0.28036898E-01 0.13890400E+04</pdfrwt>
<totfact> 0.32515570E+01</totfact>
</mgrwt>
</event>
<event>
 6    1  0.2047711E-005  0.2247731E+04  0.7818608E-02  0.8498820E-01
         -2   -1    0    0    0  501 -0.00000000000E+00  0.00000000000E+00  0.95324228292E+03  0.95324228292E+03  0.00000000000E+00 0.  1.
          2   -1    0    0  501    0  0.00000000000E+00 -0.00000000000E+00 -0.13250288108E+04  0.13250288108E+04  0.00000000000E+00 0. -1.
         23    2    1    2    0    0 -0.48658518586E+03 -0.30573175288E+03 -0.11629334411E+04  0.13004416166E+04  0.92180051530E+02 0.  0.
         13    1    3    3    0    0 -0.36947188581E+03 -0.20749175352E+03 -0.77138093619E+03  0.88010843133E+03  0.00000000000E+00 0.  1.
        -13    1    3    3    0    0 -0.11711330004E+03 -0.98239999361E+02 -0.39155250494E+03  0.42033318528E+03  0.00000000000E+00 0. -1.
         22    1    1    2    0    0  0.48658518586E+03  0.30573175288E+03  0.79114691330E+03  0.97782947707E+03  0.00000000000E+00 0.  1.
<mgrwt>
<rscale>  0 0.22477308E+04</rscale>
<asrwt>0</asrwt>
<pdfrwt beam="1">  1        2 0.20385059E+00 0.22477308E+04</pdfrwt>
<pdfrwt beam="2">  1       -2 0.14665266E+00 0.22477308E+04</pdfrwt>
<totfact> 0.46298039E+00</totfact>
</mgrwt>
</event>
<event>
 6    1  0.2047711E-005  0.2069957E+04  0.7818608E-02  0.8574594E-01
          2   -1    0    0  501    0  0.00000000000E+00  0.00000000000E+00  0.27156033000E+04  0.27156033000E+04  0.00000000000E+00 0. -1.
         -2   -1    0    0    0  501 -0.00000000000E+00 -0.00000000000E+00 -0.39445386159E+03  0.39445386159E+03  0.00000000000E+00 0.  1.
         23    2    1    2    0    0  0.55636776715E+03  0.16916439178E+03 -0.12054524802E+03  0.60007018442E+03  0.85973168141E+02 0.  0.
         11    1    3    3    0    0  0.19929734627E+03  0.40724310729E+02 -0.79459070092E+02  0.21838416961E+03  0.00000000000E+00 0.  1.
        -11    1    3    3    0    0  0.35707042088E+03  0.12844008106E+03 -0.41086177927E+02  0.38168601481E+03  0.00000000000E+00 0. -1.
         22    1    1    2    0    0 -0.55636776715E+03 -0.16916439178E+03  0.24416946865E+04  0.25099869772E+04  0.00000000000E+00 0. -1.
<mgrwt>
<rscale>  0 0.20699567E+04</rscale>
<asrwt>0</asrwt>
<pdfrwt beam="1">  1        2 0.41778511E+00 0.20699567E+04</pdfrwt>
<pdfrwt beam="2">  1       -2 0.60685211E-01 0.20699567E+04</pdfrwt>
<totfact> 0.60764532E+00</totfact>
</mgrwt>
</event>
<event>
 6    1  0.2047711E-005  0.3179197E+04  0.7818608E-02  0.8194333E-01
          2   -1    0    0  501    0  0.00000000000E+00  0.00000000000E+00  0.12515490459E+04  0.12515490459E+04  0.00000000000E+00 0. -1.
         -2   -1    0    0    0  501 -0.00000000000E+00 -0.00000000000E+00 -0.20189564630E+04  0.20189564630E+04  0.00000000000E+00 0.  1.
         23    2    1    2    0    0  0.44089641137E+03 -0.22597175183E+03 -0.19364020515E+04  0.20008593640E+04  0.91282043536E+02 0.  0.
         13    1    3    3    0    0  0.10959369296E+02 -0.28673837468E+02 -0.12318043492E+03  0.12694769111E+03  0.00000000000E+00 0.  1.
        -13    1    3    3    0    0  0.42993704207E+03 -0.19729791436E+03 -0.18132216165E+04  0.18739116729E+04  0.00000000000E+00 0. -1.
         22    1    1    2    0    0 -0.44089641137E+03  0.22597175183E+03  0.11689946343E+04  0.12696461449E+04  0.00000000000E+00 0. -1.
<mgrwt>
<rscale>  0 0.31791968E+04</rscale>
<asrwt>0</asrwt>
<pdfrwt beam="1">  1        2 0.19254601E+00 0.31791968E+04</pdfrwt>
<pdfrwt beam="2">  1       -2 0.31060868E+00 0.31791968E+04</pdfrwt>
<totfact> 0.40725708E-01</totfact>
</mgrwt>
</event>
<event>
 6    1  0.2047711E-005  0.1176057E+04  0.7818608E-02  0.9134075E-01
         -2   -1    0    0    0  501 -0.00000000000E+00  0.00000000000E+00  0.21533536677E+03  0.21533536677E+03  0.00000000000E+00 0.  1.
          2   -1    0    0  501    0  0.00000000000E+00 -0.00000000000E+00 -0.16057640952E+04  0.16057640952E+04  0.00000000000E+00 0. -1.
         23    2    1    2    0    0  0.21305044439E+03  0.15925197405E+03  0.10687695704E+03  0.30035096244E+03  0.89645599994E+02 0.  0.
         13    1    3    3    0    0  0.18863706391E+03  0.16889985826E+03  0.88158633471E+02  0.26811014277E+03  0.00000000000E+00 0. -1.
        -13    1    3    3    0    0  0.24413380476E+02 -0.96478842022E+01  0.18718323565E+02  0.32240819669E+02  0.00000000000E+00 0.  1.
         22    1    1    2    0    0 -0.21305044439E+03 -0.15925197405E+03 -0.14973056855E+04  0.15207484996E+04  0.00000000000E+00 0. -1.
<mgrwt>
<rscale>  0 0.11760575E+04</rscale>
<asrwt>0</asrwt>
<pdfrwt beam="1">  1        2 0.24704062E+00 0.11760575E+04</pdfrwt>
<pdfrwt beam="2">  1       -2 0.33128519E-01 0.11760575E+04</pdfrwt>
<totfact> 0.93023876E+01</totfact>
</mgrwt>
</event>
<event>
 6    1  0.2047711E-005  0.1882948E+04  0.7818608E-02  0.8663391E-01
          2   -1    0    0  501    0  0.00000000000E+00  0.00000000000E+00  0.21992918336E+04  0.21992918336E+04  0.00000000000E+00 0. -1.
         -2   -1    0    0    0  501 -0.00000000000E+00 -0.00000000000E+00 -0.40302678728E+03  0.40302678728E+03  0.00000000000E+00 0.  1.
         23    2    1    2    0    0 -0.61609847290E+03  0.66875932032E+03  0.57426204110E+03  0.10791286453E+04  0.89024628677E+02 0.  0.
         11    1    3    3    0    0 -0.49561228469E+03  0.48472282336E+03  0.44993421953E+03  0.82645541569E+03  0.00000000000E+00 0. -1.
        -11    1    3    3    0    0 -0.12048618822E+03  0.18403649696E+03  0.12432782156E+03  0.25267322964E+03  0.00000000000E+00 0.  1.
         22    1    1    2    0    0  0.61609847290E+03 -0.66875932032E+03  0.12220030052E+04  0.15231899756E+04  0.00000000000E+00 0.  1.
<mgrwt>
<rscale>  0 0.18829482E+04</rscale>
<asrwt>0</asrwt>
<pdfrwt beam="1">  1        2 0.33835258E+00 0.18829482E+04</pdfrwt>
<pdfrwt beam="2">  1       -2 0.62004122E-01 0.18829482E+04</pdfrwt>
<totfact> 0.11709651E+01</totfact>
</mgrwt>
</event>
<event>
 6    1  0.2047711E-005  0.2416182E+04  0.7818608E-02  0.8433470E-01
         -1   -1    0    0    0  501 -0.00000000000E+00  0.00000000000E+00  0.14343836249E+04  0.14343836249E+04  0.00000000000E+00 0.  1.
          1   -1    0    0  501    0  0.00000000000E+00 -0.00000000000E+00 -0.10174989597E+04  0.10174989597E+04  0.00000000000E+00 0. -1.
         23    2    1    2    0    0  0.10912408433E+04  0.51038293682E+03  0.27579044719E+03  0.12389502294E+04  0.87406978585E+02 0.  0.
         11    1    3    3    0    0  0.23458752942E+03  0.14831916694E+03  0.51844858154E+02  0.28234336110E+03  0.00000000000E+00 0.  1.
        -11    1    3    3    0    0  0.85665331385E+03  0.36206376987E+03  0.22394558903E+03  0.95660686828E+03  0.00000000000E+00 0. -1.
         22    1    1    2    0    0 -0.10912408433E+04 -0.51038293682E+03  0.14109421802E+03  0.12129323553E+04  0.00000000000E+00 0. -1.
<mgrwt>
<rscale>  0 0.24161820E+04</rscale>
<asrwt>0</asrwt>
<pdfrwt beam="1">  1        1 0.15653830E+00 0.24161820E+04</pdfrwt>
<pdfrwt beam="2">  1       -1 0.22067441E+00 0.24161820E+04</pdfrwt>
<totfact> 0.14289943E+00</totfact>
</mgrwt>
</event>
<event>
 6    1  0.2047711E-005  0.2633003E+04  0.7818608E-02  0.8357077E-01
          2   -1    0    0  501    0  0.00000000000E+00  0.00000000000E+00  0.16468786376E+04  0.16468786376E+04  0.00000000000E+00 0. -1.
         -2   -1    0    0    0  501 -0.00000000000E+00 -0.00000000000E+00 -0.10524003389E+04  0.10524003389E+04  0.00000000000E+00 0.  1.
         23    2    1    2    0    0 -0.33774128826E+03  0.16238190353E+03  0.15896516340E+04  0.16358848692E+04  0.93219779138E+02 0.  0.
         13    1    3    3    0    0 -0.28346469083E+03  0.14876168020E+03  0.14597877001E+04  0.14944772991E+04  0.00000000000E+00 0.  1.
        -13    1    3    3    0    0 -0.54276597425E+02  0.13620223331E+02  0.12986393396E+03  0.14140757001E+03  0.00000000000E+00 0. -1.
         22    1    1    2    0    0  0.33774128826E+03 -0.16238190353E+03 -0.99517333522E+03  0.10633941073E+04  0.00000000000E+00 0.  1.
<mgrwt>
<rscale>  0 0.26330026E+04</rscale>
<asrwt>0</asrwt>
<pdfrwt beam="1">  1        2 0.25336594E+00 0.26330026E+04</pdfrwt>
<pdfrwt beam="2">  1       -2 0.16190774E+00 0.26330026E+04</pdfrwt>
<totfact> 0.22589811E+00</totfact>
</mgrwt>
</event>
<event>
 6    1  0.2047711E-005  0.1064698E+04  0.7818608E-02  0.9240299E-01
         -2   -1    0    0    0  501 -0.00000000000E+00  0.00000000000E+00  0.12804290894E+04  0.12804290894E+04  0.00000000000E+00 0.  1.
          2   -1    0    0  501    0  0.00000000000E+00 -0.00000000000E+00 -0.22132863348E+03  0.22132863348E+03  0.00000000000E+00 0. -1.
         23    2    1    2    0    0  0.99707774061E+02 -0.38157147197E+03  0.37236470260E+02  0.40642926365E+03  0.90883239391E+02 0.  0.
         13    1    3    3    0    0  0.12727036089E+02 -0.22654382923E+03  0.17488552699E+02  0.22757401760E+03  0.00000000000E+00 0. -1.
        -13    1    3    3    0    0  0.86980737972E+02 -0.15502764274E+03  0.19747917561E+02  0.17885524605E+03  0.00000000000E+00 0.  1.
         22    1    1    2    0    0 -0.99707774061E+02  0.38157147197E+03  0.10218639856E+04  0.10953284592E+04  0.00000000000E+00 0.  1.
<mgrwt>
<rscale>  0 0.10646983E+04</rscale>
<asrwt>0</asrwt>
<pdfrwt beam="1">  1        2 0.34050560E-01 0.10646983E+04</pdfrwt>
<pdfrwt beam="2">  1       -2 0.19698909E+00 0.10646983E+04</pdfrwt>
<totfact> 0.21377650E+01</totfact>
</mgrwt>
</event>
<event>
 6    1  0.2047711E-005  0.3166348E+04  0.7818608E-02  0.8197762E-01
          2   -1    0    0  501    0  0.00000000000E+00  0.00000000000E+00  0.17659503286E+04  0.17659503286E+04  0.00000000000E+00 0. -1.
         -2   -1    0    0    0  501 -0.00000000000E+00 -0.00000000000E+00 -0.14193146324E+04  0.14193146324E+04  0.00000000000E+00 0.  1.
         23    2    1    2    0    0  0.83009200394E+03 -0.60598652859E+03 -0.10362105377E+04  0.14623209357E+04  0.91530501904E+02 0.  0.
         13    1    3    3    0    0  0.53477481715E+03 -0.36499871033E+03 -0.59590196280E+03  0.87994733528E+03  0.00000000000E+00 0. -1.
        -13    1    3    3    0    0  0.29531718679E+03 -0.24098781826E+03 -0.44030857488E+03  0.58237360043E+03  0.00000000000E+00 0.  1.
         22    1    1    2    0    0 -0.83009200394E+03  0.60598652859E+03  0.13828462338E+04  0.17229440253E+04  0.00000000000E+00 0. -1.
<mgrwt>
<rscale>  0 0.31663475E+04</rscale>
<asrwt>0</asrwt>
<pdfrwt beam="1">  1        2 0.27168467E+00 0.31663475E+04</pdfrwt>
<pdfrwt beam="2">  1       -2 0.21835610E+00 0.31663475E+04</pdfrwt>
<totfact> 0.77053485E-01</totfact>
</mgrwt>
</event>
<event>
 6    1  0.2047711E-005  0.2227588E+04  0.7818608E-02  0.8507032E-01
         -2   -1    0    0    0  501 -0.00000000000E+00  0.00000000000E+00  0.10238616943E+04  0.10238616943E+04  0.00000000000E+00 0.  1.
          2   -1    0    0  501    0  0.00000000000E+00 -0.00000000000E+00 -0.12116260434E+04  0.12116260434E+04  0.00000000000E+00 0. -1.
         23    2    1    2    0    0  0.89457132357E+03  0.75141431469E+02  0.56412894973E+03  0.10644849109E+04  0.94776399680E+02 0.  0.
         11    1    3    3    0    0  0.43560400142E+03  0.82876194124E+02  0.28996991398E+03  0.52981304308E+03  0.00000000000E+00 0.  1.
        -11    1    3    3    0    0  0.45896732214E+03 -0.77347626556E+01  0.27415903575E+03  0.53467186782E+03  0.00000000000E+00 0. -1.
         22    1    1    2    0    0 -0.89457132357E+03 -0.75141431469E+02 -0.75189329881E+03  0.11710028268E+04  0.00000000000E+00 0. -1.
<mgrwt>
<rscale>  0 0.22275884E+04</rscale>
<asrwt>0</asrwt>
<pdfrwt beam="1">  1        2 0.18640401E+00 0.22275884E+04</pdfrwt>
<pdfrwt beam="2">  1       -2 0.15751718E+00 0.22275884E+04</pdfrwt>
<totfact> 0.44682886E+00</totfact>
</mgrwt>
</event>
<event>
 6    1  0.2047711E-005  0.1324275E+04  0.7818608E-02  0.9010533E-01
          1   -1    0    0  501    0  0.00000000000E+00  0.00000000000E+00  0.73973396788E+03  0.73973396788E+03  0.00000000000E+00 0. -1.
         -1   -1    0    0    0  501 -0.00000000000E+00 -0.00000000000E+00 -0.59268057314E+03  0.59268057314E+03  0.00000000000E+00 0.  1.
         23    2    1    2    0    0 -0.54165014476E+03 -0.34962505672E+03 -0.63118812374E+02  0.65433274931E+03  0.92438102229E+02 0.  0.
         11    1    3    3    0    0 -0.16191414249E+03 -0.76187764417E+02  0.16366882070E+02  0.17969039989E+03  0.00000000000E+00 0. -1.
        -11    1    3    3    0    0 -0.37973600227E+03 -0.27343729230E+03 -0.79485694444E+02  0.47464234942E+03  0.00000000000E+00 0.  1.
         22    1    1    2    0    0  0.54165014476E+03  0.34962505672E+03  0.21017220711E+03  0.67808179171E+03  0.00000000000E+00 0. -1.
<mgrwt>
<rscale>  0 0.13242748E+04</rscale>
<asrwt>0</asrwt>
<pdfrwt beam="1">  1        1 0.11380523E+00 0.13242748E+04</pdfrwt>
<pdfrwt beam="2">  1       -1 0.91181627E-01 0.13242748E+04</pdfrwt>
<totfact> 0.28815581E+01</totfact>
</mgrwt>
</event>
<event>
 6    1  0.2047711E-005  0.5719382E+03  0.7818608E-02  0.9965399E-01
         -1   -1    0    0    0  501 -0.00000000000E+00  0.00000000000E+00  0.50068069304E+02  0.50068069304E+02  0.00000000000E+00 0.  1.
          1   -1    0    0  501    0  0.00000000000E+00 -0.00000000000E+00 -0.16333428009E+04  0.16333428009E+04  0.00000000000E+00 0. -1.
         23    2    1    2    0    0  0.10667340327E+03  0.21690780320E+03 -0.12190355290E+04  0.12462628327E+04  0.93248147157E+02 0.  0.
         11    1    3    3    0    0  0.26326088244E+02  0.11565141020E+03 -0.76670631773E+03  0.77582658453E+03  0.00000000000E+00 0.  1.
        -11    1    3    3    0    0  0.80347315031E+02  0.10125639300E+03 -0.45232921130E+03  0.47043624813E+03  0.00000000000E+00 0. -1.
         22    1    1    2    0    0 -0.10667340327E+03 -0.21690780320E+03 -0.36423920259E+03  0.43714803758E+03  0.00000000000E+00 0.  1.
<mgrwt>
<rscale>  0 0.57193818E+03</rscale>
<asrwt>0</asrwt>
<pdfrwt beam="1">  1        1 0.25128349E+00 0.57193818E+03</pdfrwt>
<pdfrwt beam="2">  1       -1 0.77027805E-02 0.57193818E+03</pdfrwt>
<totfact> 0.51957142E+02</totfact>
</mgrwt>
</event>
<event>
 6    1  0.2047711E-005  0.3928492E+04  0.7818608E-02  0.8019129E-01
         -1   -1    0    0    0  501 -0.00000000000E+00  0.00000000000E+00  0.92945186223E+03  0.92945186223E+03  0.00000000000E+00 0.  1.
          1   -1    0    0  501    0  0.00000000000E+00 -0.00000000000E+00 -0.41511159989E+04  0.41511159989E+04  0.00000000000E+00 0. -1.
         23    2    1    2    0    0 -0.84197087960E+03 -0.10646139719E+04  0.22264588719E+03  0.13784617833E+04  0.90927584818E+02 0.  0.
         11    1    3    3    0    0 -0.17289021988E+03 -0.18978549833E+03  0.73544798381E+02  0.26705505215E+03  0.00000000000E+00 0.  1.
        -11    1    3    3    0    0 -0.66908065972E+03 -0.87482847354E+03  0.14910108880E+03  0.11114067311E+04  0.00000000000E+00 0. -1.
         22    1    1    2    0    0  0.84197087960E+03  0.10646139719E+04 -0.34443100238E+04  0.37021060778E+04  0.00000000000E+00 0. -1.
<mgrwt>
<rscale>  0 0.39284921E+04</rscale>
<asrwt>0</asrwt>
<pdfrwt beam="1">  1        1 0.63863322E+00 0.39284921E+04</pdfrwt>
<pdfrwt beam="2">  1       -1 0.14299260E+00 0.39284921E+04</pdfrwt>
<totfact> 0.21819619E-02</totfact>
</mgrwt>
</event>
<event>
 6    1  0.2047711E-005  0.2108427E+04  0.7818608E-02  0.8557540E-01
          1   -1    0    0  501    0  0.00000000000E+00  0.00000000000E+00  0.24091248032E+04  0.24091248032E+04  0.00000000000E+00 0.  1.
         -1   -1    0    0    0  501 -0.00000000000E+00 -0.00000000000E+00 -0.46131547432E+03  0.46131547432E+03  0.00000000000E+00 0. -1.
         23    2    1    2    0    0 -0.41629271770E+03 -0.28949192550E+03 -0.27910299799E+03  0.58653053471E+03  0.94944104159E+02 0.  0.
         11    1    3    3    0    0 -0.25069368026E+03 -0.22690128938E+03 -0.16850579284E+03  0.37779057514E+03  0.00000000000E+00 0. -1.
        -11    1    3    3    0    0 -0.16559903745E+03 -0.62590636118E+02 -0.11059720516E+03  0.20873995957E+03  0.00000000000E+00 0.  1.
         22    1    1    2    0    0  0.41629271770E+03  0.28949192550E+03  0.22269123268E+04  0.22839097428E+04  0.00000000000E+00 0.  1.
<mgrwt>
<rscale>  0 0.21084274E+04</rscale>
<asrwt>0</asrwt>
<pdfrwt beam="1">  1        1 0.37063458E+00 0.21084274E+04</pdfrwt>
<pdfrwt beam="2">  1       -1 0.70971613E-01 0.21084274E+04</pdfrwt>
<totfact> 0.28861808E+00</totfact>
</mgrwt>
</event>
<event>
 6    1  0.2047711E-005  0.2974108E+04  0.7818608E-02  0.8251163E-01
         -2   -1    0    0    0  501 -0.00000000000E+00  0.00000000000E+00  0.78019526445E+03  0.78019526445E+03  0.00000000000E+00 0.  1.
          2   -1    0    0  501    0  0.00000000000E+00 -0.00000000000E+00 -0.28343275310E+04  0.28343275310E+04  0.00000000000E+00 0. -1.
         23    2    1    2    0    0 -0.18130250192E+03 -0.76796448766E+03 -0.25578989001E+04  0.26783492686E+04  0.89821879956E+02 0.  0.
         11    1    3    3    0    0 -0.74066559973E+02 -0.41140890905E+03 -0.14830813846E+04  0.15408677876E+04  0.00000000000E+00 0.  1.
        -11    1    3    3    0    0 -0.10723594195E+03 -0.35655557861E+03 -0.10748175155E+04  0.11374814809E+04  0.00000000000E+00 0. -1.
         22    1    1    2    0    0  0.18130250192E+03  0.76796448766E+03  0.50376663345E+03  0.93617352691E+03  0.00000000000E+00 0.  1.
<mgrwt>
<rscale>  0 0.29741075E+04</rscale>
<asrwt>0</asrwt>
<pdfrwt beam="1">  1        2 0.43605039E+00 0.29741075E+04</pdfrwt>
<pdfrwt beam="2">  1       -2 0.12003004E+00 0.29741075E+04</pdfrwt>
<totfact> 0.10028754E+00</totfact>
</mgrwt>
</event>
<event>
 6    1  0.2047711E-005  0.2214257E+04  0.7818608E-02  0.8512517E-01
         -2   -1    0    0    0  501 -0.00000000000E+00  0.00000000000E+00  0.11578374447E+04  0.11578374447E+04  0.00000000000E+00 0.  1.
          2   -1    0    0  501    0  0.00000000000E+00 -0.00000000000E+00 -0.10586402698E+04  0.10586402698E+04  0.00000000000E+00 0. -1.
         23    2    1    2    0    0 -0.67390149941E+03  0.19779997899E+03  0.90391181787E+03  0.11483795359E+04  0.91928893391E+02 0.  0.
         13    1    3    3    0    0 -0.27614441681E+03  0.45843848041E+02  0.40734280310E+03  0.49425252309E+03  0.00000000000E+00 0. -1.
        -13    1    3    3    0    0 -0.39775708259E+03  0.15195613095E+03  0.49656901477E+03  0.65412701283E+03  0.00000000000E+00 0.  1.
         22    1    1    2    0    0  0.67390149941E+03 -0.19779997899E+03 -0.80471464290E+03  0.10680981786E+04  0.00000000000E+00 0. -1.
<mgrwt>
<rscale>  0 0.22142568E+04</rscale>
<asrwt>0</asrwt>
<pdfrwt beam="1">  1        2 0.16286773E+00 0.22142568E+04</pdfrwt>
<pdfrwt beam="2">  1       -2 0.17812884E+00 0.22142568E+04</pdfrwt>
<totfact> 0.39425881E+00</totfact>
</mgrwt>
</event>
<event>
 6    1  0.2047711E-005  0.2455069E+04  0.7818608E-02  0.8419169E-01
          2   -1    0    0  501    0  0.00000000000E+00  0.00000000000E+00  0.33194526796E+04  0.33194526796E+04  0.00000000000E+00 0. -1.
         -2   -1    0    0    0  501 -0.00000000000E+00 -0.00000000000E+00 -0.45394273490E+03  0.45394273490E+03  0.00000000000E+00 0.  1.
         23    2    1    2    0    0  0.44307430095E+03  0.10627007738E+04  0.78784529142E+03  0.13980347719E+04  0.90295345807E+02 0.  0.
         13    1    3    3    0    0  0.87533230092E+02  0.27054908141E+03  0.23288785511E+03  0.36755356736E+03  0.00000000000E+00 0.  1.
        -13    1    3    3    0    0  0.35554107086E+03  0.79215169240E+03  0.55495743631E+03  0.10304812046E+04  0.00000000000E+00 0. -1.
         22    1    1    2    0    0 -0.44307430095E+03 -0.10627007738E+04  0.20776646533E+04  0.23753606426E+04  0.00000000000E+00 0.  1.
<mgrwt>
<rscale>  0 0.24550694E+04</rscale>
<asrwt>0</asrwt>
<pdfrwt beam="1">  1        2 0.51068501E+00 0.24550694E+04</pdfrwt>
<pdfrwt beam="2">  1       -2 0.69837346E-01 0.24550694E+04</pdfrwt>
<totfact> 0.18097894E+00</totfact>
</mgrwt>
</event>
<event>
 6    1  0.2047711E-005  0.2260106E+04  0.7818608E-02  0.8493819E-01
         -2   -1    0    0    0  501 -0.00000000000E+00  0.00000000000E+00  0.86347844802E+03  0.86347844802E+03  0.00000000000E+00 0.  1.
          2   -1    0    0  501    0  0.00000000000E+00 -0.00000000000E+00 -0.14789254295E+04  0.14789254295E+04  0.00000000000E+00 0. -1.
         23    2    1    2    0    0 -0.38906474637E+03  0.82214735083E+03 -0.99955279156E+03  0.13550665913E+04  0.99005254623E+02 0.  0.
         13    1    3    3    0    0 -0.11414796039E+03  0.29917334982E+03 -0.41220405494E+03  0.52196420664E+03  0.00000000000E+00 0.  1.
        -13    1    3    3    0    0 -0.27491678598E+03  0.52297400102E+03 -0.58734873662E+03  0.83310238468E+03  0.00000000000E+00 0. -1.
         22    1    1    2    0    0  0.38906474637E+03 -0.82214735083E+03  0.38410581010E+03  0.98733728619E+03  0.00000000000E+00 0.  1.
<mgrwt>
<rscale>  0 0.22601064E+04</rscale>
<asrwt>0</asrwt>
<pdfrwt beam="1">  1        2 0.22752699E+00 0.22601064E+04</pdfrwt>
<pdfrwt beam="2">  1       -2 0.13284284E+00 0.22601064E+04</pdfrwt>
<totfact> 0.48792285E+00</totfact>
</mgrwt>
</event>
<event>
 6    1  0.2047711E-005  0.2161899E+04  0.7818608E-02  0.8534456E-01
          2   -1    0    0  501    0  0.00000000000E+00  0.00000000000E+00  0.25702975014E+04  0.25702975014E+04  0.00000000000E+00 0. -1.
         -2   -1    0    0    0  501 -0.00000000000E+00 -0.00000000000E+00 -0.45459805546E+03  0.45459805546E+03  0.00000000000E+00 0.  1.
         23    2    1    2    0    0  0.98430813800E+03  0.14186973683E+02  0.44150581997E+03  0.10827348843E+04  0.91234093838E+02 0.  0.
         13    1    3    3    0    0  0.70672810310E+03 -0.30920428678E+02  0.31457914507E+03  0.77419682454E+03  0.00000000000E+00 0.  1.
        -13    1    3    3    0    0  0.27758003490E+03  0.45107402361E+02  0.12692667490E+03  0.30853805977E+03  0.00000000000E+00 0. -1.
         22    1    1    2    0    0 -0.98430813800E+03 -0.14186973683E+02  0.16741936260E+04  0.19421606726E+04  0.00000000000E+00 0. -1.
<mgrwt>
<rscale>  0 0.21618994E+04</rscale>
<asrwt>0</asrwt>
<pdfrwt beam="1">  1        2 0.39543038E+00 0.21618994E+04</pdfrwt>
<pdfrwt beam="2">  1       -2 0.69938164E-01 0.21618994E+04</pdfrwt>
<totfact> 0.54113163E+00</totfact>
</mgrwt>
</event>
<event>
 6    1  0.2047711E-005  0.2854511E+04  0.7818608E-02  0.8286542E-01
          1   -1    0    0  501    0  0.00000000000E+00  0.00000000000E+00  0.30891046094E+04  0.30891046094E+04  0.00000000000E+00 0. -1.
         -1   -1    0    0    0  501 -0.00000000000E+00 -0.00000000000E+00 -0.65943304954E+03  0.65943304954E+03  0.00000000000E+00 0.  1.
         23    2    1    2    0    0 -0.40071012196E+02 -0.70188599931E+03 -0.41287470835E+03  0.82034385918E+03  0.90823347498E+02 0.  0.
         13    1    3    3    0    0  0.29174761380E+02 -0.24598089535E+03 -0.14802721911E+03  0.28856511428E+03  0.00000000000E+00 0. -1.
        -13    1    3    3    0    0 -0.69245773576E+02 -0.45590510396E+03 -0.26484748924E+03  0.53177874490E+03  0.00000000000E+00 0.  1.
         22    1    1    2    0    0  0.40071012196E+02  0.70188599931E+03  0.28425462682E+04  0.29281937997E+04  0.00000000000E+00 0. -1.
<mgrwt>
<rscale>  0 0.28545106E+04</rscale>
<asrwt>0</asrwt>
<pdfrwt beam="1">  1        1 0.47524685E+00 0.28545106E+04</pdfrwt>
<pdfrwt beam="2">  1       -1 0.10145124E+00 0.28545106E+04</pdfrwt>
<totfact> 0.40821253E-01</totfact>
</mgrwt>
</event>
<event>
 6    1  0.2047711E-005  0.8761562E+03  0.7818608E-02  0.9455888E-01
          2   -1    0    0  501    0  0.00000000000E+00  0.00000000000E+00  0.11552906266E+04  0.11552906266E+04  0.00000000000E+00 0. -1.
         -2   -1    0    0    0  501 -0.00000000000E+00 -0.00000000000E+00 -0.16611613782E+03  0.16611613782E+03  0.00000000000E+00 0.  1.
         23    2    1    2    0    0  0.40293115729E+02  0.41155466371E+03  0.30407290163E+03  0.52117869623E+03  0.90366628270E+02 0.  0.
         13    1    3    3    0    0  0.57695334104E+01  0.13742903624E+03  0.15501850190E+03  0.20724565966E+03  0.00000000000E+00 0. -1.
        -13    1    3    3    0    0  0.34523582319E+02  0.27412562747E+03  0.14905439973E+03  0.31393303657E+03  0.00000000000E+00 0.  1.
         22    1    1    2    0    0 -0.40293115729E+02 -0.41155466371E+03  0.68510158716E+03  0.80022806820E+03  0.00000000000E+00 0. -1.
<mgrwt>
<rscale>  0 0.87615619E+03</rscale>
<asrwt>0</asrwt>
<pdfrwt beam="1">  1        2 0.17773701E+00 0.87615619E+03</pdfrwt>
<pdfrwt beam="2">  1       -2 0.25556330E-01 0.87615619E+03</pdfrwt>
<totfact> 0.27828417E+02</totfact>
</mgrwt>
</event>
<event>
 6    1  0.2047711E-005  0.2468043E+04  0.7818608E-02  0.8414460E-01
         -2   -1    0    0    0  501 -0.00000000000E+00  0.00000000000E+00  0.25355773512E+04  0.25355773512E+04  0.00000000000E+00 0.  1.
          2   -1    0    0  501    0  0.00000000000E+00 -0.00000000000E+00 -0.60057698809E+03  0.60057698809E+03  0.00000000000E+00 0. -1.
         23    2    1    2    0    0 -0.93730669845E+03 -0.68874698333E+03  0.14858705693E+04  0.18893047791E+04  0.93514414018E+02 0.  0.
         11    1    3    3    0    0 -0.14307195964E+03 -0.14336023493E+03  0.28703673868E+03  0.35130020203E+03  0.00000000000E+00 0. -1.
        -11    1    3    3    0    0 -0.79423473881E+03 -0.54538674840E+03  0.11988338307E+04  0.15380045771E+04  0.00000000000E+00 0.  1.
         22    1    1    2    0    0  0.93730669845E+03  0.68874698333E+03  0.44912979378E+03  0.12468495602E+04  0.00000000000E+00 0. -1.
<mgrwt>
<rscale>  0 0.24680433E+04</rscale>
<asrwt>0</asrwt>
<pdfrwt beam="1">  1        2 0.92396461E-01 0.24680433E+04</pdfrwt>
<pdfrwt beam="2">  1       -2 0.39008882E+00 0.24680433E+04</pdfrwt>
<totfact> 0.38176997E-01</totfact>
</mgrwt>
</event>
<event>
 6    1  0.2047711E-005  0.3975882E+04  0.7818608E-02  0.8009430E-01
          2   -1    0    0  501    0  0.00000000000E+00  0.00000000000E+00  0.17155526392E+04  0.17155526392E+04  0.00000000000E+00 0. -1.
         -2   -1    0    0    0  501 -0.00000000000E+00 -0.00000000000E+00 -0.23035776135E+04  0.23035776135E+04  0.00000000000E+00 0.  1.
         23    2    1    2    0    0  0.13776849458E+03  0.68899498562E+03 -0.21729140468E+04  0.22854729565E+04  0.90204943768E+02 0.  0.
         11    1    3    3    0    0  0.28549947945E+02  0.35338655574E+02 -0.15502498855E+03  0.16154462907E+03  0.00000000000E+00 0. -1.
        -11    1    3    3    0    0  0.10921854663E+03  0.65365633005E+03 -0.20178890582E+04  0.21239283274E+04  0.00000000000E+00 0.  1.
         22    1    1    2    0    0 -0.13776849458E+03 -0.68899498562E+03  0.15848890725E+04  0.17336572962E+04  0.00000000000E+00 0. -1.
<mgrwt>
<rscale>  0 0.39758816E+04</rscale>
<asrwt>0</asrwt>
<pdfrwt beam="1">  1        2 0.26393117E+00 0.39758816E+04</pdfrwt>
<pdfrwt beam="2">  1       -2 0.35439656E+00 0.39758816E+04</pdfrwt>
<totfact> 0.11086346E-01</totfact>
</mgrwt>
</event>
<event>
 6    1  0.2047711E-005  0.2233008E+04  0.7818608E-02  0.8504814E-01
          2   -1    0    0  501    0  0.00000000000E+00  0.00000000000E+00  0.30984080835E+04  0.30984080835E+04  0.00000000000E+00 0. -1.
         -2   -1    0    0    0  501 -0.00000000000E+00 -0.00000000000E+00 -0.40232953081E+03  0.40232953081E+03  0.00000000000E+00 0.  1.
         23    2    1    2    0    0 -0.75809471040E+03  0.37158390706E+03  0.24913230105E+04  0.26319988608E+04  0.89137367308E+02 0.  0.
         13    1    3    3    0    0 -0.26258269848E+03  0.10844170603E+03  0.72332807456E+03  0.77711825393E+03  0.00000000000E+00 0. -1.
        -13    1    3    3    0    0 -0.49551201193E+03  0.26314220103E+03  0.17679949360E+04  0.18548806068E+04  0.00000000000E+00 0.  1.
         22    1    1    2    0    0  0.75809471040E+03 -0.37158390706E+03  0.20475554219E+03  0.86873875359E+03  0.00000000000E+00 0. -1.
<mgrwt>
<rscale>  0 0.22330079E+04</rscale>
<asrwt>0</asrwt>
<pdfrwt beam="1">  1        2 0.47667815E+00 0.22330079E+04</pdfrwt>
<pdfrwt beam="2">  1       -2 0.61896853E-01 0.22330079E+04</pdfrwt>
<totfact> 0.33380477E+00</totfact>
</mgrwt>
</event>
<event>
 6    1  0.2047711E-005  0.3336303E+04  0.7818608E-02  0.8153719E-01
         -2   -1    0    0    0  501 -0.00000000000E+00  0.00000000000E+00  0.99825496988E+03  0.99825496988E+03  0.00000000000E+00 0.  1.
          2   -1    0    0  501    0  0.00000000000E+00 -0.00000000000E+00 -0.27875938308E+04  0.27875938308E+04  0.00000000000E+00 0. -1.
         23    2    1    2    0    0 -0.14038472022E+04 -0.44859190001E+03 -0.17790555967E+04  0.23120349029E+04  0.91896224861E+02 0.  0.
         13    1    3    3    0    0 -0.58851591928E+03 -0.22287647130E+03 -0.80776448412E+03  0.10239669773E+04  0.00000000000E+00 0. -1.
        -13    1    3    3    0    0 -0.81533128291E+03 -0.22571542871E+03 -0.97129111257E+03  0.12880679256E+04  0.00000000000E+00 0.  1.
         22    1    1    2    0    0  0.14038472022E+04  0.44859190001E+03 -0.10283264252E+02  0.14738138978E+04  0.00000000000E+00 0.  1.
<mgrwt>
<rscale>  0 0.33363030E+04</rscale>
<asrwt>0</asrwt>
<pdfrwt beam="1">  1        2 0.42886058E+00 0.33363030E+04</pdfrwt>
<pdfrwt beam="2">  1       -2 0.15357769E+00 0.33363030E+04</pdfrwt>
<totfact> 0.55104617E-01</totfact>
</mgrwt>
</event>
<event>
 6    1  0.2298609E-005  0.2370381E+04  0.7818608E-02  0.8450677E-01
          2   -1    0    0  501    0  0.00000000000E+00  0.00000000000E+00  0.20164314145E+04  0.20164314145E+04  0.00000000000E+00 0. -1.
         -2   -1    0    0    0  501 -0.00000000000E+00 -0.00000000000E+00 -0.69661493321E+03  0.69661493321E+03  0.00000000000E+00 0.  1.
         23    2    1    2    0    0  0.68724127228E+03  0.60386560343E+03  0.15201808599E+04  0.17765101137E+04  0.89911645141E+02 0.  0.
         13    1    3    3    0    0  0.33351149793E+03  0.23365938650E+03  0.66954274168E+03  0.78365433138E+03  0.00000000000E+00 0.  1.
        -13    1    3    3    0    0  0.35372977435E+03  0.37020621693E+03  0.85063811825E+03  0.99285578234E+03  0.00000000000E+00 0. -1.
         22    1    1    2    0    0 -0.68724127228E+03 -0.60386560343E+03 -0.20036437865E+03  0.93653623398E+03  0.00000000000E+00 0.  1.
<mgrwt>
<rscale>  0 0.23703808E+04</rscale>
<asrwt>0</asrwt>
<pdfrwt beam="1">  1        2 0.31022022E+00 0.23703808E+04</pdfrwt>
<pdfrwt beam="2">  1       -2 0.10717153E+00 0.23703808E+04</pdfrwt>
<totfact> 0.41261310E+00</totfact>
</mgrwt>
</event>
<event>
 6    1  0.2047711E-005  0.5201694E+04  0.7818608E-02  0.7798126E-01
         -2   -1    0    0    0  501 -0.00000000000E+00  0.00000000000E+00  0.19192776817E+04  0.19192776817E+04  0.00000000000E+00 0. -1.
          2   -1    0    0  501    0  0.00000000000E+00 -0.00000000000E+00 -0.35244532284E+04  0.35244532284E+04  0.00000000000E+00 0.  1.
         23    2    1    2    0    0  0.16024056165E+04  0.11187673836E+03  0.13368106909E+04  0.20917906977E+04  0.91133612872E+02 0.  0.
         11    1    3    3    0    0  0.46007337680E+03  0.32715902693E+02  0.33114451501E+03  0.56779796772E+03  0.00000000000E+00 0. -1.
        -11    1    3    3    0    0  0.11423322397E+04  0.79160835670E+02  0.10056661759E+04  0.15239927300E+04  0.00000000000E+00 0.  1.
         22    1    1    2    0    0 -0.16024056165E+04 -0.11187673836E+03 -0.29419862377E+04  0.33519402124E+04  0.00000000000E+00 0.  1.
<mgrwt>
<rscale>  0 0.52016937E+04</rscale>
<asrwt>0</asrwt>
<pdfrwt beam="1">  1        2 0.54222357E+00 0.52016937E+04</pdfrwt>
<pdfrwt beam="2">  1       -2 0.29527349E+00 0.52016937E+04</pdfrwt>
<totfact> 0.18980311E-02</totfact>
</mgrwt>
</event>
<event>
 6    1  0.2047711E-005  0.1243286E+04  0.7818608E-02  0.9075790E-01
          1   -1    0    0  501    0  0.00000000000E+00  0.00000000000E+00  0.22375623989E+03  0.22375623989E+03  0.00000000000E+00 0. -1.
         -1   -1    0    0    0  501 -0.00000000000E+00 -0.00000000000E+00 -0.17270591678E+04  0.17270591678E+04  0.00000000000E+00 0.  1.
         23    2    1    2    0    0  0.58909805671E+03  0.18152330646E+03 -0.83016977104E+03  0.10380747665E+04  0.91815798668E+02 0.  0.
         13    1    3    3    0    0  0.31175082786E+03  0.10867543253E+03 -0.37010336886E+03  0.49595910310E+03  0.00000000000E+00 0. -1.
        -13    1    3    3    0    0  0.27734722884E+03  0.72847873935E+02 -0.46006640217E+03  0.54211566339E+03  0.00000000000E+00 0.  1.
         22    1    1    2    0    0 -0.58909805671E+03 -0.18152330646E+03 -0.67313315687E+03  0.91274064119E+03  0.00000000000E+00 0.  1.
<mgrwt>
<rscale>  0 0.12432864E+04</rscale>
<asrwt>0</asrwt>
<pdfrwt beam="1">  1        1 0.34424036E-01 0.12432864E+04</pdfrwt>
<pdfrwt beam="2">  1       -1 0.26570142E+00 0.12432864E+04</pdfrwt>
<totfact> 0.70068311E+00</totfact>
</mgrwt>
</event>
<event>
 6    1  0.2047711E-005  0.2301077E+04  0.7818608E-02  0.8477497E-01
          2   -1    0    0  501    0  0.00000000000E+00  0.00000000000E+00  0.41865227254E+04  0.41865227254E+04  0.00000000000E+00 0. -1.
         -2   -1    0    0    0  501 -0.00000000000E+00 -0.00000000000E+00 -0.31619046601E+03  0.31619046601E+03  0.00000000000E+00 0.  1.
         23    2    1    2    0    0  0.37569347998E+03 -0.78825034531E+03  0.33985806831E+04  0.35102245278E+04  0.94028600799E+02 0.  0.
         11    1    3    3    0    0  0.31642168397E+03 -0.69489817734E+03  0.28431511079E+04  0.29438944242E+04  0.00000000000E+00 0. -1.
        -11    1    3    3    0    0  0.59271796008E+02 -0.93352167970E+02  0.55542957528E+03  0.56633010353E+03  0.00000000000E+00 0.  1.
         22    1    1    2    0    0 -0.37569347998E+03  0.78825034531E+03  0.47175157626E+03  0.99248866366E+03  0.00000000000E+00 0.  1.
<mgrwt>
<rscale>  0 0.23010768E+04</rscale>
<asrwt>0</asrwt>
<pdfrwt beam="1">  1        2 0.64408038E+00 0.23010768E+04</pdfrwt>
<pdfrwt beam="2">  1       -2 0.48644690E-01 0.23010768E+04</pdfrwt>
<totfact> 0.87284795E-01</totfact>
</mgrwt>
</event>
<event>
 6    1  0.2047711E-005  0.2128821E+04  0.7818608E-02  0.8548653E-01
         -2   -1    0    0    0  501 -0.00000000000E+00  0.00000000000E+00  0.62765036467E+03  0.62765036467E+03  0.00000000000E+00 0.  1.
          2   -1    0    0  501    0  0.00000000000E+00 -0.00000000000E+00 -0.18050968215E+04  0.18050968215E+04  0.00000000000E+00 0. -1.
         23    2    1    2    0    0 -0.90904130866E+03 -0.20844958815E+02 -0.12178968834E+04  0.15225676159E+04  0.90270223824E+02 0.  0.
         11    1    3    3    0    0 -0.45501908314E+03 -0.41454878439E+02 -0.55591074827E+03  0.71958156800E+03  0.00000000000E+00 0.  1.
        -11    1    3    3    0    0 -0.45402222552E+03  0.20609919625E+02 -0.66198613511E+03  0.80298604791E+03  0.00000000000E+00 0. -1.
         22    1    1    2    0    0  0.90904130866E+03  0.20844958815E+02  0.40450426522E+02  0.91017957028E+03  0.00000000000E+00 0.  1.
<mgrwt>
<rscale>  0 0.21288210E+04</rscale>
<asrwt>0</asrwt>
<pdfrwt beam="1">  1        2 0.27770720E+00 0.21288210E+04</pdfrwt>
<pdfrwt beam="2">  1       -2 0.96561595E-01 0.21288210E+04</pdfrwt>
<totfact> 0.70703011E+00</totfact>
</mgrwt>
</event>
<event>
 6    1  0.2047711E-005  0.2142029E+04  0.7818608E-02  0.8542952E-01
         -1   -1    0    0    0  501 -0.00000000000E+00  0.00000000000E+00  0.31998538268E+03  0.31998538268E+03  0.00000000000E+00 0.  1.
          1   -1    0    0  501    0  0.00000000000E+00 -0.00000000000E+00 -0.35847634497E+04  0.35847634497E+04  0.00000000000E+00 0. -1.
         23    2    1    2    0    0  0.62111233920E+03  0.25194289268E+03 -0.11714977050E+03  0.68654752542E+03  0.91475006780E+02 0.  0.
         13    1    3    3    0    0  0.20138712786E+03  0.57563474879E+02 -0.24397898657E+00  0.20945259233E+03  0.00000000000E+00 0.  1.
        -13    1    3    3    0    0  0.41972521134E+03  0.19437941780E+03 -0.11690579152E+03  0.47709493310E+03  0.00000000000E+00 0. -1.
         22    1    1    2    0    0 -0.62111233920E+03 -0.25194289268E+03 -0.31476282965E+04  0.32182013070E+04  0.00000000000E+00 0. -1.
<mgrwt>
<rscale>  0 0.21420289E+04</rscale>
<asrwt>0</asrwt>
<pdfrwt beam="1">  1        1 0.55150208E+00 0.21420289E+04</pdfrwt>
<pdfrwt beam="2">  1       -1 0.49228520E-01 0.21420289E+04</pdfrwt>
<totfact> 0.81356239E-01</totfact>
</mgrwt>
</event>
<event>
 6    1  0.2047711E-005  0.1531846E+04  0.7818608E-02  0.8863548E-01
          2   -1    0    0  501    0  0.00000000000E+00  0.00000000000E+00  0.15989259257E+04  0.15989259257E+04  0.00000000000E+00 0. -1.
         -2   -1    0    0    0  501 -0.00000000000E+00 -0.00000000000E+00 -0.36689504576E+03  0.36689504576E+03  0.00000000000E+00 0.  1.
         23    2    1    2    0    0 -0.22435806881E+03 -0.70108778604E+03  0.35918102224E+03  0.82401209917E+03  0.90134932550E+02 0.  0.
         11    1    3    3    0    0 -0.14157033584E+03 -0.51741185155E+03  0.29701410490E+03  0.61316764642E+03  0.00000000000E+00 0. -1.
        -11    1    3    3    0    0 -0.82787732970E+02 -0.18367593449E+03  0.62166917342E+02  0.21084445275E+03  0.00000000000E+00 0.  1.
         22    1    1    2    0    0  0.22435806881E+03  0.70108778604E+03  0.87284985773E+03  0.11418088723E+04  0.00000000000E+00 0.  1.
<mgrwt>
<rscale>  0 0.15318459E+04</rscale>
<asrwt>0</asrwt>
<pdfrwt beam="1">  1        2 0.24598860E+00 0.15318459E+04</pdfrwt>
<pdfrwt beam="2">  1       -2 0.56445393E-01 0.15318459E+04</pdfrwt>
<totfact> 0.31696771E+01</totfact>
</mgrwt>
</event>
<event>
 6    1  0.2047711E-005  0.2596691E+04  0.7818608E-02  0.8369326E-01
         -2   -1    0    0    0  501 -0.00000000000E+00  0.00000000000E+00  0.71337835401E+03  0.71337835401E+03  0.00000000000E+00 0. -1.
          2   -1    0    0  501    0  0.00000000000E+00 -0.00000000000E+00 -0.23629824210E+04  0.23629824210E+04  0.00000000000E+00 0.  1.
         23    2    1    2    0    0 -0.11577478769E+03  0.95999147015E+03 -0.18494776787E+04  0.20889718522E+04  0.90820104123E+02 0.  0.
         11    1    3    3    0    0 -0.57233033296E+02  0.46730501901E+03 -0.99832392035E+03  0.11037663932E+04  0.00000000000E+00 0.  1.
        -11    1    3    3    0    0 -0.58541754392E+02  0.49268645113E+03 -0.85115375832E+03  0.98520545900E+03  0.00000000000E+00 0. -1.
         22    1    1    2    0    0  0.11577478769E+03 -0.95999147015E+03  0.19987361166E+03  0.98738892279E+03  0.00000000000E+00 0. -1.
<mgrwt>
<rscale>  0 0.25966906E+04</rscale>
<asrwt>0</asrwt>
<pdfrwt beam="1">  1        2 0.36353575E+00 0.25966906E+04</pdfrwt>
<pdfrwt beam="2">  1       -2 0.10975052E+00 0.25966906E+04</pdfrwt>
<totfact> 0.24395692E+00</totfact>
</mgrwt>
</event>
<event>
 6    1  0.2047711E-005  0.4120143E+04  0.7818608E-02  0.7980739E-01
         -1   -1    0    0    0  501 -0.00000000000E+00  0.00000000000E+00  0.15823821727E+04  0.15823821727E+04  0.00000000000E+00 0.  1.
          1   -1    0    0  501    0  0.00000000000E+00 -0.00000000000E+00 -0.26819650086E+04  0.26819650086E+04  0.00000000000E+00 0. -1.
         23    2    1    2    0    0 -0.14904383897E+04  0.12929211011E+04  0.59284236216E+02  0.19761110794E+04  0.91917412060E+02 0.  0.
         11    1    3    3    0    0 -0.44564821528E+03  0.38921890111E+03 -0.24294023232E+02  0.59218568399E+03  0.00000000000E+00 0. -1.
        -11    1    3    3    0    0 -0.10447901744E+04  0.90370219996E+03  0.83578259448E+02  0.13839253954E+04  0.00000000000E+00 0.  1.
         22    1    1    2    0    0  0.14904383897E+04 -0.12929211011E+04 -0.11588670721E+04  0.22882361018E+04  0.00000000000E+00 0. -1.
<mgrwt>
<rscale>  0 0.41201425E+04</rscale>
<asrwt>0</asrwt>
<pdfrwt beam="1">  1        1 0.41261000E+00 0.41201425E+04</pdfrwt>
<pdfrwt beam="2">  1       -1 0.24344341E+00 0.41201425E+04</pdfrwt>
<totfact> 0.60272051E-02</totfact>
</mgrwt>
</event>
<event>
 6    1  0.2047711E-005  0.3233457E+04  0.7818608E-02  0.8180037E-01
          2   -1    0    0  501    0  0.00000000000E+00  0.00000000000E+00  0.28847632983E+04  0.28847632983E+04  0.00000000000E+00 0. -1.
         -2   -1    0    0    0  501 -0.00000000000E+00 -0.00000000000E+00 -0.90607468170E+03  0.90607468170E+03  0.00000000000E+00 0.  1.
         23    2    1    2    0    0  0.11666784591E+03 -0.14414794078E+04  0.18340933264E+04  0.23374343652E+04  0.90701775616E+02 0.  0.
         13    1    3    3    0    0  0.83963165766E+02 -0.55285963384E+03  0.67514772187E+03  0.87665730720E+03  0.00000000000E+00 0. -1.
        -13    1    3    3    0    0  0.32704680146E+02 -0.88861977401E+03  0.11589456046E+04  0.14607770580E+04  0.00000000000E+00 0.  1.
         22    1    1    2    0    0 -0.11666784591E+03  0.14414794078E+04  0.14459529016E+03  0.14534036148E+04  0.00000000000E+00 0.  1.
<mgrwt>
<rscale>  0 0.32334570E+04</rscale>
<asrwt>0</asrwt>
<pdfrwt beam="1">  1        2 0.44380973E+00 0.32334570E+04</pdfrwt>
<pdfrwt beam="2">  1       -2 0.13939611E+00 0.32334570E+04</pdfrwt>
<totfact> 0.62579081E-01</totfact>
</mgrwt>
</event>
<event>
 6    1  0.2047711E-005  0.2005818E+04  0.7818608E-02  0.8603906E-01
         -2   -1    0    0    0  501 -0.00000000000E+00  0.00000000000E+00  0.39737915973E+03  0.39737915973E+03  0.00000000000E+00 0.  1.
          2   -1    0    0  501    0  0.00000000000E+00 -0.00000000000E+00 -0.25311496702E+04  0.25311496702E+04  0.00000000000E+00 0. -1.
         23    2    1    2    0    0  0.38420756719E+03  0.22225560956E+03  0.24066370686E+03  0.51296453498E+03  0.90557074201E+02 0.  0.
         13    1    3    3    0    0  0.10008939100E+03  0.48698633664E+02  0.10638540824E+03  0.15397174481E+03  0.00000000000E+00 0.  1.
        -13    1    3    3    0    0  0.28411817618E+03  0.17355697590E+03  0.13427829862E+03  0.35899279017E+03  0.00000000000E+00 0. -1.
         22    1    1    2    0    0 -0.38420756719E+03 -0.22225560956E+03 -0.23744342173E+04  0.24155642950E+04  0.00000000000E+00 0. -1.
<mgrwt>
<rscale>  0 0.20058177E+04</rscale>
<asrwt>0</asrwt>
<pdfrwt beam="1">  1        2 0.38940764E+00 0.20058177E+04</pdfrwt>
<pdfrwt beam="2">  1       -2 0.61135256E-01 0.20058177E+04</pdfrwt>
<totfact> 0.77222112E+00</totfact>
</mgrwt>
</event>
<event>
 6    1  0.2047711E-005  0.3140994E+04  0.7818608E-02  0.8204577E-01
          1   -1    0    0  501    0  0.00000000000E+00  0.00000000000E+00  0.17389535636E+04  0.17389535636E+04  0.00000000000E+00 0. -1.
         -1   -1    0    0    0  501 -0.00000000000E+00 -0.00000000000E+00 -0.14183595332E+04  0.14183595332E+04  0.00000000000E+00 0.  1.
         23    2    1    2    0    0  0.84214756518E+03  0.18017811018E+02 -0.11703356247E+04  0.14448854633E+04  0.92040015681E+02 0.  0.
         13    1    3    3    0    0  0.23968826515E+02  0.65095409403E+01 -0.14605843829E+02  0.28813355267E+02  0.00000000000E+00 0. -1.
        -13    1    3    3    0    0  0.81817873867E+03  0.11508270078E+02 -0.11557297809E+04  0.14160721080E+04  0.00000000000E+00 0.  1.
         22    1    1    2    0    0 -0.84214756518E+03 -0.18017811018E+02  0.14909296552E+04  0.17124276335E+04  0.00000000000E+00 0. -1.
<mgrwt>
<rscale>  0 0.31409943E+04</rscale>
<asrwt>0</asrwt>
<pdfrwt beam="1">  1        1 0.26753132E+00 0.31409943E+04</pdfrwt>
<pdfrwt beam="2">  1       -1 0.21820916E+00 0.31409943E+04</pdfrwt>
<totfact> 0.42653388E-01</totfact>
</mgrwt>
</event>
<event>
 6    1  0.2047711E-005  0.2386093E+04  0.7818608E-02  0.8444729E-01
         -2   -1    0    0    0  501 -0.00000000000E+00  0.00000000000E+00  0.29296357078E+03  0.29296357078E+03  0.00000000000E+00 0.  1.
          2   -1    0    0  501    0  0.00000000000E+00 -0.00000000000E+00 -0.48584862227E+04  0.48584862227E+04  0.00000000000E+00 0. -1.
         23    2    1    2    0    0  0.92870992931E+03  0.51887124679E+03 -0.34436240475E+04  0.36053624796E+04  0.91446843706E+02 0.  0.
         11    1    3    3    0    0  0.44475995658E+03  0.25922245537E+03 -0.15154809488E+04  0.16005281024E+04  0.00000000000E+00 0.  1.
        -11    1    3    3    0    0  0.48394997273E+03  0.25964879142E+03 -0.19281430988E+04  0.20048343773E+04  0.00000000000E+00 0. -1.
         22    1    1    2    0    0 -0.92870992931E+03 -0.51887124679E+03 -0.11218986044E+04  0.15460873138E+04  0.00000000000E+00 0.  1.
<mgrwt>
<rscale>  0 0.23860926E+04</rscale>
<asrwt>0</asrwt>
<pdfrwt beam="1">  1        2 0.74745941E+00 0.23860926E+04</pdfrwt>
<pdfrwt beam="2">  1       -2 0.45071319E-01 0.23860926E+04</pdfrwt>
<totfact> 0.21670977E-01</totfact>
</mgrwt>
</event>
<event>
 6    1  0.2047711E-005  0.4866666E+04  0.7818608E-02  0.7849411E-01
          2   -1    0    0  501    0  0.00000000000E+00  0.00000000000E+00  0.29913060292E+04  0.29913060292E+04  0.00000000000E+00 0. -1.
         -2   -1    0    0    0  501 -0.00000000000E+00 -0.00000000000E+00 -0.19794398685E+04  0.19794398685E+04  0.00000000000E+00 0.  1.
         23    2    1    2    0    0  0.10944669522E+04  0.11957692307E+04  0.23584029100E+04  0.28634055883E+04  0.96464057355E+02 0.  0.
         11    1    3    3    0    0  0.82636806219E+03  0.83912941805E+03  0.17124453877E+04  0.20783386539E+04  0.00000000000E+00 0.  1.
        -11    1    3    3    0    0  0.26809889006E+03  0.35663981263E+03  0.64595752229E+03  0.78506693435E+03  0.00000000000E+00 0. -1.
         22    1    1    2    0    0 -0.10944669522E+04 -0.11957692307E+04 -0.13465367493E+04  0.21073403095E+04  0.00000000000E+00 0.  1.
<mgrwt>
<rscale>  0 0.48666664E+04</rscale>
<asrwt>0</asrwt>
<pdfrwt beam="1">  1        2 0.46020092E+00 0.48666664E+04</pdfrwt>
<pdfrwt beam="2">  1       -2 0.30452921E+00 0.48666664E+04</pdfrwt>
<totfact> 0.38659310E-02</totfact>
</mgrwt>
</event>
<event>
 6    1  0.2047711E-005  0.1388675E+04  0.7818608E-02  0.8962057E-01
         -1   -1    0    0    0  501 -0.00000000000E+00  0.00000000000E+00  0.59698195640E+03  0.59698195640E+03  0.00000000000E+00 0.  1.
          1   -1    0    0  501    0  0.00000000000E+00 -0.00000000000E+00 -0.80756998786E+03  0.80756998786E+03  0.00000000000E+00 0. -1.
         23    2    1    2    0    0  0.52694054927E+03 -0.15289059569E+03  0.31927186076E+03  0.64179812939E+03  0.94490428611E+02 0.  0.
         13    1    3    3    0    0  0.40838759599E+03 -0.80995901974E+02  0.21691974550E+03  0.46946239539E+03  0.00000000000E+00 0. -1.
        -13    1    3    3    0    0  0.11855295328E+03 -0.71894693713E+02  0.10235211526E+03  0.17233573400E+03  0.00000000000E+00 0.  1.
         22    1    1    2    0    0 -0.52694054927E+03  0.15289059569E+03 -0.52985989222E+03  0.76275381487E+03  0.00000000000E+00 0. -1.
<mgrwt>
<rscale>  0 0.13886752E+04</rscale>
<asrwt>0</asrwt>
<pdfrwt beam="1">  1        1 0.12424154E+00 0.13886752E+04</pdfrwt>
<pdfrwt beam="2">  1       -1 0.91843378E-01 0.13886752E+04</pdfrwt>
<totfact> 0.24552570E+01</totfact>
</mgrwt>
</event>
<event>
 6    1  0.2047711E-005  0.4265169E+04  0.7818608E-02  0.7953090E-01
          2   -1    0    0  501    0  0.00000000000E+00  0.00000000000E+00  0.29349843720E+04  0.29349843720E+04  0.00000000000E+00 0. -1.
         -2   -1    0    0    0  501 -0.00000000000E+00 -0.00000000000E+00 -0.15495537578E+04  0.15495537578E+04  0.00000000000E+00 0.  1.
         23    2    1    2    0    0  0.43612925058E+03  0.91153089471E+03  0.26664992751E+04  0.28529026898E+04  0.87966345228E+02 0.  0.
         11    1    3    3    0    0  0.75631559635E+02  0.11227852433E+03  0.29745135864E+03  0.32680867583E+03  0.00000000000E+00 0. -1.
        -11    1    3    3    0    0  0.36049769095E+03  0.79925237038E+03  0.23690479165E+04  0.25260940139E+04  0.00000000000E+00 0.  1.
         22    1    1    2    0    0 -0.43612925058E+03 -0.91153089471E+03 -0.12810686609E+04  0.16316354400E+04  0.00000000000E+00 0.  1.
<mgrwt>
<rscale>  0 0.42651687E+04</rscale>
<asrwt>0</asrwt>
<pdfrwt beam="1">  1        2 0.45153606E+00 0.42651687E+04</pdfrwt>
<pdfrwt beam="2">  1       -2 0.23839289E+00 0.42651687E+04</pdfrwt>
<totfact> 0.11182837E-01</totfact>
</mgrwt>
</event>
<event>
 6    1  0.2047711E-005  0.2335772E+04  0.7818608E-02  0.8463949E-01
         -2   -1    0    0    0  501 -0.00000000000E+00  0.00000000000E+00  0.57956574775E+03  0.57956574775E+03  0.00000000000E+00 0.  1.
          2   -1    0    0  501    0  0.00000000000E+00 -0.00000000000E+00 -0.23534123278E+04  0.23534123278E+04  0.00000000000E+00 0. -1.
         23    2    1    2    0    0  0.29965601320E+03 -0.63489496707E+03 -0.20574575498E+04  0.21757987523E+04  0.89907149237E+02 0.  0.
         11    1    3    3    0    0  0.24706479339E+03 -0.58611379787E+03 -0.18501401956E+04  0.19564225360E+04  0.00000000000E+00 0. -1.
        -11    1    3    3    0    0  0.52591219813E+02 -0.48781169199E+02 -0.20731735425E+03  0.21937621622E+03  0.00000000000E+00 0.  1.
         22    1    1    2    0    0 -0.29965601320E+03  0.63489496707E+03  0.28361096978E+03  0.75717932330E+03  0.00000000000E+00 0.  1.
<mgrwt>
<rscale>  0 0.23357715E+04</rscale>
<asrwt>0</asrwt>
<pdfrwt beam="1">  1        2 0.36206344E+00 0.23357715E+04</pdfrwt>
<pdfrwt beam="2">  1       -2 0.89163961E-01 0.23357715E+04</pdfrwt>
<totfact> 0.41256174E+00</totfact>
</mgrwt>
</event>
<event>
 6    1  0.2047711E-005  0.1977243E+04  0.7818608E-02  0.8617335E-01
          2   -1    0    0  501    0  0.00000000000E+00  0.00000000000E+00  0.16028203713E+04  0.16028203713E+04  0.00000000000E+00 0. -1.
         -2   -1    0    0    0  501 -0.00000000000E+00 -0.00000000000E+00 -0.60978286744E+03  0.60978286744E+03  0.00000000000E+00 0.  1.
         23    2    1    2    0    0 -0.64618721133E+03 -0.11965139143E+03 -0.32581154669E+03  0.73909138411E+03  0.90711314376E+02 0.  0.
         13    1    3    3    0    0 -0.11064921376E+03  0.35894490371E+01 -0.28643178969E+02  0.11435280648E+03  0.00000000000E+00 0. -1.
        -13    1    3    3    0    0 -0.53553799758E+03 -0.12324084047E+03 -0.29716836772E+03  0.62473857763E+03  0.00000000000E+00 0.  1.
         22    1    1    2    0    0  0.64618721133E+03  0.11965139143E+03  0.13188490505E+04  0.14735118546E+04  0.00000000000E+00 0. -1.
<mgrwt>
<rscale>  0 0.19772429E+04</rscale>
<asrwt>0</asrwt>
<pdfrwt beam="1">  1        2 0.24658775E+00 0.19772429E+04</pdfrwt>
<pdfrwt beam="2">  1       -2 0.93812749E-01 0.19772429E+04</pdfrwt>
<totfact> 0.99267559E+00</totfact>
</mgrwt>
</event>
<event>
 6    1  0.2047711E-005  0.1443247E+04  0.7818608E-02  0.8923096E-01
          2   -1    0    0  501    0  0.00000000000E+00  0.00000000000E+00  0.91174092899E+03  0.91174092899E+03  0.00000000000E+00 0. -1.
         -2   -1    0    0    0  501 -0.00000000000E+00 -0.00000000000E+00 -0.57114949467E+03  0.57114949467E+03  0.00000000000E+00 0.  1.
         23    2    1    2    0    0 -0.39422588102E+03 -0.28092443551E+03  0.71687207801E+03  0.86976751057E+03  0.90870030753E+02 0.  0.
         11    1    3    3    0    0 -0.25877485424E+03 -0.18964037673E+03  0.54674185728E+03  0.63391999194E+03  0.00000000000E+00 0. -1.
        -11    1    3    3    0    0 -0.13545102678E+03 -0.91284058773E+02  0.17013022073E+03  0.23584751863E+03  0.00000000000E+00 0.  1.
         22    1    1    2    0    0  0.39422588102E+03  0.28092443551E+03 -0.37628064369E+03  0.61312291308E+03  0.00000000000E+00 0.  1.
<mgrwt>
<rscale>  0 0.14432469E+04</rscale>
<asrwt>0</asrwt>
<pdfrwt beam="1">  1        2 0.14026784E+00 0.14432469E+04</pdfrwt>
<pdfrwt beam="2">  1       -2 0.87869153E-01 0.14432469E+04</pdfrwt>
<totfact> 0.31205706E+01</totfact>
</mgrwt>
</event>
<event>
 6    1  0.2047711E-005  0.1304682E+04  0.7818608E-02  0.9025861E-01
         -2   -1    0    0    0  501 -0.00000000000E+00  0.00000000000E+00  0.35636218812E+03  0.35636218812E+03  0.00000000000E+00 0.  1.
          2   -1    0    0  501    0  0.00000000000E+00 -0.00000000000E+00 -0.11941464813E+04  0.11941464813E+04  0.00000000000E+00 0. -1.
         23    2    1    2    0    0  0.13241456451E+03 -0.60010688763E+03 -0.17266357133E+03  0.64494394609E+03  0.92076551078E+02 0.  0.
         11    1    3    3    0    0  0.12565543074E+03 -0.50914357067E+03 -0.11453353883E+03  0.53678151454E+03  0.00000000000E+00 0.  1.
        -11    1    3    3    0    0  0.67591337766E+01 -0.90963316958E+02 -0.58130032500E+02  0.10816243155E+03  0.00000000000E+00 0. -1.
         22    1    1    2    0    0 -0.13241456451E+03  0.60010688763E+03 -0.66512072180E+03  0.90556472328E+03  0.00000000000E+00 0.  1.
<mgrwt>
<rscale>  0 0.13046818E+04</rscale>
<asrwt>0</asrwt>
<pdfrwt beam="1">  1        2 0.18371484E+00 0.13046818E+04</pdfrwt>
<pdfrwt beam="2">  1       -2 0.54824953E-01 0.13046818E+04</pdfrwt>
<totfact> 0.58548859E+01</totfact>
</mgrwt>
</event>
<event>
 6    1  0.2047711E-005  0.3284446E+04  0.7818608E-02  0.8166864E-01
          2   -1    0    0  501    0  0.00000000000E+00  0.00000000000E+00  0.20414305445E+04  0.20414305445E+04  0.00000000000E+00 0. -1.
         -2   -1    0    0    0  501 -0.00000000000E+00 -0.00000000000E+00 -0.13210813824E+04  0.13210813824E+04  0.00000000000E+00 0.  1.
         23    2    1    2    0    0 -0.42191770745E+03 -0.10294902003E+03  0.19798770932E+04  0.20302117875E+04  0.11503714737E+03 0.  0.
         13    1    3    3    0    0 -0.35581536336E+03 -0.82003670862E+02  0.14258359013E+04  0.14718482232E+04  0.00000000000E+00 0. -1.
        -13    1    3    3    0    0 -0.66102344095E+02 -0.20945349172E+02  0.55404119191E+03  0.55836356425E+03  0.00000000000E+00 0.  1.
         22    1    1    2    0    0  0.42191770745E+03  0.10294902003E+03 -0.12595279311E+04  0.13323001395E+04  0.00000000000E+00 0.  1.
<mgrwt>
<rscale>  0 0.32844457E+04</rscale>
<asrwt>0</asrwt>
<pdfrwt beam="1">  1        2 0.31406624E+00 0.32844457E+04</pdfrwt>
<pdfrwt beam="2">  1       -2 0.20324329E+00 0.32844457E+04</pdfrwt>
<totfact> 0.67106067E-01</totfact>
</mgrwt>
</event>
<event>
 6    1  0.2047711E-005  0.2713932E+04  0.7818608E-02  0.8330499E-01
          2   -1    0    0  501    0  0.00000000000E+00  0.00000000000E+00  0.25854587715E+04  0.25854587715E+04  0.00000000000E+00 0. -1.
         -2   -1    0    0    0  501 -0.00000000000E+00 -0.00000000000E+00 -0.71219704546E+03  0.71219704546E+03  0.00000000000E+00 0.  1.
         23    2    1    2    0    0 -0.74528917774E+03  0.31874978850E+02  0.23128286820E+04  0.24318087858E+04  0.89696632049E+02 0.  0.
         11    1    3    3    0    0 -0.52413450771E+03 -0.18398150151E+02  0.16317463691E+04  0.17139579012E+04  0.00000000000E+00 0.  1.
        -11    1    3    3    0    0 -0.22115467003E+03  0.50273129000E+02  0.68108231290E+03  0.71785088460E+03  0.00000000000E+00 0. -1.
         22    1    1    2    0    0  0.74528917774E+03 -0.31874978850E+02 -0.43956695590E+03  0.86584703120E+03  0.00000000000E+00 0.  1.
<mgrwt>
<rscale>  0 0.27139315E+04</rscale>
<asrwt>0</asrwt>
<pdfrwt beam="1">  1        2 0.39776288E+00 0.27139315E+04</pdfrwt>
<pdfrwt beam="2">  1       -2 0.10956878E+00 0.27139315E+04</pdfrwt>
<totfact> 0.18034962E+00</totfact>
</mgrwt>
</event>
<event>
 6    1  0.2047711E-005  0.5344411E+03  0.7818608E-02  0.1005161E+00
          2   -1    0    0  501    0  0.00000000000E+00  0.00000000000E+00  0.12737025112E+03  0.12737025112E+03  0.00000000000E+00 0. -1.
         -2   -1    0    0    0  501 -0.00000000000E+00 -0.00000000000E+00 -0.56062396734E+03  0.56062396734E+03  0.00000000000E+00 0.  1.
         23    2    1    2    0    0  0.95209248062E+02 -0.17589300824E+03 -0.10296032729E+02  0.22013061304E+03  0.91369181025E+02 0.  0.
         13    1    3    3    0    0  0.78901573897E+02 -0.52246733463E+02  0.31969492685E+01  0.94685796219E+02  0.00000000000E+00 0.  1.
        -13    1    3    3    0    0  0.16307674165E+02 -0.12364627478E+03 -0.13492981998E+02  0.12544481682E+03  0.00000000000E+00 0. -1.
         22    1    1    2    0    0 -0.95209248062E+02  0.17589300824E+03 -0.42295768349E+03  0.46786360543E+03  0.00000000000E+00 0.  1.
<mgrwt>
<rscale>  0 0.53444107E+03</rscale>
<asrwt>0</asrwt>
<pdfrwt beam="1">  1        2 0.19595423E-01 0.53444107E+03</pdfrwt>
<pdfrwt beam="2">  1       -2 0.86249841E-01 0.53444107E+03</pdfrwt>
<totfact> 0.34294383E+02</totfact>
</mgrwt>
</event>
<event>
 6    1  0.2047711E-005  0.2887005E+04  0.7818608E-02  0.8276754E-01
          2   -1    0    0  501    0  0.00000000000E+00  0.00000000000E+00  0.75913911676E+03  0.75913911676E+03  0.00000000000E+00 0. -1.
         -2   -1    0    0    0  501 -0.00000000000E+00 -0.00000000000E+00 -0.27448185313E+04  0.27448185313E+04  0.00000000000E+00 0.  1.
         23    2    1    2    0    0  0.62992253870E+03  0.68514653338E+03 -0.23307329465E+04  0.25113398379E+04  0.91013936688E+02 0.  0.
         11    1    3    3    0    0  0.26923660254E+03  0.35974179586E+03 -0.11311566986E+04  0.12171351546E+04  0.00000000000E+00 0. -1.
        -11    1    3    3    0    0  0.36068593617E+03  0.32540473753E+03 -0.11995762479E+04  0.12942046833E+04  0.00000000000E+00 0.  1.
         22    1    1    2    0    0 -0.62992253870E+03 -0.68514653338E+03  0.34505353201E+03  0.99261781010E+03  0.00000000000E+00 0. -1.
<mgrwt>
<rscale>  0 0.28870048E+04</rscale>
<asrwt>0</asrwt>
<pdfrwt beam="1">  1        2 0.11679064E+00 0.28870048E+04</pdfrwt>
<pdfrwt beam="2">  1       -2 0.42227976E+00 0.28870048E+04</pdfrwt>
<totfact> 0.16875343E-01</totfact>
</mgrwt>
</event>
<event>
 6    1  0.2047711E-005  0.1745943E+04  0.7818608E-02  0.8735587E-01
          2   -1    0    0  501    0  0.00000000000E+00  0.00000000000E+00  0.37328452764E+04  0.37328452764E+04  0.00000000000E+00 0. -1.
         -2   -1    0    0    0  501 -0.00000000000E+00 -0.00000000000E+00 -0.20415504293E+03  0.20415504293E+03  0.00000000000E+00 0.  1.
         23    2    1    2    0    0 -0.81792866021E+03 -0.29579192272E+03  0.18612508176E+04  0.20563476772E+04  0.88379911817E+02 0.  0.
         11    1    3    3    0    0 -0.36340979650E+03 -0.13231307213E+03  0.93195395417E+03  0.10090151644E+04  0.00000000000E+00 0.  1.
        -11    1    3    3    0    0 -0.45451886371E+03 -0.16347885059E+03  0.92929686344E+03  0.10473325128E+04  0.00000000000E+00 0. -1.
         22    1    1    2    0    0  0.81792866021E+03  0.29579192272E+03  0.16674394159E+04  0.18806526422E+04  0.00000000000E+00 0. -1.
<mgrwt>
<rscale>  0 0.17459429E+04</rscale>
<asrwt>0</asrwt>
<pdfrwt beam="1">  1        2 0.57428384E+00 0.17459429E+04</pdfrwt>
<pdfrwt beam="2">  1       -2 0.31408471E-01 0.17459429E+04</pdfrwt>
<totfact> 0.49825937E+00</totfact>
</mgrwt>
</event>
<event>
 6    1  0.2047711E-005  0.1710546E+04  0.7818608E-02  0.8755372E-01
          2   -1    0    0  501    0  0.00000000000E+00  0.00000000000E+00  0.26523906595E+04  0.26523906595E+04  0.00000000000E+00 0. -1.
         -2   -1    0    0    0  501 -0.00000000000E+00 -0.00000000000E+00 -0.27578590123E+03  0.27578590123E+03  0.00000000000E+00 0.  1.
         23    2    1    2    0    0 -0.53707855872E+03 -0.40619739391E+03  0.29545646308E+03  0.74079732346E+03  0.89646259309E+02 0.  0.
         11    1    3    3    0    0 -0.31982173283E+03 -0.20107289921E+03  0.19795035067E+03  0.42649805734E+03  0.00000000000E+00 0. -1.
        -11    1    3    3    0    0 -0.21725682589E+03 -0.20512449470E+03  0.97506112409E+02  0.31429926612E+03  0.00000000000E+00 0.  1.
         22    1    1    2    0    0  0.53707855872E+03  0.40619739391E+03  0.20811482952E+04  0.21873792373E+04  0.00000000000E+00 0. -1.
<mgrwt>
<rscale>  0 0.17105461E+04</rscale>
<asrwt>0</asrwt>
<pdfrwt beam="1">  1        2 0.40806008E+00 0.17105461E+04</pdfrwt>
<pdfrwt beam="2">  1       -2 0.42428602E-01 0.17105461E+04</pdfrwt>
<totfact> 0.14222605E+01</totfact>
</mgrwt>
</event>
<event>
 6    1  0.2047711E-005  0.1037633E+04  0.7818608E-02  0.9268206E-01
         -1   -1    0    0    0  501 -0.00000000000E+00  0.00000000000E+00  0.27698545182E+04  0.27698545182E+04  0.00000000000E+00 0.  1.
          1   -1    0    0  501    0  0.00000000000E+00 -0.00000000000E+00 -0.97178647850E+02  0.97178647850E+02  0.00000000000E+00 0. -1.
         23    2    1    2    0    0 -0.44859282199E+03  0.25129729808E+03  0.12713701492E+04  0.13743699167E+04  0.90137448180E+02 0.  0.
         13    1    3    3    0    0 -0.23808703939E+03  0.17393010066E+03  0.64946463519E+03  0.71326112372E+03  0.00000000000E+00 0. -1.
        -13    1    3    3    0    0 -0.21050578261E+03  0.77367197415E+02  0.62190551402E+03  0.66110879295E+03  0.00000000000E+00 0.  1.
         22    1    1    2    0    0  0.44859282199E+03 -0.25129729808E+03  0.14013057211E+04  0.14926632494E+04  0.00000000000E+00 0.  1.
<mgrwt>
<rscale>  0 0.10376333E+04</rscale>
<asrwt>0</asrwt>
<pdfrwt beam="1">  1        1 0.14950563E-01 0.10376333E+04</pdfrwt>
<pdfrwt beam="2">  1       -1 0.42613140E+00 0.10376333E+04</pdfrwt>
<totfact> 0.18799070E+00</totfact>
</mgrwt>
</event>
<event>
 6    1  0.2047711E-005  0.9749472E+03  0.7818608E-02  0.9336457E-01
         -2   -1    0    0    0  501 -0.00000000000E+00  0.00000000000E+00  0.40695659154E+03  0.40695659154E+03  0.00000000000E+00 0.  1.
          2   -1    0    0  501    0  0.00000000000E+00 -0.00000000000E+00 -0.58392105168E+03  0.58392105168E+03  0.00000000000E+00 0. -1.
         23    2    1    2    0    0  0.10493056917E+02 -0.96039137000E+02  0.39198494060E+03  0.41378402804E+03  0.90727107992E+02 0.  0.
         13    1    3    3    0    0 -0.11548076394E+02 -0.10038323331E+01  0.18061206382E+03  0.18098365491E+03  0.00000000000E+00 0. -1.
        -13    1    3    3    0    0  0.22041133311E+02 -0.95035304667E+02  0.21137287679E+03  0.23280037314E+03  0.00000000000E+00 0.  1.
         22    1    1    2    0    0 -0.10493056917E+02  0.96039137000E+02 -0.56894940074E+03  0.57709361518E+03  0.00000000000E+00 0. -1.
<mgrwt>
<rscale>  0 0.97494722E+03</rscale>
<asrwt>0</asrwt>
<pdfrwt beam="1">  1        2 0.89834007E-01 0.97494722E+03</pdfrwt>
<pdfrwt beam="2">  1       -2 0.62608707E-01 0.97494722E+03</pdfrwt>
<totfact> 0.12129542E+02</totfact>
</mgrwt>
</event>
<event>
 6    1  0.3502913E-005  0.2604381E+04  0.7818608E-02  0.8366715E-01
          2   -1    0    0  501    0  0.00000000000E+00  0.00000000000E+00  0.20819665339E+04  0.20819665339E+04  0.00000000000E+00 0.  1.
         -2   -1    0    0    0  501 -0.00000000000E+00 -0.00000000000E+00 -0.81447016400E+03  0.81447016400E+03  0.00000000000E+00 0. -1.
         23    2    1    2    0    0 -0.53249656319E+03 -0.68637773154E+02  0.19520347264E+04  0.20264617011E+04  0.88564774353E+02 0.  0.
         11    1    3    3    0    0 -0.18467474348E+03 -0.38087979341E+02  0.83981241676E+03  0.86072083186E+03  0.00000000000E+00 0.  1.
        -11    1    3    3    0    0 -0.34782181971E+03 -0.30549793814E+02  0.11122223096E+04  0.11657408692E+04  0.00000000000E+00 0. -1.
         22    1    1    2    0    0  0.53249656319E+03  0.68637773154E+02 -0.68453835644E+03  0.86997499685E+03  0.00000000000E+00 0. -1.
<mgrwt>
<rscale>  0 0.26043806E+04</rscale>
<asrwt>0</asrwt>
<pdfrwt beam="1">  1        2 0.32030254E+00 0.26043806E+04</pdfrwt>
<pdfrwt beam="2">  1       -2 0.12530310E+00 0.26043806E+04</pdfrwt>
<totfact> 0.25342037E+00</totfact>
</mgrwt>
</event>
<event>
 6    1  0.2047711E-005  0.5404046E+03  0.7818608E-02  0.1003740E+00
         -2   -1    0    0    0  501 -0.00000000000E+00  0.00000000000E+00  0.99375830649E+02  0.99375830649E+02  0.00000000000E+00 0.  1.
          2   -1    0    0  501    0  0.00000000000E+00 -0.00000000000E+00 -0.73467838408E+03  0.73467838408E+03  0.00000000000E+00 0. -1.
         23    2    1    2    0    0 -0.19754680114E+03  0.14971765523E+03 -0.19403412107E+03  0.32793373073E+03  0.91930281629E+02 0.  0.
         13    1    3    3    0    0 -0.20457162852E+03  0.13718399706E+03 -0.16784443385E+03  0.29806166177E+03  0.00000000000E+00 0. -1.
        -13    1    3    3    0    0  0.70248273774E+01  0.12533658163E+02 -0.26189687226E+02  0.29872068954E+02  0.00000000000E+00 0.  1.
         22    1    1    2    0    0  0.19754680114E+03 -0.14971765523E+03 -0.44126843237E+03  0.50612048401E+03  0.00000000000E+00 0. -1.
<mgrwt>
<rscale>  0 0.54040457E+03</rscale>
<asrwt>0</asrwt>
<pdfrwt beam="1">  1        2 0.11302744E+00 0.54040457E+03</pdfrwt>
<pdfrwt beam="2">  1       -2 0.15288590E-01 0.54040457E+03</pdfrwt>
<totfact> 0.13107134E+03</totfact>
</mgrwt>
</event>
<event>
 6    1  0.2047711E-005  0.2511891E+04  0.7818608E-02  0.8398762E-01
         -2   -1    0    0    0  501 -0.00000000000E+00  0.00000000000E+00  0.13927139573E+04  0.13927139573E+04  0.00000000000E+00 0.  1.
          2   -1    0    0  501    0  0.00000000000E+00 -0.00000000000E+00 -0.11326078082E+04  0.11326078082E+04  0.00000000000E+00 0. -1.
         23    2    1    2    0    0 -0.55915430136E+03 -0.28364315064E+03  0.12223956143E+04  0.13767975018E+04  0.90627553651E+02 0.  0.
         13    1    3    3    0    0 -0.12546514168E+03 -0.57004519363E+02  0.19454243112E+03  0.23840674174E+03  0.00000000000E+00 0. -1.
        -13    1    3    3    0    0 -0.43368915968E+03 -0.22663863128E+03  0.10278531831E+04  0.11383907600E+04  0.00000000000E+00 0.  1.
         22    1    1    2    0    0  0.55915430136E+03  0.28364315064E+03 -0.96228946511E+03  0.11485242637E+04  0.00000000000E+00 0. -1.
<mgrwt>
<rscale>  0 0.25118907E+04</rscale>
<asrwt>0</asrwt>
<pdfrwt beam="1">  1        2 0.17424736E+00 0.25118907E+04</pdfrwt>
<pdfrwt beam="2">  1       -2 0.21426369E+00 0.25118907E+04</pdfrwt>
<totfact> 0.19926851E+00</totfact>
</mgrwt>
</event>
<event>
 6    1  0.2047711E-005  0.3961761E+03  0.7818608E-02  0.1045112E+00
         -2   -1    0    0    0  501 -0.00000000000E+00  0.00000000000E+00  0.99010915709E+02  0.99010915709E+02  0.00000000000E+00 0.  1.
          2   -1    0    0  501    0  0.00000000000E+00 -0.00000000000E+00 -0.39630860852E+03  0.39630860852E+03  0.00000000000E+00 0. -1.
         23    2    1    2    0    0  0.15866854983E+03 -0.84592615447E+02 -0.22364193122E+03  0.30100845788E+03  0.90877714653E+02 0.  0.
         11    1    3    3    0    0  0.11722221963E+02  0.11748830966E+02 -0.55046213428E+02  0.57493748613E+02  0.00000000000E+00 0. -1.
        -11    1    3    3    0    0  0.14694632786E+03 -0.96341446413E+02 -0.16859571779E+03  0.24351470926E+03  0.00000000000E+00 0.  1.
         22    1    1    2    0    0 -0.15866854983E+03  0.84592615447E+02 -0.73655761593E+02  0.19431106636E+03  0.00000000000E+00 0. -1.
<mgrwt>
<rscale>  0 0.39617611E+03</rscale>
<asrwt>0</asrwt>
<pdfrwt beam="1">  1        2 0.60970555E-01 0.39617611E+03</pdfrwt>
<pdfrwt beam="2">  1       -2 0.15232449E-01 0.39617611E+03</pdfrwt>
<totfact> 0.27071515E+03</totfact>
</mgrwt>
</event>
<event>
 6    1  0.2047711E-005  0.1238489E+04  0.7818608E-02  0.9079819E-01
          2   -1    0    0  501    0  0.00000000000E+00  0.00000000000E+00  0.15944543768E+04  0.15944543768E+04  0.00000000000E+00 0. -1.
         -2   -1    0    0    0  501 -0.00000000000E+00 -0.00000000000E+00 -0.24049838542E+03  0.24049838542E+03  0.00000000000E+00 0.  1.
         23    2    1    2    0    0  0.21189617042E+03 -0.38043423077E+03  0.13261274443E+04  0.13985989848E+04  0.88515145281E+02 0.  0.
         11    1    3    3    0    0  0.18127533616E+02 -0.10867344248E+03  0.30321273613E+03  0.32260887763E+03  0.00000000000E+00 0. -1.
        -11    1    3    3    0    0  0.19376863680E+03 -0.27176078829E+03  0.10229147081E+04  0.10759901072E+04  0.00000000000E+00 0.  1.
         22    1    1    2    0    0 -0.21189617042E+03  0.38043423077E+03  0.27828547079E+02  0.43635377736E+03  0.00000000000E+00 0.  1.
<mgrwt>
<rscale>  0 0.12384889E+04</rscale>
<asrwt>0</asrwt>
<pdfrwt beam="1">  1        2 0.24530067E+00 0.12384889E+04</pdfrwt>
<pdfrwt beam="2">  1       -2 0.36999753E-01 0.12384889E+04</pdfrwt>
<totfact> 0.76071700E+01</totfact>
</mgrwt>
</event>
<event>
 6    1  0.2047711E-005  0.1713378E+04  0.7818608E-02  0.8753771E-01
          1   -1    0    0  501    0  0.00000000000E+00  0.00000000000E+00  0.83562818230E+03  0.83562818230E+03  0.00000000000E+00 0. -1.
         -1   -1    0    0    0  501 -0.00000000000E+00 -0.00000000000E+00 -0.87828083077E+03  0.87828083077E+03  0.00000000000E+00 0.  1.
         23    2    1    2    0    0  0.15226861659E+03 -0.48659496566E+03  0.66423729040E+03  0.84232781899E+03  0.91348697201E+02 0.  0.
         11    1    3    3    0    0  0.33415339708E+02 -0.39724117652E+02  0.40274689564E+02  0.65701149689E+02  0.00000000000E+00 0.  1.
        -11    1    3    3    0    0  0.11885327688E+03 -0.44687084801E+03  0.62396260083E+03  0.77662666930E+03  0.00000000000E+00 0. -1.
         22    1    1    2    0    0 -0.15226861659E+03  0.48659496566E+03 -0.70688993887E+03  0.87158119408E+03  0.00000000000E+00 0.  1.
<mgrwt>
<rscale>  0 0.17133782E+04</rscale>
<asrwt>0</asrwt>
<pdfrwt beam="1">  1        1 0.12855818E+00 0.17133782E+04</pdfrwt>
<pdfrwt beam="2">  1       -1 0.13512013E+00 0.17133782E+04</pdfrwt>
<totfact> 0.90001326E+00</totfact>
</mgrwt>
</event>
<event>
 6    1  0.2047711E-005  0.1321800E+04  0.7818608E-02  0.9012454E-01
         -2   -1    0    0    0  501 -0.00000000000E+00  0.00000000000E+00  0.36645382379E+03  0.36645382379E+03  0.00000000000E+00 0.  1.
          2   -1    0    0  501    0  0.00000000000E+00 -0.00000000000E+00 -0.11919342372E+04  0.11919342372E+04  0.00000000000E+00 0. -1.
         23    2    1    2    0    0 -0.13477350257E+03  0.43547964634E+03 -0.97435930024E+03  0.10788347873E+04  0.81865944511E+02 0.  0.
         11    1    3    3    0    0 -0.44732241665E+01  0.95850297905E+02 -0.15410369598E+03  0.18153577735E+03  0.00000000000E+00 0. -1.
        -11    1    3    3    0    0 -0.13030027841E+03  0.33962934843E+03 -0.82025560426E+03  0.89729900992E+03  0.00000000000E+00 0.  1.
         22    1    1    2    0    0  0.13477350257E+03 -0.43547964634E+03  0.14887888686E+03  0.47955327370E+03  0.00000000000E+00 0.  1.
<mgrwt>
<rscale>  0 0.13218001E+04</rscale>
<asrwt>0</asrwt>
<pdfrwt beam="1">  1        2 0.18337450E+00 0.13218001E+04</pdfrwt>
<pdfrwt beam="2">  1       -2 0.56377512E-01 0.13218001E+04</pdfrwt>
<totfact> 0.55341145E+01</totfact>
</mgrwt>
</event>
<event>
 6    1  0.2047711E-005  0.8613334E+03  0.7818608E-02  0.9475251E-01
         -2   -1    0    0    0  501 -0.00000000000E+00  0.00000000000E+00  0.58432934737E+03  0.58432934737E+03  0.00000000000E+00 0.  1.
          2   -1    0    0  501    0  0.00000000000E+00 -0.00000000000E+00 -0.31741314942E+03  0.31741314942E+03  0.00000000000E+00 0. -1.
         23    2    1    2    0    0  0.15732377710E+03 -0.36308993463E+03 -0.29075160336E+02  0.40758062488E+03  0.93228372047E+02 0.  0.
         13    1    3    3    0    0  0.45767902434E+02 -0.20637405542E+03  0.85879858632E+01  0.21156253247E+03  0.00000000000E+00 0.  1.
        -13    1    3    3    0    0  0.11155587467E+03 -0.15671587922E+03 -0.37663146200E+02  0.19601809241E+03  0.00000000000E+00 0. -1.
         22    1    1    2    0    0 -0.15732377710E+03  0.36308993463E+03  0.29599135829E+03  0.49416187192E+03  0.00000000000E+00 0.  1.
<mgrwt>
<rscale>  0 0.86133343E+03</rscale>
<asrwt>0</asrwt>
<pdfrwt beam="1">  1        2 0.48832792E-01 0.86133343E+03</pdfrwt>
<pdfrwt beam="2">  1       -2 0.89896822E-01 0.86133343E+03</pdfrwt>
<totfact> 0.10980844E+02</totfact>
</mgrwt>
</event>
<event>
 6    1  0.2047711E-005  0.1562273E+04  0.7818608E-02  0.8844066E-01
         -2   -1    0    0    0  501 -0.00000000000E+00  0.00000000000E+00  0.27583657469E+03  0.27583657469E+03  0.00000000000E+00 0.  1.
          2   -1    0    0  501    0  0.00000000000E+00 -0.00000000000E+00 -0.22120871403E+04  0.22120871403E+04  0.00000000000E+00 0. -1.
         23    2    1    2    0    0  0.84259416013E+02 -0.64671151556E+03 -0.16487606191E+04  0.17751924172E+04  0.86954616742E+02 0.  0.
         13    1    3    3    0    0 -0.13326160399E+02 -0.19460322558E+03 -0.46227162928E+03  0.50174003348E+03  0.00000000000E+00 0.  1.
        -13    1    3    3    0    0  0.97585576412E+02 -0.45210828998E+03 -0.11864889898E+04  0.12734523837E+04  0.00000000000E+00 0. -1.
         22    1    1    2    0    0 -0.84259416013E+02  0.64671151556E+03 -0.28748994653E+03  0.71273129783E+03  0.00000000000E+00 0.  1.
<mgrwt>
<rscale>  0 0.15622734E+04</rscale>
<asrwt>0</asrwt>
<pdfrwt beam="1">  1        2 0.34032108E+00 0.15622734E+04</pdfrwt>
<pdfrwt beam="2">  1       -2 0.42436399E-01 0.15622734E+04</pdfrwt>
<totfact> 0.25756347E+01</totfact>
</mgrwt>
</event>
<event>
 6    1  0.2047711E-005  0.1191292E+04  0.7818608E-02  0.9120513E-01
          1   -1    0    0  501    0  0.00000000000E+00  0.00000000000E+00  0.52405375582E+03  0.52405375582E+03  0.00000000000E+00 0. -1.
         -1   -1    0    0    0  501 -0.00000000000E+00 -0.00000000000E+00 -0.67701814455E+03  0.67701814455E+03  0.00000000000E+00 0.  1.
         23    2    1    2    0    0 -0.16312043089E+03  0.43610296083E+03 -0.44781154518E+03  0.64995583901E+03  0.71507658710E+02 0.  0.
         11    1    3    3    0    0 -0.14478872547E+03  0.35201316894E+03 -0.32811624426E+03  0.50253091037E+03  0.00000000000E+00 0. -1.
        -11    1    3    3    0    0 -0.18331705419E+02  0.84089791893E+02 -0.11969530091E+03  0.14742492864E+03  0.00000000000E+00 0.  1.
         22    1    1    2    0    0  0.16312043089E+03 -0.43610296083E+03  0.29484715645E+03  0.55111606135E+03  0.00000000000E+00 0. -1.
<mgrwt>
<rscale>  0 0.11912916E+04</rscale>
<asrwt>0</asrwt>
<pdfrwt beam="1">  1        1 0.80623655E-01 0.11912916E+04</pdfrwt>
<pdfrwt beam="2">  1       -1 0.10415664E+00 0.11912916E+04</pdfrwt>
<totfact> 0.35688835E+01</totfact>
</mgrwt>
</event>
<event>
 6    1  0.2047711E-005  0.1166471E+04  0.7818608E-02  0.9142721E-01
          2   -1    0    0  501    0  0.00000000000E+00  0.00000000000E+00  0.22215857490E+04  0.22215857490E+04  0.00000000000E+00 0. -1.
         -2   -1    0    0    0  501 -0.00000000000E+00 -0.00000000000E+00 -0.15311759287E+03  0.15311759287E+03  0.00000000000E+00 0.  1.
         23    2    1    2    0    0 -0.20181190913E+03 -0.54066969368E+03  0.93171019547E+03  0.10998423983E+04  0.92291106977E+02 0.  0.
         13    1    3    3    0    0 -0.13229031693E+02 -0.15054295795E+03  0.24014899687E+03  0.28374236583E+03  0.00000000000E+00 0.  1.
        -13    1    3    3    0    0 -0.18858287744E+03 -0.39012673573E+03  0.69156119860E+03  0.81610003247E+03  0.00000000000E+00 0. -1.
         22    1    1    2    0    0  0.20181190913E+03  0.54066969368E+03  0.11367579607E+04  0.12748609436E+04  0.00000000000E+00 0.  1.
<mgrwt>
<rscale>  0 0.11664714E+04</rscale>
<asrwt>0</asrwt>
<pdfrwt beam="1">  1        2 0.34178240E+00 0.11664714E+04</pdfrwt>
<pdfrwt beam="2">  1       -2 0.23556554E-01 0.11664714E+04</pdfrwt>
<totfact> 0.79605317E+01</totfact>
</mgrwt>
</event>
<event>
 6    1  0.2047711E-005  0.2220461E+04  0.7818608E-02  0.8509960E-01
         -2   -1    0    0    0  501 -0.00000000000E+00  0.00000000000E+00  0.12091364364E+04  0.12091364364E+04  0.00000000000E+00 0. -1.
          2   -1    0    0  501    0  0.00000000000E+00 -0.00000000000E+00 -0.10194151577E+04  0.10194151577E+04  0.00000000000E+00 0.  1.
         23    2    1    2    0    0 -0.56227500357E+03 -0.90110074972E+03  0.41207091392E+03  0.11433902693E+04  0.96969732213E+02 0.  0.
         13    1    3    3    0    0 -0.51006771357E+03 -0.76459547238E+03  0.33580836054E+03  0.97854103840E+03  0.00000000000E+00 0.  1.
        -13    1    3    3    0    0 -0.52207289992E+02 -0.13650527733E+03  0.76262553377E+02  0.16484923086E+03  0.00000000000E+00 0. -1.
         22    1    1    2    0    0  0.56227500357E+03  0.90110074972E+03 -0.22234963525E+03  0.10851613249E+04  0.00000000000E+00 0.  1.
<mgrwt>
<rscale>  0 0.22204612E+04</rscale>
<asrwt>0</asrwt>
<pdfrwt beam="1">  1        2 0.15683310E+00 0.22204612E+04</pdfrwt>
<pdfrwt beam="2">  1       -2 0.18602099E+00 0.22204612E+04</pdfrwt>
<totfact> 0.36822896E+00</totfact>
</mgrwt>
</event>
<event>
 6    1  0.2047711E-005  0.2998525E+04  0.7818608E-02  0.8244152E-01
          2   -1    0    0  501    0  0.00000000000E+00  0.00000000000E+00  0.39829567963E+04  0.39829567963E+04  0.00000000000E+00 0. -1.
         -2   -1    0    0    0  501 -0.00000000000E+00 -0.00000000000E+00 -0.56435162129E+03  0.56435162129E+03  0.00000000000E+00 0.  1.
         23    2    1    2    0    0 -0.64696274355E+03 -0.12735692187E+04  0.23943432580E+04  0.27895678733E+04  0.90939189194E+02 0.  0.
         11    1    3    3    0    0 -0.22765232039E+03 -0.54592079351E+03  0.10023897489E+04  0.11638901582E+04  0.00000000000E+00 0.  1.
        -11    1    3    3    0    0 -0.41931042316E+03 -0.72764842524E+03  0.13919535091E+04  0.16256777151E+04  0.00000000000E+00 0. -1.
         22    1    1    2    0    0  0.64696274355E+03  0.12735692187E+04  0.10242619171E+04  0.17577405443E+04  0.00000000000E+00 0.  1.
<mgrwt>
<rscale>  0 0.29985251E+04</rscale>
<asrwt>0</asrwt>
<pdfrwt beam="1">  1        2 0.61276257E+00 0.29985251E+04</pdfrwt>
<pdfrwt beam="2">  1       -2 0.86823329E-01 0.29985251E+04</pdfrwt>
<totfact> 0.34683347E-01</totfact>
</mgrwt>
</event>
<event>
 6    1  0.2047711E-005  0.1374209E+04  0.7818608E-02  0.8972702E-01
         -2   -1    0    0    0  501 -0.00000000000E+00  0.00000000000E+00  0.18274928750E+03  0.18274928750E+03  0.00000000000E+00 0.  1.
          2   -1    0    0  501    0  0.00000000000E+00 -0.00000000000E+00 -0.25833886044E+04  0.25833886044E+04  0.00000000000E+00 0. -1.
         23    2    1    2    0    0  0.45681418835E+03  0.56763101713E+02 -0.22242396968E+04  0.22731692536E+04  0.90304897148E+02 0.  0.
         11    1    3    3    0    0  0.37655903989E+03  0.46857494891E+02 -0.19755297383E+04  0.20116436271E+04  0.00000000000E+00 0.  1.
        -11    1    3    3    0    0  0.80255148458E+02  0.99056068220E+01 -0.24870995843E+03  0.26152562652E+03  0.00000000000E+00 0. -1.
         22    1    1    2    0    0 -0.45681418835E+03 -0.56763101713E+02 -0.17639962018E+03  0.49296863835E+03  0.00000000000E+00 0.  1.
<mgrwt>
<rscale>  0 0.13742088E+04</rscale>
<asrwt>0</asrwt>
<pdfrwt beam="1">  1        2 0.39744444E+00 0.13742088E+04</pdfrwt>
<pdfrwt beam="2">  1       -2 0.28115272E-01 0.13742088E+04</pdfrwt>
<totfact> 0.35275840E+01</totfact>
</mgrwt>
</event>
<event>
 6    1  0.2047711E-005  0.1097772E+04  0.7818608E-02  0.9207366E-01
          2   -1    0    0  501    0  0.00000000000E+00  0.00000000000E+00  0.89386338959E+03  0.89386338959E+03  0.00000000000E+00 0. -1.
         -2   -1    0    0    0  501 -0.00000000000E+00 -0.00000000000E+00 -0.33704924576E+03  0.33704924576E+03  0.00000000000E+00 0.  1.
         23    2    1    2    0    0  0.40512023346E+03  0.22769211412E+03  0.60008068961E+03  0.76418134609E+03  0.88939267402E+02 0.  0.
         11    1    3    3    0    0  0.14697654159E+03  0.13253434138E+03  0.24245610380E+03  0.31297350957E+03  0.00000000000E+00 0. -1.
        -11    1    3    3    0    0  0.25814369187E+03  0.95157772737E+02  0.35762458581E+03  0.45120783652E+03  0.00000000000E+00 0.  1.
         22    1    1    2    0    0 -0.40512023346E+03 -0.22769211412E+03 -0.43266545780E+02  0.46673128926E+03  0.00000000000E+00 0.  1.
<mgrwt>
<rscale>  0 0.10977723E+04</rscale>
<asrwt>0</asrwt>
<pdfrwt beam="1">  1        2 0.13751744E+00 0.10977723E+04</pdfrwt>
<pdfrwt beam="2">  1       -2 0.51853730E-01 0.10977723E+04</pdfrwt>
<totfact> 0.10324118E+02</totfact>
</mgrwt>
</event>
<event>
 6    1  0.2047711E-005  0.2395637E+04  0.7818608E-02  0.8441139E-01
          2   -1    0    0  501    0  0.00000000000E+00  0.00000000000E+00  0.13123771742E+04  0.13123771742E+04  0.00000000000E+00 0. -1.
         -2   -1    0    0    0  501 -0.00000000000E+00 -0.00000000000E+00 -0.10932593716E+04  0.10932593716E+04  0.00000000000E+00 0.  1.
         23    2    1    2    0    0 -0.16819319859E+03  0.11098921056E+04  0.52448242284E+03  0.12422806289E+04  0.89609769820E+02 0.  0.
         13    1    3    3    0    0 -0.49879998302E+02  0.61594502756E+03  0.30099655678E+03  0.68736832804E+03  0.00000000000E+00 0.  1.
        -13    1    3    3    0    0 -0.11831320029E+03  0.49394707808E+03  0.22348586606E+03  0.55491230085E+03  0.00000000000E+00 0. -1.
         22    1    1    2    0    0  0.16819319859E+03 -0.11098921056E+04 -0.30536462021E+03  0.11633559169E+04  0.00000000000E+00 0.  1.
<mgrwt>
<rscale>  0 0.23956366E+04</rscale>
<asrwt>0</asrwt>
<pdfrwt beam="1">  1        2 0.20190418E+00 0.23956366E+04</pdfrwt>
<pdfrwt beam="2">  1       -2 0.16819375E+00 0.23956366E+04</pdfrwt>
<totfact> 0.32115584E+00</totfact>
</mgrwt>
</event>
<event>
 6    1  0.2047711E-005  0.2882111E+04  0.7818608E-02  0.8278220E-01
          2   -1    0    0  501    0  0.00000000000E+00  0.00000000000E+00  0.16888021381E+04  0.16888021381E+04  0.00000000000E+00 0. -1.
         -2   -1    0    0    0  501 -0.00000000000E+00 -0.00000000000E+00 -0.12296529309E+04  0.12296529309E+04  0.00000000000E+00 0.  1.
         23    2    1    2    0    0 -0.39558240510E+03  0.76637085446E+03  0.13968452376E+04  0.16444520975E+04  0.96105970757E+02 0.  0.
         11    1    3    3    0    0 -0.25701395386E+03  0.55692336607E+03  0.92397319805E+03  0.11090294310E+04  0.00000000000E+00 0.  1.
        -11    1    3    3    0    0 -0.13856845124E+03  0.20944748839E+03  0.47287203950E+03  0.53542266651E+03  0.00000000000E+00 0. -1.
         22    1    1    2    0    0  0.39558240510E+03 -0.76637085446E+03 -0.93769603035E+03  0.12740029714E+04  0.00000000000E+00 0.  1.
<mgrwt>
<rscale>  0 0.28821107E+04</rscale>
<asrwt>0</asrwt>
<pdfrwt beam="1">  1        2 0.25981571E+00 0.28821107E+04</pdfrwt>
<pdfrwt beam="2">  1       -2 0.18917737E+00 0.28821107E+04</pdfrwt>
<totfact> 0.13501127E+00</totfact>
</mgrwt>
</event>
<event>
 6    1  0.2047711E-005  0.3159981E+04  0.7818608E-02  0.8199467E-01
         -2   -1    0    0    0  501 -0.00000000000E+00  0.00000000000E+00  0.27149746804E+04  0.27149746804E+04  0.00000000000E+00 0.  1.
          2   -1    0    0  501    0  0.00000000000E+00 -0.00000000000E+00 -0.91948167195E+03  0.91948167195E+03  0.00000000000E+00 0. -1.
         23    2    1    2    0    0  0.14422733679E+04 -0.56991793225E+03  0.55863678280E+03  0.16508303190E+04  0.90591223785E+02 0.  0.
         13    1    3    3    0    0  0.94347943044E+03 -0.33415315161E+03  0.33430499083E+03  0.10552590162E+04  0.00000000000E+00 0.  1.
        -13    1    3    3    0    0  0.49879393744E+03 -0.23576478064E+03  0.22433179198E+03  0.59557130279E+03  0.00000000000E+00 0. -1.
         22    1    1    2    0    0 -0.14422733679E+04  0.56991793225E+03  0.12368562256E+04  0.19836260333E+04  0.00000000000E+00 0. -1.
<mgrwt>
<rscale>  0 0.31599807E+04</rscale>
<asrwt>0</asrwt>
<pdfrwt beam="1">  1        2 0.14145872E+00 0.31599807E+04</pdfrwt>
<pdfrwt beam="2">  1       -2 0.41768841E+00 0.31599807E+04</pdfrwt>
<totfact> 0.13634843E-01</totfact>
</mgrwt>
</event>
<event>
 6    1  0.2047711E-005  0.8725451E+03  0.7818608E-02  0.9460568E-01
         -2   -1    0    0    0  501 -0.00000000000E+00  0.00000000000E+00  0.17186619698E+03  0.17186619698E+03  0.00000000000E+00 0.  1.
          2   -1    0    0  501    0  0.00000000000E+00 -0.00000000000E+00 -0.11074529131E+04  0.11074529131E+04  0.00000000000E+00 0. -1.
         23    2    1    2    0    0  0.27310484116E+03  0.29772907934E+03 -0.25196324160E+03  0.48523478591E+03  0.93479748583E+02 0.  0.
         11    1    3    3    0    0  0.22924394037E+03  0.25318930880E+03 -0.16821091766E+03  0.38072630998E+03  0.00000000000E+00 0.  1.
        -11    1    3    3    0    0  0.43860900788E+02  0.44539770538E+02 -0.83752323941E+02  0.10450847594E+03  0.00000000000E+00 0. -1.
         22    1    1    2    0    0 -0.27310484116E+03 -0.29772907934E+03 -0.68362347448E+03  0.79408432411E+03  0.00000000000E+00 0. -1.
<mgrwt>
<rscale>  0 0.87254506E+03</rscale>
<asrwt>0</asrwt>
<pdfrwt beam="1">  1        2 0.17037737E+00 0.87254506E+03</pdfrwt>
<pdfrwt beam="2">  1       -2 0.26440953E-01 0.87254506E+03</pdfrwt>
<totfact> 0.27975352E+02</totfact>
</mgrwt>
</event>
<event>
 6    1  0.2047711E-005  0.6789841E+03  0.7818608E-02  0.9753863E-01
          2   -1    0    0  501    0  0.00000000000E+00  0.00000000000E+00  0.10969871013E+04  0.10969871013E+04  0.00000000000E+00 0. -1.
         -2   -1    0    0    0  501 -0.00000000000E+00 -0.00000000000E+00 -0.10506491901E+03  0.10506491901E+03  0.00000000000E+00 0.  1.
         23    2    1    2    0    0 -0.14840093226E+03  0.26651917985E+03  0.74249194184E+03  0.80800791774E+03  0.92342847642E+02 0.  0.
         13    1    3    3    0    0 -0.72236436454E+02  0.17584883647E+03  0.55086038266E+03  0.58274186157E+03  0.00000000000E+00 0.  1.
        -13    1    3    3    0    0 -0.76164495804E+02  0.90670343379E+02  0.19163155918E+03  0.22526605617E+03  0.00000000000E+00 0. -1.
         22    1    1    2    0    0  0.14840093226E+03 -0.26651917985E+03  0.24943024045E+03  0.39404410257E+03  0.00000000000E+00 0.  1.
<mgrwt>
<rscale>  0 0.67898413E+03</rscale>
<asrwt>0</asrwt>
<pdfrwt beam="1">  1        2 0.16876724E+00 0.67898413E+03</pdfrwt>
<pdfrwt beam="2">  1       -2 0.16163834E-01 0.67898413E+03</pdfrwt>
<totfact> 0.68083075E+02</totfact>
</mgrwt>
</event>
<event>
 6    1  0.2047711E-005  0.1933331E+04  0.7818608E-02  0.8638441E-01
         -2   -1    0    0    0  501 -0.00000000000E+00  0.00000000000E+00  0.90631229825E+03  0.90631229825E+03  0.00000000000E+00 0.  1.
          2   -1    0    0  501    0  0.00000000000E+00 -0.00000000000E+00 -0.10310381764E+04  0.10310381764E+04  0.00000000000E+00 0. -1.
         23    2    1    2    0    0 -0.44723160474E+03  0.83258293630E+03 -0.25533039354E+03  0.98327081680E+03  0.91746581427E+02 0.  0.
         11    1    3    3    0    0 -0.84855792806E+02  0.10257089980E+03 -0.17457187902E+02  0.13426112047E+03  0.00000000000E+00 0. -1.
        -11    1    3    3    0    0 -0.36237581193E+03  0.73001203650E+03 -0.23787320563E+03  0.84900969633E+03  0.00000000000E+00 0.  1.
         22    1    1    2    0    0  0.44723160474E+03 -0.83258293630E+03  0.13060451538E+03  0.95407965786E+03  0.00000000000E+00 0.  1.
<mgrwt>
<rscale>  0 0.19333314E+04</rscale>
<asrwt>0</asrwt>
<pdfrwt beam="1">  1        2 0.15862126E+00 0.19333314E+04</pdfrwt>
<pdfrwt beam="2">  1       -2 0.13943266E+00 0.19333314E+04</pdfrwt>
<totfact> 0.81583741E+00</totfact>
</mgrwt>
</event>
<event>
 6    1  0.2047711E-005  0.2475764E+04  0.7818608E-02  0.8411671E-01
          2   -1    0    0  501    0  0.00000000000E+00  0.00000000000E+00  0.22747822273E+04  0.22747822273E+04  0.00000000000E+00 0. -1.
         -2   -1    0    0    0  501 -0.00000000000E+00 -0.00000000000E+00 -0.67362587133E+03  0.67362587133E+03  0.00000000000E+00 0.  1.
         23    2    1    2    0    0 -0.68201019069E+03 -0.99877165136E+03  0.11035291180E+04  0.16406177562E+04  0.10567590090E+03 0.  0.
         11    1    3    3    0    0 -0.94195815478E+02 -0.81500767974E+02  0.11496991123E+03  0.16950901841E+03  0.00000000000E+00 0. -1.
        -11    1    3    3    0    0 -0.58781437521E+03 -0.91727088339E+03  0.98855920678E+03  0.14711087378E+04  0.00000000000E+00 0.  1.
         22    1    1    2    0    0  0.68201019069E+03  0.99877165136E+03  0.49762723802E+03  0.13077903424E+04  0.00000000000E+00 0. -1.
<mgrwt>
<rscale>  0 0.24757643E+04</rscale>
<asrwt>0</asrwt>
<pdfrwt beam="1">  1        2 0.34996649E+00 0.24757643E+04</pdfrwt>
<pdfrwt beam="2">  1       -2 0.10363475E+00 0.24757643E+04</pdfrwt>
<totfact> 0.31756084E+00</totfact>
</mgrwt>
</event>
<event>
 6    1  0.2047711E-005  0.2416334E+04  0.7818608E-02  0.8433414E-01
         -1   -1    0    0    0  501 -0.00000000000E+00  0.00000000000E+00  0.12697107491E+04  0.12697107491E+04  0.00000000000E+00 0.  1.
          1   -1    0    0  501    0  0.00000000000E+00 -0.00000000000E+00 -0.11496064392E+04  0.11496064392E+04  0.00000000000E+00 0. -1.
         23    2    1    2    0    0  0.22772774817E+03 -0.51902702712E+03  0.11260695508E+04  0.12646678700E+04  0.10051470483E+03 0.  0.
         11    1    3    3    0    0  0.18096066626E+03 -0.41629313608E+03  0.80261614416E+03  0.92208427638E+03  0.00000000000E+00 0.  1.
        -11    1    3    3    0    0  0.46767081911E+02 -0.10273389104E+03  0.32345340666E+03  0.34258359359E+03  0.00000000000E+00 0. -1.
         22    1    1    2    0    0 -0.22772774817E+03  0.51902702712E+03 -0.10059652410E+04  0.11546493183E+04  0.00000000000E+00 0. -1.
<mgrwt>
<rscale>  0 0.24163341E+04</rscale>
<asrwt>0</asrwt>
<pdfrwt beam="1">  1        1 0.17686253E+00 0.24163341E+04</pdfrwt>
<pdfrwt beam="2">  1       -1 0.19534011E+00 0.24163341E+04</pdfrwt>
<totfact> 0.16888304E+00</totfact>
</mgrwt>
</event>
<event>
 6    1  0.2047711E-005  0.1172124E+04  0.7818608E-02  0.9137612E-01
          2   -1    0    0  501    0  0.00000000000E+00  0.00000000000E+00  0.13183448619E+04  0.13183448619E+04  0.00000000000E+00 0. -1.
         -2   -1    0    0    0  501 -0.00000000000E+00 -0.00000000000E+00 -0.26053029574E+03  0.26053029574E+03  0.00000000000E+00 0.  1.
         23    2    1    2    0    0  0.21290067253E+03  0.54043183518E+03  0.59045129699E+03  0.83334065796E+03  0.91818588841E+02 0.  0.
         11    1    3    3    0    0  0.26740999731E+02  0.17757892488E+03  0.19904767625E+03  0.26808456325E+03  0.00000000000E+00 0.  1.
        -11    1    3    3    0    0  0.18615967280E+03  0.36285291030E+03  0.39140362073E+03  0.56525609471E+03  0.00000000000E+00 0. -1.
         22    1    1    2    0    0 -0.21290067253E+03 -0.54043183518E+03  0.46736326918E+03  0.74553449968E+03  0.00000000000E+00 0. -1.
<mgrwt>
<rscale>  0 0.11721242E+04</rscale>
<asrwt>0</asrwt>
<pdfrwt beam="1">  1        2 0.20282228E+00 0.11721242E+04</pdfrwt>
<pdfrwt beam="2">  1       -2 0.40081585E-01 0.11721242E+04</pdfrwt>
<totfact> 0.93857945E+01</totfact>
</mgrwt>
</event>
<event>
 6    1  0.2047711E-005  0.1456308E+04  0.7818608E-02  0.8914039E-01
         -2   -1    0    0    0  501 -0.00000000000E+00  0.00000000000E+00  0.27512363630E+03  0.27512363630E+03  0.00000000000E+00 0.  1.
          2   -1    0    0  501    0  0.00000000000E+00 -0.00000000000E+00 -0.19271639523E+04  0.19271639523E+04  0.00000000000E+00 0. -1.
         23    2    1    2    0    0 -0.44945727277E+02 -0.49813704652E+03 -0.16232666865E+04  0.17013000066E+04  0.96261838699E+02 0.  0.
         11    1    3    3    0    0 -0.46119523531E+02 -0.43294945030E+03 -0.12836383549E+04  0.13554702738E+04  0.00000000000E+00 0. -1.
        -11    1    3    3    0    0  0.11737962535E+01 -0.65187596217E+02 -0.33962833158E+03  0.34582973283E+03  0.00000000000E+00 0.  1.
         22    1    1    2    0    0  0.44945727277E+02  0.49813704652E+03 -0.28773629491E+02  0.50098758195E+03  0.00000000000E+00 0.  1.
<mgrwt>
<rscale>  0 0.14563081E+04</rscale>
<asrwt>0</asrwt>
<pdfrwt beam="1">  1        2 0.29648676E+00 0.14563081E+04</pdfrwt>
<pdfrwt beam="2">  1       -2 0.42326713E-01 0.14563081E+04</pdfrwt>
<totfact> 0.37623158E+01</totfact>
</mgrwt>
</event>
<event>
 6    1  0.2047711E-005  0.4103306E+04  0.7818608E-02  0.7984025E-01
         -2   -1    0    0    0  501 -0.00000000000E+00  0.00000000000E+00  0.16416513797E+04  0.16416513797E+04  0.00000000000E+00 0.  1.
          2   -1    0    0  501    0  0.00000000000E+00 -0.00000000000E+00 -0.25640518150E+04  0.25640518150E+04  0.00000000000E+00 0. -1.
         23    2    1    2    0    0  0.13084708264E+04 -0.11527176688E+04 -0.15674622383E+04  0.23464133686E+04  0.88678632789E+02 0.  0.
         13    1    3    3    0    0  0.18163111731E+03 -0.13907149526E+03 -0.24090418305E+03  0.33221313788E+03  0.00000000000E+00 0. -1.
        -13    1    3    3    0    0  0.11268397091E+04 -0.10136461736E+04 -0.13265580553E+04  0.20142002307E+04  0.00000000000E+00 0.  1.
         22    1    1    2    0    0 -0.13084708264E+04  0.11527176688E+04  0.64506180301E+03  0.18592898261E+04  0.00000000000E+00 0.  1.
<mgrwt>
<rscale>  0 0.41033056E+04</rscale>
<asrwt>0</asrwt>
<pdfrwt beam="1">  1        2 0.39446951E+00 0.41033056E+04</pdfrwt>
<pdfrwt beam="2">  1       -2 0.25256175E+00 0.41033056E+04</pdfrwt>
<totfact> 0.15487771E-01</totfact>
</mgrwt>
</event>
<event>
 6    1  0.2047711E-005  0.3016738E+04  0.7818608E-02  0.8238967E-01
          2   -1    0    0  501    0  0.00000000000E+00  0.00000000000E+00  0.21700728824E+04  0.21700728824E+04  0.00000000000E+00 0. -1.
         -2   -1    0    0    0  501 -0.00000000000E+00 -0.00000000000E+00 -0.10484333617E+04  0.10484333617E+04  0.00000000000E+00 0.  1.
         23    2    1    2    0    0  0.14889506807E+04  0.46201886005E+02  0.31922828781E+03  0.15264741728E+04  0.95435614809E+02 0.  0.
         13    1    3    3    0    0  0.11291901170E+04  0.24925443839E+02  0.20116997830E+03  0.11472405843E+04  0.00000000000E+00 0. -1.
        -13    1    3    3    0    0  0.35976056367E+03  0.21276442166E+02  0.11805830951E+03  0.37923358845E+03  0.00000000000E+00 0.  1.
         22    1    1    2    0    0 -0.14889506807E+04 -0.46201886005E+02  0.80241123285E+03  0.16920320713E+04  0.00000000000E+00 0.  1.
<mgrwt>
<rscale>  0 0.30167378E+04</rscale>
<asrwt>0</asrwt>
<pdfrwt beam="1">  1        2 0.33385737E+00 0.30167378E+04</pdfrwt>
<pdfrwt beam="2">  1       -2 0.16129744E+00 0.30167378E+04</pdfrwt>
<totfact> 0.11306460E+00</totfact>
</mgrwt>
</event>
<event>
 6    1  0.2047711E-005  0.2727663E+04  0.7818608E-02  0.8326085E-01
          2   -1    0    0  501    0  0.00000000000E+00  0.00000000000E+00  0.14143897796E+04  0.14143897796E+04  0.00000000000E+00 0. -1.
         -2   -1    0    0    0  501 -0.00000000000E+00 -0.00000000000E+00 -0.13150800667E+04  0.13150800667E+04  0.00000000000E+00 0.  1.
         23    2    1    2    0    0 -0.84908918076E+03 -0.63933936961E+03 -0.80296817645E+03  0.13352630267E+04  0.91990171474E+02 0.  0.
         11    1    3    3    0    0 -0.68709768555E+03 -0.48852705879E+03 -0.67171777329E+03  0.10779455847E+04  0.00000000000E+00 0.  1.
        -11    1    3    3    0    0 -0.16199149521E+03 -0.15081231083E+03 -0.13125040316E+03  0.25731744198E+03  0.00000000000E+00 0. -1.
         22    1    1    2    0    0  0.84908918076E+03  0.63933936961E+03  0.90227788928E+03  0.13942068196E+04  0.00000000000E+00 0. -1.
<mgrwt>
<rscale>  0 0.27276626E+04</rscale>
<asrwt>0</asrwt>
<pdfrwt beam="1">  1        2 0.21759843E+00 0.27276626E+04</pdfrwt>
<pdfrwt beam="2">  1       -2 0.20232001E+00 0.27276626E+04</pdfrwt>
<totfact> 0.15962340E+00</totfact>
</mgrwt>
</event>
<event>
 6    1  0.2047711E-005  0.2308582E+04  0.7818608E-02  0.8474545E-01
          2   -1    0    0  501    0  0.00000000000E+00  0.00000000000E+00  0.70517953639E+03  0.70517953639E+03  0.00000000000E+00 0. -1.
         -2   -1    0    0    0  501 -0.00000000000E+00 -0.00000000000E+00 -0.18894312654E+04  0.18894312654E+04  0.00000000000E+00 0.  1.
         23    2    1    2    0    0  0.60152980277E+03  0.61974022210E+03 -0.14507165956E+04  0.16907747705E+04  0.90689784906E+02 0.  0.
         11    1    3    3    0    0  0.61569449246E+02  0.94237110352E+02 -0.14930179658E+03  0.18698250322E+03  0.00000000000E+00 0.  1.
        -11    1    3    3    0    0  0.53996035352E+03  0.52550311174E+03 -0.13014147990E+04  0.15037922672E+04  0.00000000000E+00 0. -1.
         22    1    1    2    0    0 -0.60152980277E+03 -0.61974022210E+03  0.26646486657E+03  0.90383603138E+03  0.00000000000E+00 0. -1.
<mgrwt>
<rscale>  0 0.23085825E+04</rscale>
<asrwt>0</asrwt>
<pdfrwt beam="1">  1        2 0.10848916E+00 0.23085825E+04</pdfrwt>
<pdfrwt beam="2">  1       -2 0.29068174E+00 0.23085825E+04</pdfrwt>
<totfact> 0.13330770E+00</totfact>
</mgrwt>
</event>
<event>
 6    1  0.2047711E-005  0.1754178E+04  0.7818608E-02  0.8731054E-01
          1   -1    0    0  501    0  0.00000000000E+00  0.00000000000E+00  0.57084209639E+03  0.57084209639E+03  0.00000000000E+00 0. -1.
         -1   -1    0    0    0  501 -0.00000000000E+00 -0.00000000000E+00 -0.13476315208E+04  0.13476315208E+04  0.00000000000E+00 0.  1.
         23    2    1    2    0    0  0.13592000765E+02 -0.24294658608E+03 -0.13083414552E+04  0.13338751673E+04  0.90872505923E+02 0.  0.
         11    1    3    3    0    0  0.21948118246E+02 -0.62239328632E+01 -0.10721119321E+03  0.10961157413E+03  0.00000000000E+00 0. -1.
        -11    1    3    3    0    0 -0.83561174809E+01 -0.23672265321E+03 -0.12011302620E+04  0.12242635931E+04  0.00000000000E+00 0.  1.
         22    1    1    2    0    0 -0.13592000765E+02  0.24294658608E+03  0.53155203080E+03  0.58459844989E+03  0.00000000000E+00 0. -1.
<mgrwt>
<rscale>  0 0.17541776E+04</rscale>
<asrwt>0</asrwt>
<pdfrwt beam="1">  1        1 0.87821861E-01 0.17541776E+04</pdfrwt>
<pdfrwt beam="2">  1       -1 0.20732793E+00 0.17541776E+04</pdfrwt>
<totfact> 0.46713691E+00</totfact>
</mgrwt>
</event>
<event>
 6    1  0.2047711E-005  0.3138064E+04  0.7818608E-02  0.8205369E-01
          2   -1    0    0  501    0  0.00000000000E+00  0.00000000000E+00  0.10494687149E+04  0.10494687149E+04  0.00000000000E+00 0. -1.
         -2   -1    0    0    0  501 -0.00000000000E+00 -0.00000000000E+00 -0.23458166337E+04  0.23458166337E+04  0.00000000000E+00 0.  1.
         23    2    1    2    0    0  0.10628982545E+04  0.11453530157E+04 -0.51188436248E+03  0.16468662623E+04  0.92502192301E+02 0.  0.
         11    1    3    3    0    0  0.39592950165E+03  0.47625609482E+03 -0.23447326723E+03  0.66223692978E+03  0.00000000000E+00 0.  1.
        -11    1    3    3    0    0  0.66696875281E+03  0.66909692088E+03 -0.27741109525E+03  0.98462933256E+03  0.00000000000E+00 0. -1.
         22    1    1    2    0    0 -0.10628982545E+04 -0.11453530157E+04 -0.78446355632E+03  0.17484190862E+04  0.00000000000E+00 0.  1.
<mgrwt>
<rscale>  0 0.31380638E+04</rscale>
<asrwt>0</asrwt>
<pdfrwt beam="1">  1        2 0.16145673E+00 0.31380638E+04</pdfrwt>
<pdfrwt beam="2">  1       -2 0.36089486E+00 0.31380638E+04</pdfrwt>
<totfact> 0.26303865E-01</totfact>
</mgrwt>
</event>
<event>
 6    1  0.2562714E-005  0.3089382E+04  0.7818608E-02  0.8218658E-01
         -2   -1    0    0    0  501 -0.00000000000E+00  0.00000000000E+00  0.20167342629E+04  0.20167342629E+04  0.00000000000E+00 0.  1.
          2   -1    0    0  501    0  0.00000000000E+00 -0.00000000000E+00 -0.11831354927E+04  0.11831354927E+04  0.00000000000E+00 0. -1.
         23    2    1    2    0    0 -0.14113424820E+04  0.44540928583E+03 -0.36177155667E+02  0.14832488905E+04  0.91877370519E+02 0.  0.
         13    1    3    3    0    0 -0.74528941798E+03  0.19038270654E+03 -0.20322027267E+01  0.76922429846E+03  0.00000000000E+00 0.  1.
        -13    1    3    3    0    0 -0.66605306398E+03  0.25502657929E+03 -0.34144952940E+02  0.71402459201E+03  0.00000000000E+00 0. -1.
         22    1    1    2    0    0  0.14113424820E+04 -0.44540928583E+03  0.86977592584E+03  0.17166208651E+04  0.00000000000E+00 0.  1.
<mgrwt>
<rscale>  0 0.30893817E+04</rscale>
<asrwt>0</asrwt>
<pdfrwt beam="1">  1        2 0.18202085E+00 0.30893817E+04</pdfrwt>
<pdfrwt beam="2">  1       -2 0.31026681E+00 0.30893817E+04</pdfrwt>
<totfact> 0.45284697E-01</totfact>
</mgrwt>
</event>
<event>
 6    1  0.2047711E-005  0.1402860E+04  0.7818608E-02  0.8951751E-01
         -2   -1    0    0    0  501 -0.00000000000E+00  0.00000000000E+00  0.16791368610E+03  0.16791368610E+03  0.00000000000E+00 0.  1.
          2   -1    0    0  501    0  0.00000000000E+00 -0.00000000000E+00 -0.29301026133E+04  0.29301026133E+04  0.00000000000E+00 0. -1.
         23    2    1    2    0    0  0.48012046266E+03  0.31489643985E+03 -0.50844561718E+03  0.77228322488E+03  0.90713876035E+02 0.  0.
         11    1    3    3    0    0  0.21133492703E+03  0.10557806422E+03 -0.16234871111E+03  0.28664661697E+03  0.00000000000E+00 0. -1.
        -11    1    3    3    0    0  0.26878553563E+03  0.20931837563E+03 -0.34609690608E+03  0.48563660790E+03  0.00000000000E+00 0.  1.
         22    1    1    2    0    0 -0.48012046266E+03 -0.31489643985E+03 -0.22537433101E+04  0.23257330746E+04  0.00000000000E+00 0. -1.
<mgrwt>
<rscale>  0 0.14028604E+04</rscale>
<asrwt>0</asrwt>
<pdfrwt beam="1">  1        2 0.45078503E+00 0.14028604E+04</pdfrwt>
<pdfrwt beam="2">  1       -2 0.25832874E-01 0.14028604E+04</pdfrwt>
<totfact> 0.25523809E+01</totfact>
</mgrwt>
</event>
<event>
 6    1  0.2047711E-005  0.1826458E+04  0.7818608E-02  0.8692355E-01
          4   -1    0    0  501    0  0.00000000000E+00  0.00000000000E+00  0.15079064227E+04  0.15079064227E+04  0.00000000000E+00 0. -1.
         -4   -1    0    0    0  501 -0.00000000000E+00 -0.00000000000E+00 -0.55307628497E+03  0.55307628497E+03  0.00000000000E+00 0.  1.
         23    2    1    2    0    0  0.14340329343E+02 -0.45620023041E+03  0.13681575348E+04  0.14452199023E+04  0.92093598390E+02 0.  0.
         11    1    3    3    0    0  0.22281924043E+02 -0.35697136141E+03  0.11702484336E+04  0.12236855942E+04  0.00000000000E+00 0. -1.
        -11    1    3    3    0    0 -0.79415946994E+01 -0.99228869006E+02  0.19790910115E+03  0.22153430815E+03  0.00000000000E+00 0.  1.
         22    1    1    2    0    0 -0.14340329343E+02  0.45620023041E+03 -0.41332739705E+03  0.61576280533E+03  0.00000000000E+00 0.  1.
<mgrwt>
<rscale>  0 0.18264581E+04</rscale>
<asrwt>0</asrwt>
<pdfrwt beam="1">  1        4 0.23198560E+00 0.18264581E+04</pdfrwt>
<pdfrwt beam="2">  1       -4 0.85088660E-01 0.18264581E+04</pdfrwt>
<totfact> 0.18605941E-01</totfact>
</mgrwt>
</event>
<event>
 6    1  0.2047711E-005  0.1137172E+04  0.7818608E-02  0.9169700E-01
         -2   -1    0    0    0  501 -0.00000000000E+00  0.00000000000E+00  0.17498534799E+04  0.17498534799E+04  0.00000000000E+00 0.  1.
          2   -1    0    0  501    0  0.00000000000E+00 -0.00000000000E+00 -0.18475277812E+03  0.18475277812E+03  0.00000000000E+00 0. -1.
         23    2    1    2    0    0  0.22826434519E+03  0.27309353443E+03  0.15323208844E+04  0.15771720595E+04  0.11304743553E+03 0.  0.
         11    1    3    3    0    0  0.18382949294E+03  0.13436023190E+03  0.94998673085E+03  0.97689341444E+03  0.00000000000E+00 0.  1.
        -11    1    3    3    0    0  0.44434852250E+02  0.13873330253E+03  0.58233415354E+03  0.60027864505E+03  0.00000000000E+00 0. -1.
         22    1    1    2    0    0 -0.22826434519E+03 -0.27309353443E+03  0.32779817368E+02  0.35743419850E+03  0.00000000000E+00 0. -1.
<mgrwt>
<rscale>  0 0.11371724E+04</rscale>
<asrwt>0</asrwt>
<pdfrwt beam="1">  1        2 0.28423506E-01 0.11371724E+04</pdfrwt>
<pdfrwt beam="2">  1       -2 0.26920822E+00 0.11371724E+04</pdfrwt>
<totfact> 0.92491115E+00</totfact>
</mgrwt>
</event>
<event>
 6    1  0.2047711E-005  0.3746082E+04  0.7818608E-02  0.8057826E-01
          1   -1    0    0  501    0  0.00000000000E+00  0.00000000000E+00  0.24973435267E+04  0.24973435267E+04  0.00000000000E+00 0. -1.
         -1   -1    0    0    0  501 -0.00000000000E+00 -0.00000000000E+00 -0.14048057411E+04  0.14048057411E+04  0.00000000000E+00 0.  1.
         23    2    1    2    0    0  0.11786573980E+04 -0.96243438132E+02 -0.96495441297E+03  0.15290141667E+04  0.90836345986E+02 0.  0.
         13    1    3    3    0    0  0.34445801398E+03 -0.55775959544E+02 -0.32486081297E+03  0.47675657191E+03  0.00000000000E+00 0. -1.
        -13    1    3    3    0    0  0.83419938398E+03 -0.40467478588E+02 -0.64009360000E+03  0.10522575948E+04  0.00000000000E+00 0.  1.
         22    1    1    2    0    0 -0.11786573980E+04  0.96243438132E+02  0.20574921985E+04  0.23731351011E+04  0.00000000000E+00 0. -1.
<mgrwt>
<rscale>  0 0.37460820E+04</rscale>
<asrwt>0</asrwt>
<pdfrwt beam="1">  1        1 0.38420670E+00 0.37460820E+04</pdfrwt>
<pdfrwt beam="2">  1       -1 0.21612396E+00 0.37460820E+04</pdfrwt>
<totfact> 0.12706016E-01</totfact>
</mgrwt>
</event>
<event>
 6    1  0.2047711E-005  0.6154978E+03  0.7818608E-02  0.9873765E-01
         -1   -1    0    0    0  501 -0.00000000000E+00  0.00000000000E+00  0.17338585224E+03  0.17338585224E+03  0.00000000000E+00 0.  1.
          1   -1    0    0  501    0  0.00000000000E+00 -0.00000000000E+00 -0.54623470880E+03  0.54623470880E+03  0.00000000000E+00 0. -1.
         23    2    1    2    0    0 -0.80062902599E+02 -0.22759575835E+03  0.18039521713E+02  0.26026925554E+03  0.95941458433E+02 0.  0.
         11    1    3    3    0    0 -0.24823818877E+02 -0.19268775972E+03  0.14846064740E+02  0.19484660727E+03  0.00000000000E+00 0. -1.
        -11    1    3    3    0    0 -0.55239083722E+02 -0.34907998631E+02  0.31934569724E+01  0.65422648267E+02  0.00000000000E+00 0.  1.
         22    1    1    2    0    0  0.80062902599E+02  0.22759575835E+03 -0.39088837827E+03  0.45935130549E+03  0.00000000000E+00 0. -1.
<mgrwt>
<rscale>  0 0.61549775E+03</rscale>
<asrwt>0</asrwt>
<pdfrwt beam="1">  1        1 0.84036109E-01 0.61549775E+03</pdfrwt>
<pdfrwt beam="2">  1       -1 0.26674746E-01 0.61549775E+03</pdfrwt>
<totfact> 0.49566780E+02</totfact>
</mgrwt>
</event>
<event>
 6    1  0.2047711E-005  0.3441703E+04  0.7818608E-02  0.8127746E-01
          2   -1    0    0  501    0  0.00000000000E+00  0.00000000000E+00  0.16172054377E+04  0.16172054377E+04  0.00000000000E+00 0. -1.
         -2   -1    0    0    0  501 -0.00000000000E+00 -0.00000000000E+00 -0.18311400364E+04  0.18311400364E+04  0.00000000000E+00 0.  1.
         23    2    1    2    0    0  0.15506375213E+04  0.30302078741E+03  0.57361685560E+03  0.16829742345E+04  0.84069357541E+02 0.  0.
         13    1    3    3    0    0  0.14327640449E+04  0.29652363856E+03  0.51453479459E+03  0.15509626467E+04  0.00000000000E+00 0.  1.
        -13    1    3    3    0    0  0.11787347644E+03  0.64971488509E+01  0.59082061012E+02  0.13201158784E+03  0.00000000000E+00 0. -1.
         22    1    1    2    0    0 -0.15506375213E+04 -0.30302078741E+03 -0.78755145428E+03  0.17653712395E+04  0.00000000000E+00 0. -1.
<mgrwt>
<rscale>  0 0.34417028E+04</rscale>
<asrwt>0</asrwt>
<pdfrwt beam="1">  1        2 0.24880084E+00 0.34417028E+04</pdfrwt>
<pdfrwt beam="2">  1       -2 0.28171385E+00 0.34417028E+04</pdfrwt>
<totfact> 0.37021011E-01</totfact>
</mgrwt>
</event>
<event>
 6    1  0.2047711E-005  0.2103511E+04  0.7818608E-02  0.8559698E-01
         -1   -1    0    0    0  501 -0.00000000000E+00  0.00000000000E+00  0.35575878480E+03  0.35575878480E+03  0.00000000000E+00 0.  1.
          1   -1    0    0  501    0  0.00000000000E+00 -0.00000000000E+00 -0.31093818944E+04  0.31093818944E+04  0.00000000000E+00 0. -1.
         23    2    1    2    0    0 -0.62894008548E+03 -0.70557835290E+03 -0.62707170561E+03  0.11379906374E+04  0.91636912010E+02 0.  0.
         11    1    3    3    0    0 -0.25933568236E+03 -0.29790611530E+03 -0.31637787680E+03  0.50606127160E+03  0.00000000000E+00 0. -1.
        -11    1    3    3    0    0 -0.36960440312E+03 -0.40767223760E+03 -0.31069382880E+03  0.63192936580E+03  0.00000000000E+00 0.  1.
         22    1    1    2    0    0  0.62894008548E+03  0.70557835290E+03 -0.21265514040E+04  0.23271500418E+04  0.00000000000E+00 0. -1.
<mgrwt>
<rscale>  0 0.21035113E+04</rscale>
<asrwt>0</asrwt>
<pdfrwt beam="1">  1        1 0.47836646E+00 0.21035113E+04</pdfrwt>
<pdfrwt beam="2">  1       -1 0.54732119E-01 0.21035113E+04</pdfrwt>
<totfact> 0.15428295E+00</totfact>
</mgrwt>
</event>
<event>
 6    1  0.2047711E-005  0.2517866E+04  0.7818608E-02  0.8396648E-01
         -2   -1    0    0    0  501 -0.00000000000E+00  0.00000000000E+00  0.78953161525E+03  0.78953161525E+03  0.00000000000E+00 0.  1.
          2   -1    0    0  501    0  0.00000000000E+00 -0.00000000000E+00 -0.20074087511E+04  0.20074087511E+04  0.00000000000E+00 0. -1.
         23    2    1    2    0    0 -0.87171136350E+03  0.89674036625E+03 -0.46733678304E+03  0.13384017803E+04  0.94295657960E+02 0.  0.
         13    1    3    3    0    0 -0.35433901684E+03  0.36374033696E+03 -0.23942756595E+03  0.56141671771E+03  0.00000000000E+00 0. -1.
        -13    1    3    3    0    0 -0.51737234666E+03  0.53300002929E+03 -0.22790921709E+03  0.77698506263E+03  0.00000000000E+00 0.  1.
         22    1    1    2    0    0  0.87171136350E+03 -0.89674036625E+03 -0.75054035285E+03  0.14585385860E+04  0.00000000000E+00 0.  1.
<mgrwt>
<rscale>  0 0.25178663E+04</rscale>
<asrwt>0</asrwt>
<pdfrwt beam="1">  1        2 0.30883211E+00 0.25178663E+04</pdfrwt>
<pdfrwt beam="2">  1       -2 0.12146640E+00 0.25178663E+04</pdfrwt>
<totfact> 0.30363605E+00</totfact>
</mgrwt>
</event>
<event>
 6    1  0.2047711E-005  0.2870372E+04  0.7818608E-02  0.8281748E-01
         -2   -1    0    0    0  501 -0.00000000000E+00  0.00000000000E+00  0.20726870002E+04  0.20726870002E+04  0.00000000000E+00 0.  1.
          2   -1    0    0  501    0  0.00000000000E+00 -0.00000000000E+00 -0.99376244027E+03  0.99376244027E+03  0.00000000000E+00 0. -1.
         23    2    1    2    0    0 -0.43242160077E+03  0.59465109881E+03 -0.77460227971E+03  0.10724183185E+04  0.97334413190E+02 0.  0.
         13    1    3    3    0    0 -0.31258147876E+03  0.35036819962E+03 -0.48528141744E+03  0.67525040561E+03  0.00000000000E+00 0.  1.
        -13    1    3    3    0    0 -0.11984012200E+03  0.24428289920E+03 -0.28932086227E+03  0.39716791288E+03  0.00000000000E+00 0. -1.
         22    1    1    2    0    0  0.43242160077E+03 -0.59465109881E+03  0.18535268397E+04  0.19940311220E+04  0.00000000000E+00 0.  1.
<mgrwt>
<rscale>  0 0.28703717E+04</rscale>
<asrwt>0</asrwt>
<pdfrwt beam="1">  1        2 0.15288653E+00 0.28703717E+04</pdfrwt>
<pdfrwt beam="2">  1       -2 0.31887492E+00 0.28703717E+04</pdfrwt>
<totfact> 0.53511264E-01</totfact>
</mgrwt>
</event>
<event>
 6    1  0.2047711E-005  0.2191564E+04  0.7818608E-02  0.8521947E-01
          2   -1    0    0  501    0  0.00000000000E+00  0.00000000000E+00  0.45160744020E+04  0.45160744020E+04  0.00000000000E+00 0. -1.
         -2   -1    0    0    0  501 -0.00000000000E+00 -0.00000000000E+00 -0.26588105833E+03  0.26588105833E+03  0.00000000000E+00 0.  1.
         23    2    1    2    0    0  0.37374850904E+02  0.50641978585E+03  0.42428719003E+04  0.42741055982E+04  0.90326205489E+02 0.  0.
         13    1    3    3    0    0  0.21568841071E+02  0.21974167839E+03  0.22213322545E+04  0.22322787919E+04  0.00000000000E+00 0. -1.
        -13    1    3    3    0    0  0.15806009833E+02  0.28667810746E+03  0.20215396458E+04  0.20418268063E+04  0.00000000000E+00 0.  1.
         22    1    1    2    0    0 -0.37374850904E+02 -0.50641978585E+03  0.73214434285E+01  0.50784986218E+03  0.00000000000E+00 0.  1.
<mgrwt>
<rscale>  0 0.21915644E+04</rscale>
<asrwt>0</asrwt>
<pdfrwt beam="1">  1        2 0.69478062E+00 0.21915644E+04</pdfrwt>
<pdfrwt beam="2">  1       -2 0.40904781E-01 0.21915644E+04</pdfrwt>
<totfact> 0.62182125E-01</totfact>
</mgrwt>
</event>
<event>
 6    1  0.2047711E-005  0.3439451E+04  0.7818608E-02  0.8128291E-01
         -2   -1    0    0    0  501 -0.00000000000E+00  0.00000000000E+00  0.67848810978E+03  0.67848810978E+03  0.00000000000E+00 0.  1.
          2   -1    0    0  501    0  0.00000000000E+00 -0.00000000000E+00 -0.43588919577E+04  0.43588919577E+04  0.00000000000E+00 0. -1.
         23    2    1    2    0    0  0.14203702814E+04  0.51860980798E+03 -0.64556699032E+03  0.16467101305E+04  0.92139273500E+02 0.  0.
         13    1    3    3    0    0  0.10059533961E+04  0.32301980262E+03 -0.45869950633E+03  0.11518199795E+04  0.00000000000E+00 0.  1.
        -13    1    3    3    0    0  0.41441688525E+03  0.19559000536E+03 -0.18686748399E+03  0.49489015100E+03  0.00000000000E+00 0. -1.
         22    1    1    2    0    0 -0.14203702814E+04 -0.51860980798E+03 -0.30348368576E+04  0.33906699370E+04  0.00000000000E+00 0. -1.
<mgrwt>
<rscale>  0 0.34394513E+04</rscale>
<asrwt>0</asrwt>
<pdfrwt beam="1">  1        2 0.67059875E+00 0.34394513E+04</pdfrwt>
<pdfrwt beam="2">  1       -2 0.10438279E+00 0.34394513E+04</pdfrwt>
<totfact> 0.10280339E-01</totfact>
</mgrwt>
</event>
<event>
 6    1  0.2047711E-005  0.2440802E+04  0.7818608E-02  0.8424384E-01
          2   -1    0    0  501    0  0.00000000000E+00  0.00000000000E+00  0.97537724312E+03  0.97537724312E+03  0.00000000000E+00 0.  1.
         -2   -1    0    0    0  501 -0.00000000000E+00 -0.00000000000E+00 -0.15269773107E+04  0.15269773107E+04  0.00000000000E+00 0. -1.
         23    2    1    2    0    0  0.20292265090E+02 -0.10685632088E+04 -0.87662874881E+03  0.13852678289E+04  0.90828890652E+02 0.  0.
         13    1    3    3    0    0 -0.14965700797E+02 -0.26973599279E+03 -0.17862836397E+03  0.32386659356E+03  0.00000000000E+00 0. -1.
        -13    1    3    3    0    0  0.35257965887E+02 -0.79882721601E+03 -0.69800038483E+03  0.10614012354E+04  0.00000000000E+00 0.  1.
         22    1    1    2    0    0 -0.20292265090E+02  0.10685632088E+04  0.32502868127E+03  0.11170867249E+04  0.00000000000E+00 0.  1.
<mgrwt>
<rscale>  0 0.24408023E+04</rscale>
<asrwt>0</asrwt>
<pdfrwt beam="1">  1        2 0.15005804E+00 0.24408023E+04</pdfrwt>
<pdfrwt beam="2">  1       -2 0.23491958E+00 0.24408023E+04</pdfrwt>
<totfact> 0.18651584E+00</totfact>
</mgrwt>
</event>
<event>
 6    1  0.2047711E-005  0.1474472E+04  0.7818608E-02  0.8901608E-01
          1   -1    0    0  501    0  0.00000000000E+00  0.00000000000E+00  0.15883749300E+04  0.15883749300E+04  0.00000000000E+00 0. -1.
         -1   -1    0    0    0  501 -0.00000000000E+00 -0.00000000000E+00 -0.34218425446E+03  0.34218425446E+03  0.00000000000E+00 0.  1.
         23    2    1    2    0    0 -0.30117541028E+03 -0.44801822225E+03 -0.26722550457E+02  0.54790411680E+03  0.89765646418E+02 0.  0.
         11    1    3    3    0    0 -0.30259381747E+02 -0.16151888396E+02 -0.16332750284E+02  0.37990425298E+02  0.00000000000E+00 0. -1.
        -11    1    3    3    0    0 -0.27091602853E+03 -0.43186633385E+03 -0.10389800173E+02  0.50991369150E+03  0.00000000000E+00 0.  1.
         22    1    1    2    0    0  0.30117541028E+03  0.44801822225E+03  0.12729132260E+04  0.13826550676E+04  0.00000000000E+00 0. -1.
<mgrwt>
<rscale>  0 0.14744720E+04</rscale>
<asrwt>0</asrwt>
<pdfrwt beam="1">  1        1 0.24436537E+00 0.14744720E+04</pdfrwt>
<pdfrwt beam="2">  1       -1 0.52643732E-01 0.14744720E+04</pdfrwt>
<totfact> 0.20034755E+01</totfact>
</mgrwt>
</event>
<event>
 6    1  0.2047711E-005  0.4648539E+03  0.7818608E-02  0.1023383E+00
         -2   -1    0    0    0  501 -0.00000000000E+00  0.00000000000E+00  0.64981943813E+03  0.64981943813E+03  0.00000000000E+00 0. -1.
          2   -1    0    0  501    0  0.00000000000E+00 -0.00000000000E+00 -0.83134317663E+02  0.83134317663E+02  0.00000000000E+00 0.  1.
         23    2    1    2    0    0 -0.91828216386E+02  0.13849647149E+03  0.52998403454E+03  0.56277542683E+03  0.90660963141E+02 0.  0.
         11    1    3    3    0    0 -0.86383293196E+02  0.54878087281E+02  0.34147314453E+03  0.35647943312E+03  0.00000000000E+00 0. -1.
        -11    1    3    3    0    0 -0.54449231906E+01  0.83618384209E+02  0.18851089002E+03  0.20629599371E+03  0.00000000000E+00 0.  1.
         22    1    1    2    0    0  0.91828216386E+02 -0.13849647149E+03  0.36701085927E+02  0.17017832896E+03  0.00000000000E+00 0.  1.
<mgrwt>
<rscale>  0 0.46485394E+03</rscale>
<asrwt>0</asrwt>
<pdfrwt beam="1">  1        2 0.12789895E-01 0.46485394E+03</pdfrwt>
<pdfrwt beam="2">  1       -2 0.99972218E-01 0.46485394E+03</pdfrwt>
<totfact> 0.40731238E+02</totfact>
</mgrwt>
</event>
<event>
 6    1  0.2047711E-005  0.2208116E+04  0.7818608E-02  0.8515058E-01
         -2   -1    0    0    0  501 -0.00000000000E+00  0.00000000000E+00  0.64980682359E+03  0.64980682359E+03  0.00000000000E+00 0.  1.
          2   -1    0    0  501    0  0.00000000000E+00 -0.00000000000E+00 -0.18758563772E+04  0.18758563772E+04  0.00000000000E+00 0. -1.
         23    2    1    2    0    0 -0.66092592289E+03 -0.68980845168E+03  0.14139351534E+02  0.96018330759E+03  0.95358729876E+02 0.  0.
         11    1    3    3    0    0 -0.26337599198E+03 -0.33408030994E+03 -0.17543404956E+02  0.42577498482E+03  0.00000000000E+00 0.  1.
        -11    1    3    3    0    0 -0.39754993090E+03 -0.35572814174E+03  0.31682756490E+02  0.53440832277E+03  0.00000000000E+00 0. -1.
         22    1    1    2    0    0  0.66092592289E+03  0.68980845168E+03 -0.12401889051E+04  0.15654798932E+04  0.00000000000E+00 0. -1.
<mgrwt>
<rscale>  0 0.22081162E+04</rscale>
<asrwt>0</asrwt>
<pdfrwt beam="1">  1        2 0.28859328E+00 0.22081162E+04</pdfrwt>
<pdfrwt beam="2">  1       -2 0.99970283E-01 0.22081162E+04</pdfrwt>
<totfact> 0.59129580E+00</totfact>
</mgrwt>
</event>
<event>
 6    1  0.2047711E-005  0.1995442E+04  0.7818608E-02  0.8608755E-01
         -2   -1    0    0    0  501 -0.00000000000E+00  0.00000000000E+00  0.11336999964E+04  0.11336999964E+04  0.00000000000E+00 0.  1.
          2   -1    0    0  501    0  0.00000000000E+00 -0.00000000000E+00 -0.87805168660E+03  0.87805168660E+03  0.00000000000E+00 0. -1.
         23    2    1    2    0    0 -0.37338995284E+03 -0.19461070522E+03  0.10375797871E+04  0.11236580964E+04  0.93500371586E+02 0.  0.
         11    1    3    3    0    0 -0.15824684945E+03 -0.10676794222E+03  0.57726838942E+03  0.60801336521E+03  0.00000000000E+00 0. -1.
        -11    1    3    3    0    0 -0.21514310340E+03 -0.87842763004E+02  0.46031139767E+03  0.51564473116E+03  0.00000000000E+00 0.  1.
         22    1    1    2    0    0  0.37338995284E+03  0.19461070522E+03 -0.78193147728E+03  0.88809358664E+03  0.00000000000E+00 0. -1.
<mgrwt>
<rscale>  0 0.19954420E+04</rscale>
<asrwt>0</asrwt>
<pdfrwt beam="1">  1        2 0.13508487E+00 0.19954420E+04</pdfrwt>
<pdfrwt beam="2">  1       -2 0.17441539E+00 0.19954420E+04</pdfrwt>
<totfact> 0.55927536E+00</totfact>
</mgrwt>
</event>
<event>
 6    1  0.2047711E-005  0.1120193E+04  0.7818608E-02  0.9185731E-01
          2   -1    0    0  501    0  0.00000000000E+00  0.00000000000E+00  0.14706683620E+04  0.14706683620E+04  0.00000000000E+00 0.  1.
         -2   -1    0    0    0  501 -0.00000000000E+00 -0.00000000000E+00 -0.21330997565E+03  0.21330997565E+03  0.00000000000E+00 0. -1.
         23    2    1    2    0    0  0.33100051063E+03 -0.44526867447E+03  0.63364759441E+03  0.84920849961E+03  0.10872107161E+03 0.  0.
         13    1    3    3    0    0  0.27212027078E+03 -0.40140071100E+03  0.59025550176E+03  0.76391984522E+03  0.00000000000E+00 0.  1.
        -13    1    3    3    0    0  0.58880239848E+02 -0.43867963471E+02  0.43392092644E+02  0.85288654390E+02  0.00000000000E+00 0. -1.
         22    1    1    2    0    0 -0.33100051063E+03  0.44526867447E+03  0.62371079189E+03  0.83476983799E+03  0.00000000000E+00 0.  1.
<mgrwt>
<rscale>  0 0.11201933E+04</rscale>
<asrwt>0</asrwt>
<pdfrwt beam="1">  1        2 0.22625666E+00 0.11201933E+04</pdfrwt>
<pdfrwt beam="2">  1       -2 0.32816920E-01 0.11201933E+04</pdfrwt>
<totfact> 0.11318865E+02</totfact>
</mgrwt>
</event>
<event>
 6    1  0.2047711E-005  0.1937795E+04  0.7818608E-02  0.8636269E-01
         -2   -1    0    0    0  501 -0.00000000000E+00  0.00000000000E+00  0.65573821742E+03  0.65573821742E+03  0.00000000000E+00 0.  1.
          2   -1    0    0  501    0  0.00000000000E+00 -0.00000000000E+00 -0.14316113477E+04  0.14316113477E+04  0.00000000000E+00 0. -1.
         23    2    1    2    0    0  0.65588947260E+03  0.74553061077E+02 -0.11498062588E+04  0.13286828769E+04  0.87146976098E+02 0.  0.
         11    1    3    3    0    0  0.47347889363E+03  0.47895700621E+02 -0.90179732199E+03  0.10196639990E+04  0.00000000000E+00 0. -1.
        -11    1    3    3    0    0  0.18241057897E+03  0.26657360456E+02 -0.24800893682E+03  0.30901887795E+03  0.00000000000E+00 0.  1.
         22    1    1    2    0    0 -0.65588947260E+03 -0.74553061077E+02  0.37393312852E+03  0.75866668820E+03  0.00000000000E+00 0.  1.
<mgrwt>
<rscale>  0 0.19377949E+04</rscale>
<asrwt>0</asrwt>
<pdfrwt beam="1">  1        2 0.22024790E+00 0.19377949E+04</pdfrwt>
<pdfrwt beam="2">  1       -2 0.10088280E+00 0.19377949E+04</pdfrwt>
<totfact> 0.10485738E+01</totfact>
</mgrwt>
</event>
<event>
 6    1  0.2047711E-005  0.5163898E+04  0.7818608E-02  0.7803710E-01
          2   -1    0    0  501    0  0.00000000000E+00  0.00000000000E+00  0.36756278545E+04  0.36756278545E+04  0.00000000000E+00 0. -1.
         -2   -1    0    0    0  501 -0.00000000000E+00 -0.00000000000E+00 -0.18136928030E+04  0.18136928030E+04  0.00000000000E+00 0.  1.
         23    2    1    2    0    0 -0.23502846347E+04  0.10197060753E+04  0.59748438673E+03  0.26323163124E+04  0.91995826287E+02 0.  0.
         13    1    3    3    0    0 -0.17060175803E+04  0.75896535947E+03  0.47336194948E+03  0.19262907196E+04  0.00000000000E+00 0. -1.
        -13    1    3    3    0    0 -0.64426705443E+03  0.26074071581E+03  0.12412243725E+03  0.70602559284E+03  0.00000000000E+00 0.  1.
         22    1    1    2    0    0  0.23502846347E+04 -0.10197060753E+04  0.12644506647E+04  0.28570043451E+04  0.00000000000E+00 0. -1.
<mgrwt>
<rscale>  0 0.51638977E+04</rscale>
<asrwt>0</asrwt>
<pdfrwt beam="1">  1        2 0.56548121E+00 0.51638977E+04</pdfrwt>
<pdfrwt beam="2">  1       -2 0.27902966E+00 0.51638977E+04</pdfrwt>
<totfact> 0.18610441E-02</totfact>
</mgrwt>
</event>
<event>
 6    1  0.3090859E-005  0.3499669E+04  0.7818608E-02  0.8113868E-01
         -2   -1    0    0    0  501 -0.00000000000E+00  0.00000000000E+00  0.18433135139E+04  0.18433135139E+04  0.00000000000E+00 0.  1.
          2   -1    0    0  501    0  0.00000000000E+00 -0.00000000000E+00 -0.16610963656E+04  0.16610963656E+04  0.00000000000E+00 0. -1.
         23    2    1    2    0    0  0.77126629045E+03 -0.13823605092E+04 -0.65241042165E+03  0.17148916625E+04  0.97168861772E+02 0.  0.
         11    1    3    3    0    0  0.25912836272E+03 -0.39394900427E+03 -0.22477974930E+03  0.52236889458E+03  0.00000000000E+00 0. -1.
        -11    1    3    3    0    0  0.51213792773E+03 -0.98841150494E+03 -0.42763067235E+03  0.11925227679E+04  0.00000000000E+00 0.  1.
         22    1    1    2    0    0 -0.77126629045E+03  0.13823605092E+04  0.83462757003E+03  0.17895182170E+04  0.00000000000E+00 0.  1.
<mgrwt>
<rscale>  0 0.34996693E+04</rscale>
<asrwt>0</asrwt>
<pdfrwt beam="1">  1        2 0.25555329E+00 0.34996693E+04</pdfrwt>
<pdfrwt beam="2">  1       -2 0.28358670E+00 0.34996693E+04</pdfrwt>
<totfact> 0.33920454E-01</totfact>
</mgrwt>
</event>
<event>
 6    1  0.2047711E-005  0.2125782E+04  0.7818608E-02  0.8549970E-01
         -2   -1    0    0    0  501 -0.00000000000E+00  0.00000000000E+00  0.90163376114E+03  0.90163376114E+03  0.00000000000E+00 0.  1.
          2   -1    0    0  501    0  0.00000000000E+00 -0.00000000000E+00 -0.12529893276E+04  0.12529893276E+04  0.00000000000E+00 0. -1.
         23    2    1    2    0    0  0.57035570429E+03  0.85605014178E+03  0.87137787868E+02  0.10364084866E+04  0.91771904007E+02 0.  0.
         13    1    3    3    0    0  0.29997150879E+03  0.52929481587E+03  0.62153442760E+02  0.61155454265E+03  0.00000000000E+00 0.  1.
        -13    1    3    3    0    0  0.27038419550E+03  0.32675532590E+03  0.24984345108E+02  0.42485394394E+03  0.00000000000E+00 0. -1.
         22    1    1    2    0    0 -0.57035570429E+03 -0.85605014178E+03 -0.43849335433E+03  0.11182146021E+04  0.00000000000E+00 0. -1.
<mgrwt>
<rscale>  0 0.21257822E+04</rscale>
<asrwt>0</asrwt>
<pdfrwt beam="1">  1        2 0.19276759E+00 0.21257822E+04</pdfrwt>
<pdfrwt beam="2">  1       -2 0.13871289E+00 0.21257822E+04</pdfrwt>
<totfact> 0.59604638E+00</totfact>
</mgrwt>
</event>
<event>
 6    1  0.2171652E-005  0.3745617E+04  0.7818608E-02  0.8057927E-01
         -2   -1    0    0    0  501 -0.00000000000E+00  0.00000000000E+00  0.15086995177E+04  0.15086995177E+04  0.00000000000E+00 0.  1.
          2   -1    0    0  501    0  0.00000000000E+00 -0.00000000000E+00 -0.23247910394E+04  0.23247910394E+04  0.00000000000E+00 0. -1.
         23    2    1    2    0    0  0.56794091114E+03  0.22252107873E+03 -0.22193355064E+04  0.23034035695E+04  0.90251899759E+02 0.  0.
         13    1    3    3    0    0  0.19186848453E+03  0.93239724949E+02 -0.92898882066E+03  0.95316703184E+03  0.00000000000E+00 0. -1.
        -13    1    3    3    0    0  0.37607242661E+03  0.12928135378E+03 -0.12903466857E+04  0.13502365377E+04  0.00000000000E+00 0.  1.
         22    1    1    2    0    0 -0.56794091114E+03 -0.22252107873E+03  0.14032439846E+04  0.15300869875E+04  0.00000000000E+00 0.  1.
<mgrwt>
<rscale>  0 0.37456167E+04</rscale>
<asrwt>0</asrwt>
<pdfrwt beam="1">  1        2 0.35766016E+00 0.37456167E+04</pdfrwt>
<pdfrwt beam="2">  1       -2 0.23210762E+00 0.37456167E+04</pdfrwt>
<totfact> 0.29318922E-01</totfact>
</mgrwt>
</event>
<event>
 6    1  0.2047711E-005  0.2398122E+04  0.7818608E-02  0.8440207E-01
          2   -1    0    0  501    0  0.00000000000E+00  0.00000000000E+00  0.12699792073E+04  0.12699792073E+04  0.00000000000E+00 0. -1.
         -2   -1    0    0    0  501 -0.00000000000E+00 -0.00000000000E+00 -0.11321029566E+04  0.11321029566E+04  0.00000000000E+00 0.  1.
         23    2    1    2    0    0 -0.88119305230E+03 -0.23447798670E+03  0.84626746280E+03  0.12473963924E+04  0.91367496575E+02 0.  0.
         13    1    3    3    0    0 -0.23940935288E+03 -0.95034989933E+02  0.27706818791E+03  0.37830578678E+03  0.00000000000E+00 0. -1.
        -13    1    3    3    0    0 -0.64178369942E+03 -0.13944299676E+03  0.56919927488E+03  0.86909060559E+03  0.00000000000E+00 0.  1.
         22    1    1    2    0    0  0.88119305230E+03  0.23447798670E+03 -0.70839121208E+03  0.11546857715E+04  0.00000000000E+00 0.  1.
<mgrwt>
<rscale>  0 0.23981219E+04</rscale>
<asrwt>0</asrwt>
<pdfrwt beam="1">  1        2 0.19538142E+00 0.23981219E+04</pdfrwt>
<pdfrwt beam="2">  1       -2 0.17416968E+00 0.23981219E+04</pdfrwt>
<totfact> 0.30833307E+00</totfact>
</mgrwt>
</event>
<event>
 6    1  0.2047711E-005  0.2238940E+04  0.7818608E-02  0.8502393E-01
          1   -1    0    0  501    0  0.00000000000E+00  0.00000000000E+00  0.31306436447E+04  0.31306436447E+04  0.00000000000E+00 0. -1.
         -1   -1    0    0    0  501 -0.00000000000E+00 -0.00000000000E+00 -0.40030511323E+03  0.40030511323E+03  0.00000000000E+00 0.  1.
         23    2    1    2    0    0 -0.74994031596E+03 -0.12099321182E+02  0.60705258449E+02  0.75795422431E+03  0.90843858695E+02 0.  0.
         13    1    3    3    0    0 -0.39932719135E+02  0.20206813428E+02  0.22027317273E+01  0.44808362986E+02  0.00000000000E+00 0.  1.
        -13    1    3    3    0    0 -0.71000759683E+03 -0.32306134610E+02  0.58502526722E+02  0.71314586132E+03  0.00000000000E+00 0. -1.
         22    1    1    2    0    0  0.74994031596E+03  0.12099321182E+02  0.26696332730E+04  0.27729945336E+04  0.00000000000E+00 0. -1.
<mgrwt>
<rscale>  0 0.22389396E+04</rscale>
<asrwt>0</asrwt>
<pdfrwt beam="1">  1        1 0.48163747E+00 0.22389396E+04</pdfrwt>
<pdfrwt beam="2">  1       -1 0.61585404E-01 0.22389396E+04</pdfrwt>
<totfact> 0.11650384E+00</totfact>
</mgrwt>
</event>
<event>
 6    1  0.2422162E-005  0.3960314E+04  0.7818608E-02  0.8012601E-01
         -2   -1    0    0    0  501 -0.00000000000E+00  0.00000000000E+00  0.22220122539E+04  0.22220122539E+04  0.00000000000E+00 0. -1.
          2   -1    0    0  501    0  0.00000000000E+00 -0.00000000000E+00 -0.17646267290E+04  0.17646267290E+04  0.00000000000E+00 0.  1.
         23    2    1    2    0    0  0.15443321893E+04 -0.47977495111E+03  0.13773357605E+04  0.21261405683E+04  0.90961553650E+02 0.  0.
         11    1    3    3    0    0  0.11891687892E+04 -0.33777061470E+03  0.10829939515E+04  0.16434984930E+04  0.00000000000E+00 0. -1.
        -11    1    3    3    0    0  0.35516340015E+03 -0.14200433641E+03  0.29434180897E+03  0.48264207533E+03  0.00000000000E+00 0.  1.
         22    1    1    2    0    0 -0.15443321893E+04  0.47977495111E+03 -0.91995023565E+03  0.18604984146E+04  0.00000000000E+00 0.  1.
<mgrwt>
<rscale>  0 0.39603142E+04</rscale>
<asrwt>0</asrwt>
<pdfrwt beam="1">  1        2 0.27148103E+00 0.39603142E+04</pdfrwt>
<pdfrwt beam="2">  1       -2 0.34184804E+00 0.39603142E+04</pdfrwt>
<totfact> 0.12506385E-01</totfact>
</mgrwt>
</event>
<event>
 6    1  0.2047711E-005  0.2501854E+04  0.7818608E-02  0.8402325E-01
         -1   -1    0    0    0  501 -0.00000000000E+00  0.00000000000E+00  0.21037295725E+04  0.21037295725E+04  0.00000000000E+00 0.  1.
          1   -1    0    0  501    0  0.00000000000E+00 -0.00000000000E+00 -0.74383061758E+03  0.74383061758E+03  0.00000000000E+00 0. -1.
         23    2    1    2    0    0  0.38097852642E+03  0.17098915815E+03 -0.66058333675E+03  0.78437560776E+03  0.67028497361E+02 0.  0.
         13    1    3    3    0    0  0.17735075969E+03  0.11482343288E+03 -0.31269284609E+03  0.37737849528E+03  0.00000000000E+00 0.  1.
        -13    1    3    3    0    0  0.20362776672E+03  0.56165725270E+02 -0.34789049066E+03  0.40699711248E+03  0.00000000000E+00 0. -1.
         22    1    1    2    0    0 -0.38097852642E+03 -0.17098915815E+03  0.20204822917E+04  0.20631845823E+04  0.00000000000E+00 0.  1.
<mgrwt>
<rscale>  0 0.25018541E+04</rscale>
<asrwt>0</asrwt>
<pdfrwt beam="1">  1        1 0.11443548E+00 0.25018541E+04</pdfrwt>
<pdfrwt beam="2">  1       -1 0.32365070E+00 0.25018541E+04</pdfrwt>
<totfact> 0.51066013E-01</totfact>
</mgrwt>
</event>
<event>
 6    1  0.2047711E-005  0.1636922E+04  0.7818608E-02  0.8798181E-01
          1   -1    0    0  501    0  0.00000000000E+00  0.00000000000E+00  0.19579763739E+04  0.19579763739E+04  0.00000000000E+00 0. -1.
         -1   -1    0    0    0  501 -0.00000000000E+00 -0.00000000000E+00 -0.34212778824E+03  0.34212778824E+03  0.00000000000E+00 0.  1.
         23    2    1    2    0    0 -0.42875650076E+03  0.73892800635E+02  0.17806537668E+04  0.18348590325E+04  0.81777436342E+02 0.  0.
         13    1    3    3    0    0 -0.70588344938E+02  0.40832099861E+02  0.39066035752E+03  0.39908080605E+03  0.00000000000E+00 0.  1.
        -13    1    3    3    0    0 -0.35816815583E+03  0.33060700775E+02  0.13899934093E+04  0.14357782265E+04  0.00000000000E+00 0. -1.
         22    1    1    2    0    0  0.42875650076E+03 -0.73892800635E+02 -0.16480518111E+03  0.46524512964E+03  0.00000000000E+00 0.  1.
<mgrwt>
<rscale>  0 0.16369217E+04</rscale>
<asrwt>0</asrwt>
<pdfrwt beam="1">  1        1 0.30122713E+00 0.16369217E+04</pdfrwt>
<pdfrwt beam="2">  1       -1 0.52635046E-01 0.16369217E+04</pdfrwt>
<totfact> 0.11077093E+01</totfact>
</mgrwt>
</event>
<event>
 6    1  0.2047711E-005  0.2596756E+04  0.7818608E-02  0.8369304E-01
         -2   -1    0    0    0  501 -0.00000000000E+00  0.00000000000E+00  0.15455400268E+04  0.15455400268E+04  0.00000000000E+00 0.  1.
          2   -1    0    0  501    0  0.00000000000E+00 -0.00000000000E+00 -0.10907423242E+04  0.10907423242E+04  0.00000000000E+00 0. -1.
         23    2    1    2    0    0  0.50293644491E+03  0.16280467773E+03  0.14297552608E+04  0.15272320045E+04  0.93739315259E+02 0.  0.
         13    1    3    3    0    0  0.31282667141E+03  0.14390565116E+03  0.97294169311E+03  0.10320779529E+04  0.00000000000E+00 0.  1.
        -13    1    3    3    0    0  0.19010977350E+03  0.18899026574E+02  0.45681356765E+03  0.49515405156E+03  0.00000000000E+00 0. -1.
         22    1    1    2    0    0 -0.50293644491E+03 -0.16280467773E+03 -0.97495755823E+03  0.11090503465E+04  0.00000000000E+00 0. -1.
<mgrwt>
<rscale>  0 0.25967564E+04</rscale>
<asrwt>0</asrwt>
<pdfrwt beam="1">  1        2 0.16780651E+00 0.25967564E+04</pdfrwt>
<pdfrwt beam="2">  1       -2 0.23777539E+00 0.25967564E+04</pdfrwt>
<totfact> 0.14934525E+00</totfact>
</mgrwt>
</event>
<event>
 6    1  0.2047711E-005  0.2579303E+04  0.7818608E-02  0.8375266E-01
          2   -1    0    0  501    0  0.00000000000E+00  0.00000000000E+00  0.78677639551E+03  0.78677639551E+03  0.00000000000E+00 0. -1.
         -2   -1    0    0    0  501 -0.00000000000E+00 -0.00000000000E+00 -0.21139433532E+04  0.21139433532E+04  0.00000000000E+00 0.  1.
         23    2    1    2    0    0 -0.17072948660E+03 -0.96752494069E+03 -0.16011994422E+04  0.18807457926E+04  0.90066721053E+02 0.  0.
         11    1    3    3    0    0 -0.37113204116E+02 -0.17314834810E+03 -0.35769153695E+03  0.39912526351E+03  0.00000000000E+00 0.  1.
        -11    1    3    3    0    0 -0.13361628248E+03 -0.79437659259E+03 -0.12435079053E+04  0.14816205291E+04  0.00000000000E+00 0. -1.
         22    1    1    2    0    0  0.17072948660E+03  0.96752494069E+03  0.27403248456E+03  0.10199739561E+04  0.00000000000E+00 0. -1.
<mgrwt>
<rscale>  0 0.25793028E+04</rscale>
<asrwt>0</asrwt>
<pdfrwt beam="1">  1        2 0.12104252E+00 0.25793028E+04</pdfrwt>
<pdfrwt beam="2">  1       -2 0.32522205E+00 0.25793028E+04</pdfrwt>
<totfact> 0.69374899E-01</totfact>
</mgrwt>
</event>
<event>
 6    1  0.2047711E-005  0.1136778E+04  0.7818608E-02  0.9170069E-01
         -2   -1    0    0    0  501 -0.00000000000E+00  0.00000000000E+00  0.42130682433E+03  0.42130682433E+03  0.00000000000E+00 0.  1.
          2   -1    0    0  501    0  0.00000000000E+00 -0.00000000000E+00 -0.76681905074E+03  0.76681905074E+03  0.00000000000E+00 0. -1.
         23    2    1    2    0    0 -0.32251110239E+03  0.19093906369E+03 -0.61540807688E+03  0.72626560691E+03  0.90903759497E+02 0.  0.
         13    1    3    3    0    0 -0.89372409709E+02  0.74797858562E+02 -0.12448444899E+03  0.17052426602E+03  0.00000000000E+00 0. -1.
        -13    1    3    3    0    0 -0.23313869268E+03  0.11614120512E+03 -0.49092362789E+03  0.55574134089E+03  0.00000000000E+00 0.  1.
         22    1    1    2    0    0  0.32251110239E+03 -0.19093906369E+03  0.26989585046E+03  0.46186026816E+03  0.00000000000E+00 0.  1.
<mgrwt>
<rscale>  0 0.11367781E+04</rscale>
<asrwt>0</asrwt>
<pdfrwt beam="1">  1        2 0.11797216E+00 0.11367781E+04</pdfrwt>
<pdfrwt beam="2">  1       -2 0.64816435E-01 0.11367781E+04</pdfrwt>
<totfact> 0.79307615E+01</totfact>
</mgrwt>
</event>
<event>
 6    1  0.2047711E-005  0.5192616E+03  0.7818608E-02  0.1008870E+00
         -2   -1    0    0    0  501 -0.00000000000E+00  0.00000000000E+00  0.69597257875E+02  0.69597257875E+02  0.00000000000E+00 0.  1.
          2   -1    0    0  501    0  0.00000000000E+00 -0.00000000000E+00 -0.96854598413E+03  0.96854598413E+03  0.00000000000E+00 0. -1.
         23    2    1    2    0    0  0.89308264061E+02 -0.43505638137E+02 -0.92551386212E+03  0.93531127701E+03  0.91447084948E+02 0.  0.
         13    1    3    3    0    0  0.38491539509E+02 -0.56558177496E+02 -0.71859719533E+03  0.72184649005E+03  0.00000000000E+00 0.  1.
        -13    1    3    3    0    0  0.50816724552E+02  0.13052539359E+02 -0.20691666679E+03  0.21346478696E+03  0.00000000000E+00 0. -1.
         22    1    1    2    0    0 -0.89308264061E+02  0.43505638137E+02  0.26565135873E+02  0.10283196499E+03  0.00000000000E+00 0.  1.
<mgrwt>
<rscale>  0 0.51926157E+03</rscale>
<asrwt>0</asrwt>
<pdfrwt beam="1">  1        2 0.14900709E+00 0.51926157E+03</pdfrwt>
<pdfrwt beam="2">  1       -2 0.10707270E-01 0.51926157E+03</pdfrwt>
<totfact> 0.16309705E+03</totfact>
</mgrwt>
</event>
<event>
 6    1  0.2047711E-005  0.2530417E+04  0.7818608E-02  0.8392229E-01
         -2   -1    0    0    0  501 -0.00000000000E+00  0.00000000000E+00  0.72817099417E+03  0.72817099417E+03  0.00000000000E+00 0.  1.
          2   -1    0    0  501    0  0.00000000000E+00 -0.00000000000E+00 -0.21983196956E+04  0.21983196956E+04  0.00000000000E+00 0. -1.
         23    2    1    2    0    0 -0.63755185285E+03 -0.10812999594E+04 -0.90301662461E+03  0.15490580200E+04  0.91976940933E+02 0.  0.
         13    1    3    3    0    0 -0.45530707062E+03 -0.84667261073E+03 -0.70159368469E+03  0.11901229923E+04  0.00000000000E+00 0. -1.
        -13    1    3    3    0    0 -0.18224478222E+03 -0.23462734865E+03 -0.20142293992E+03  0.35893502770E+03  0.00000000000E+00 0.  1.
         22    1    1    2    0    0  0.63755185285E+03  0.10812999594E+04 -0.56713207679E+03  0.13774326698E+04  0.00000000000E+00 0. -1.
<mgrwt>
<rscale>  0 0.25304171E+04</rscale>
<asrwt>0</asrwt>
<pdfrwt beam="1">  1        2 0.33820303E+00 0.25304171E+04</pdfrwt>
<pdfrwt beam="2">  1       -2 0.11202631E+00 0.25304171E+04</pdfrwt>
<totfact> 0.28934580E+00</totfact>
</mgrwt>
</event>
<event>
 6    1  0.2047711E-005  0.1305603E+04  0.7818608E-02  0.9025134E-01
         -2   -1    0    0    0  501 -0.00000000000E+00  0.00000000000E+00  0.17614460551E+03  0.17614460551E+03  0.00000000000E+00 0. -1.
          2   -1    0    0  501    0  0.00000000000E+00 -0.00000000000E+00 -0.24193172113E+04  0.24193172113E+04  0.00000000000E+00 0.  1.
         23    2    1    2    0    0 -0.49065606790E+02  0.48962711772E+03 -0.19702826159E+04  0.20327797620E+04  0.89653925360E+02 0.  0.
         11    1    3    3    0    0 -0.54480145723E+02  0.27812181546E+03 -0.98051889721E+03  0.10206552495E+04  0.00000000000E+00 0. -1.
        -11    1    3    3    0    0  0.54145389334E+01  0.21150530226E+03 -0.98976371864E+03  0.10121245125E+04  0.00000000000E+00 0.  1.
         22    1    1    2    0    0  0.49065606790E+02 -0.48962711772E+03 -0.27288998993E+03  0.56268205479E+03  0.00000000000E+00 0. -1.
<mgrwt>
<rscale>  0 0.13056028E+04</rscale>
<asrwt>0</asrwt>
<pdfrwt beam="1">  1        2 0.37220261E+00 0.13056028E+04</pdfrwt>
<pdfrwt beam="2">  1       -2 0.27099173E-01 0.13056028E+04</pdfrwt>
<totfact> 0.47195752E+01</totfact>
</mgrwt>
</event>
<event>
 6    1  0.2047711E-005  0.2132410E+04  0.7818608E-02  0.8547099E-01
          2   -1    0    0  501    0  0.00000000000E+00  0.00000000000E+00  0.19062848421E+04  0.19062848421E+04  0.00000000000E+00 0. -1.
         -2   -1    0    0    0  501 -0.00000000000E+00 -0.00000000000E+00 -0.59633954565E+03  0.59633954565E+03  0.00000000000E+00 0.  1.
         23    2    1    2    0    0  0.39998657561E+03 -0.49141073764E+03  0.16593539576E+04  0.17790497986E+04  0.10044329572E+03 0.  0.
         13    1    3    3    0    0  0.13809068293E+03 -0.99693287010E+02  0.44536198462E+03  0.47681766487E+03  0.00000000000E+00 0. -1.
        -13    1    3    3    0    0  0.26189589268E+03 -0.39171745063E+03  0.12139919729E+04  0.13022321337E+04  0.00000000000E+00 0.  1.
         22    1    1    2    0    0 -0.39998657561E+03  0.49141073764E+03 -0.34940866106E+03  0.72357458922E+03  0.00000000000E+00 0.  1.
<mgrwt>
<rscale>  0 0.21324099E+04</rscale>
<asrwt>0</asrwt>
<pdfrwt beam="1">  1        2 0.29327459E+00 0.21324099E+04</pdfrwt>
<pdfrwt beam="2">  1       -2 0.91744546E-01 0.21324099E+04</pdfrwt>
<totfact> 0.69982624E+00</totfact>
</mgrwt>
</event>
<event>
 6    1  0.2047711E-005  0.3017900E+04  0.7818608E-02  0.8238638E-01
          2   -1    0    0  501    0  0.00000000000E+00  0.00000000000E+00  0.12960324390E+04  0.12960324390E+04  0.00000000000E+00 0.  1.
         -2   -1    0    0    0  501 -0.00000000000E+00 -0.00000000000E+00 -0.17568469590E+04  0.17568469590E+04  0.00000000000E+00 0. -1.
         23    2    1    2    0    0  0.98933247729E+03  0.11324070094E+04 -0.33943972600E+03  0.15442852756E+04  0.92050524443E+02 0.  0.
         11    1    3    3    0    0  0.80582682614E+03  0.95980819402E+03 -0.25786783965E+03  0.12794860162E+04  0.00000000000E+00 0. -1.
        -11    1    3    3    0    0  0.18350565115E+03  0.17259881542E+03 -0.81571886342E+02  0.26479925931E+03  0.00000000000E+00 0.  1.
         22    1    1    2    0    0 -0.98933247729E+03 -0.11324070094E+04 -0.12137479393E+03  0.15085941224E+04  0.00000000000E+00 0.  1.
<mgrwt>
<rscale>  0 0.30179004E+04</rscale>
<asrwt>0</asrwt>
<pdfrwt beam="1">  1        2 0.19938961E+00 0.30179004E+04</pdfrwt>
<pdfrwt beam="2">  1       -2 0.27028415E+00 0.30179004E+04</pdfrwt>
<totfact> 0.68576168E-01</totfact>
</mgrwt>
</event>
<event>
 6    1  0.2047711E-005  0.2140888E+04  0.7818608E-02  0.8543443E-01
         -2   -1    0    0    0  501 -0.00000000000E+00  0.00000000000E+00  0.44946714629E+03  0.44946714629E+03  0.00000000000E+00 0.  1.
          2   -1    0    0  501    0  0.00000000000E+00 -0.00000000000E+00 -0.25493539454E+04  0.25493539454E+04  0.00000000000E+00 0. -1.
         23    2    1    2    0    0  0.67581874535E+03 -0.53578518924E+03 -0.16815993345E+03  0.88331514060E+03  0.90394296479E+02 0.  0.
         13    1    3    3    0    0  0.26790744824E+02 -0.47453724267E+02 -0.37722691531E+01  0.54624444799E+02  0.00000000000E+00 0. -1.
        -13    1    3    3    0    0  0.64902800052E+03 -0.48833146497E+03 -0.16438766430E+03  0.82869069581E+03  0.00000000000E+00 0.  1.
         22    1    1    2    0    0 -0.67581874535E+03  0.53578518924E+03 -0.19317268657E+04  0.21155059511E+04  0.00000000000E+00 0. -1.
<mgrwt>
<rscale>  0 0.21408885E+04</rscale>
<asrwt>0</asrwt>
<pdfrwt beam="1">  1        2 0.39220830E+00 0.21408885E+04</pdfrwt>
<pdfrwt beam="2">  1       -2 0.69148791E-01 0.21408885E+04</pdfrwt>
<totfact> 0.57156000E+00</totfact>
</mgrwt>
</event>
<event>
 6    1  0.2047711E-005  0.2273448E+04  0.7818608E-02  0.8488464E-01
         -1   -1    0    0    0  501 -0.00000000000E+00  0.00000000000E+00  0.68220420047E+03  0.68220420047E+03  0.00000000000E+00 0.  1.
          1   -1    0    0  501    0  0.00000000000E+00 -0.00000000000E+00 -0.18940678719E+04  0.18940678719E+04  0.00000000000E+00 0. -1.
         23    2    1    2    0    0 -0.10216813130E+04  0.42256720281E+03 -0.31703439278E+03  0.11539095363E+04  0.92739773009E+02 0.  0.
         13    1    3    3    0    0 -0.55114497131E+03  0.22670203782E+03 -0.12273558733E+03  0.60845592918E+03  0.00000000000E+00 0.  1.
        -13    1    3    3    0    0 -0.47053634168E+03  0.19586516500E+03 -0.19429880545E+03  0.54545360710E+03  0.00000000000E+00 0. -1.
         22    1    1    2    0    0  0.10216813130E+04 -0.42256720281E+03 -0.89482927869E+03  0.14223625361E+04  0.00000000000E+00 0. -1.
<mgrwt>
<rscale>  0 0.22734477E+04</rscale>
<asrwt>0</asrwt>
<pdfrwt beam="1">  1        1 0.29139506E+00 0.22734477E+04</pdfrwt>
<pdfrwt beam="2">  1       -1 0.10495449E+00 0.22734477E+04</pdfrwt>
<totfact> 0.27146133E+00</totfact>
</mgrwt>
</event>
<event>
 6    1  0.2047711E-005  0.9626282E+03  0.7818608E-02  0.9350511E-01
         -2   -1    0    0    0  501 -0.00000000000E+00  0.00000000000E+00  0.59177317846E+03  0.59177317846E+03  0.00000000000E+00 0.  1.
          2   -1    0    0  501    0  0.00000000000E+00 -0.00000000000E+00 -0.39147310546E+03  0.39147310546E+03  0.00000000000E+00 0. -1.
         23    2    1    2    0    0  0.24200002250E+03  0.20061822361E+03 -0.26525574797E+03  0.42150443487E+03  0.92161240499E+02 0.  0.
         11    1    3    3    0    0  0.94772571897E+02  0.98760136913E+02 -0.17145844608E+03  0.21939326280E+03  0.00000000000E+00 0.  1.
        -11    1    3    3    0    0  0.14722745060E+03  0.10185808670E+03 -0.93797301891E+02  0.20211117208E+03  0.00000000000E+00 0. -1.
         22    1    1    2    0    0 -0.24200002250E+03 -0.20061822361E+03  0.46555582097E+03  0.56174184905E+03  0.00000000000E+00 0.  1.
<mgrwt>
<rscale>  0 0.96262824E+03</rscale>
<asrwt>0</asrwt>
<pdfrwt beam="1">  1        2 0.60226632E-01 0.96262824E+03</pdfrwt>
<pdfrwt beam="2">  1       -2 0.91042027E-01 0.96262824E+03</pdfrwt>
<totfact> 0.83910577E+01</totfact>
</mgrwt>
</event>
<event>
 6    1  0.2047711E-005  0.1358412E+04  0.7818608E-02  0.8984485E-01
          1   -1    0    0  501    0  0.00000000000E+00  0.00000000000E+00  0.39001659860E+03  0.39001659860E+03  0.00000000000E+00 0. -1.
         -1   -1    0    0    0  501 -0.00000000000E+00 -0.00000000000E+00 -0.11828231665E+04  0.11828231665E+04  0.00000000000E+00 0.  1.
         23    2    1    2    0    0 -0.54233289793E+01  0.47525507251E+03 -0.95517429300E+03  0.10705847755E+04  0.88865264153E+02 0.  0.
         13    1    3    3    0    0  0.33893698110E+02  0.28926687810E+03 -0.52741514386E+03  0.60248721440E+03  0.00000000000E+00 0.  1.
        -13    1    3    3    0    0 -0.39317027089E+02  0.18598819440E+03 -0.42775914914E+03  0.46809756114E+03  0.00000000000E+00 0. -1.
         22    1    1    2    0    0  0.54233289793E+01 -0.47525507251E+03  0.16236772505E+03  0.50225498960E+03  0.00000000000E+00 0. -1.
<mgrwt>
<rscale>  0 0.13584118E+04</rscale>
<asrwt>0</asrwt>
<pdfrwt beam="1">  1        1 0.60002554E-01 0.13584118E+04</pdfrwt>
<pdfrwt beam="2">  1       -1 0.18197279E+00 0.13584118E+04</pdfrwt>
<totfact> 0.12225961E+01</totfact>
</mgrwt>
</event>
<event>
 6    1  0.2047711E-005  0.1876027E+04  0.7818608E-02  0.8666882E-01
         -2   -1    0    0    0  501 -0.00000000000E+00  0.00000000000E+00  0.24416152371E+03  0.24416152371E+03  0.00000000000E+00 0.  1.
          2   -1    0    0  501    0  0.00000000000E+00 -0.00000000000E+00 -0.36036348063E+04  0.36036348063E+04  0.00000000000E+00 0. -1.
         23    2    1    2    0    0  0.74218901912E+03  0.19141130548E+03 -0.58244109374E+03  0.96693003566E+03  0.90737193094E+02 0.  0.
         13    1    3    3    0    0  0.26895343829E+03  0.76722946345E+02 -0.26756525138E+03  0.38705752313E+03  0.00000000000E+00 0.  1.
        -13    1    3    3    0    0  0.47323558083E+03  0.11468835914E+03 -0.31487584236E+03  0.57987251253E+03  0.00000000000E+00 0. -1.
         22    1    1    2    0    0 -0.74218901912E+03 -0.19141130548E+03 -0.27770321888E+04  0.28808662943E+04  0.00000000000E+00 0. -1.
<mgrwt>
<rscale>  0 0.18760266E+04</rscale>
<asrwt>0</asrwt>
<pdfrwt beam="1">  1        2 0.55440530E+00 0.18760266E+04</pdfrwt>
<pdfrwt beam="2">  1       -2 0.37563315E-01 0.18760266E+04</pdfrwt>
<totfact> 0.43403414E+00</totfact>
</mgrwt>
</event>
<event>
 6    1  0.2047711E-005  0.3053677E+04  0.7818608E-02  0.8228567E-01
         -2   -1    0    0    0  501 -0.00000000000E+00  0.00000000000E+00  0.77984277287E+03  0.77984277287E+03  0.00000000000E+00 0.  1.
          2   -1    0    0  501    0  0.00000000000E+00 -0.00000000000E+00 -0.29893661793E+04  0.29893661793E+04  0.00000000000E+00 0. -1.
         23    2    1    2    0    0 -0.84944128949E+03  0.11592823066E+04 -0.47446447901E+03  0.15162297130E+04  0.91378498089E+02 0.  0.
         13    1    3    3    0    0 -0.69986418524E+03  0.89259383656E+03 -0.36823672010E+03  0.11925317257E+04  0.00000000000E+00 0.  1.
        -13    1    3    3    0    0 -0.14957710425E+03  0.26668847004E+03 -0.10622775891E+03  0.32369798722E+03  0.00000000000E+00 0. -1.
         22    1    1    2    0    0  0.84944128949E+03 -0.11592823066E+04 -0.17350589274E+04  0.22529792392E+04  0.00000000000E+00 0. -1.
<mgrwt>
<rscale>  0 0.30536769E+04</rscale>
<asrwt>0</asrwt>
<pdfrwt beam="1">  1        2 0.45990250E+00 0.30536769E+04</pdfrwt>
<pdfrwt beam="2">  1       -2 0.11997581E+00 0.30536769E+04</pdfrwt>
<totfact> 0.80004383E-01</totfact>
</mgrwt>
</event>
<event>
 6    1  0.2047711E-005  0.4776434E+04  0.7818608E-02  0.7863951E-01
         -2   -1    0    0    0  501 -0.00000000000E+00  0.00000000000E+00  0.22585993785E+04  0.22585993785E+04  0.00000000000E+00 0.  1.
          2   -1    0    0  501    0  0.00000000000E+00 -0.00000000000E+00 -0.25252732451E+04  0.25252732451E+04  0.00000000000E+00 0. -1.
         23    2    1    2    0    0  0.11881769480E+04 -0.19756658984E+04 -0.75446015360E+03  0.24274016045E+04  0.89711894044E+02 0.  0.
         13    1    3    3    0    0  0.41169330507E+03 -0.65455257233E+03 -0.21169876593E+03  0.80171492120E+03  0.00000000000E+00 0.  1.
        -13    1    3    3    0    0  0.77648364291E+03 -0.13211133261E+04 -0.54276138767E+03  0.16256866832E+04  0.00000000000E+00 0. -1.
         22    1    1    2    0    0 -0.11881769480E+04  0.19756658984E+04  0.48778628703E+03  0.23564710191E+04  0.00000000000E+00 0.  1.
<mgrwt>
<rscale>  0 0.47764341E+04</rscale>
<asrwt>0</asrwt>
<pdfrwt beam="1">  1        2 0.38850358E+00 0.47764341E+04</pdfrwt>
<pdfrwt beam="2">  1       -2 0.34747683E+00 0.47764341E+04</pdfrwt>
<totfact> 0.40249268E-02</totfact>
</mgrwt>
</event>
<event>
 6    1  0.2047711E-005  0.3023506E+04  0.7818608E-02  0.8237050E-01
         -2   -1    0    0    0  501 -0.00000000000E+00  0.00000000000E+00  0.62395072146E+03  0.62395072146E+03  0.00000000000E+00 0.  1.
          2   -1    0    0  501    0  0.00000000000E+00 -0.00000000000E+00 -0.36627844073E+04  0.36627844073E+04  0.00000000000E+00 0. -1.
         23    2    1    2    0    0  0.14734546679E+04 -0.40371179771E+02 -0.10534275755E+04  0.18139763630E+04  0.90011655916E+02 0.  0.
         11    1    3    3    0    0  0.10070154320E+04  0.84474219146E+01 -0.74482218549E+03  0.12525619854E+04  0.00000000000E+00 0. -1.
        -11    1    3    3    0    0  0.46643923591E+03 -0.48818601685E+02 -0.30860538998E+03  0.56141437761E+03  0.00000000000E+00 0.  1.
         22    1    1    2    0    0 -0.14734546679E+04  0.40371179771E+02 -0.19854061103E+04  0.24727587657E+04  0.00000000000E+00 0. -1.
<mgrwt>
<rscale>  0 0.30235059E+04</rscale>
<asrwt>0</asrwt>
<pdfrwt beam="1">  1        2 0.56350528E+00 0.30235059E+04</pdfrwt>
<pdfrwt beam="2">  1       -2 0.95992420E-01 0.30235059E+04</pdfrwt>
<totfact> 0.48270178E-01</totfact>
</mgrwt>
</event>
<event>
 6    1  0.2047711E-005  0.2977133E+04  0.7818608E-02  0.8250291E-01
          2   -1    0    0  501    0  0.00000000000E+00  0.00000000000E+00  0.10557819246E+04  0.10557819246E+04  0.00000000000E+00 0. -1.
         -2   -1    0    0    0  501 -0.00000000000E+00 -0.00000000000E+00 -0.20987569943E+04  0.20987569943E+04  0.00000000000E+00 0.  1.
         23    2    1    2    0    0  0.33408165177E+03  0.13028135226E+04  0.15041353173E+03  0.13564538322E+04  0.91701383519E+02 0.  0.
         13    1    3    3    0    0  0.15290030067E+03  0.73542167236E+03  0.54036097992E+02  0.75308926298E+03  0.00000000000E+00 0. -1.
        -13    1    3    3    0    0  0.18118135109E+03  0.56739185024E+03  0.96377433743E+02  0.60336456925E+03  0.00000000000E+00 0.  1.
         22    1    1    2    0    0 -0.33408165177E+03 -0.13028135226E+04 -0.11933886015E+04  0.17980850866E+04  0.00000000000E+00 0.  1.
<mgrwt>
<rscale>  0 0.29771326E+04</rscale>
<asrwt>0</asrwt>
<pdfrwt beam="1">  1        2 0.16242799E+00 0.29771326E+04</pdfrwt>
<pdfrwt beam="2">  1       -2 0.32288569E+00 0.29771326E+04</pdfrwt>
<totfact> 0.45742866E-01</totfact>
</mgrwt>
</event>
<event>
 6    1  0.2047711E-005  0.1904962E+04  0.7818608E-02  0.8652391E-01
          2   -1    0    0  501    0  0.00000000000E+00  0.00000000000E+00  0.20248062290E+04  0.20248062290E+04  0.00000000000E+00 0. -1.
         -2   -1    0    0    0  501 -0.00000000000E+00 -0.00000000000E+00 -0.44805255981E+03  0.44805255981E+03  0.00000000000E+00 0.  1.
         23    2    1    2    0    0 -0.21791673557E+03 -0.81104012703E+03  0.21298076168E+03  0.87125011795E+03  0.91881292372E+02 0.  0.
         13    1    3    3    0    0 -0.81409585332E+02 -0.40918654512E+03  0.14349263366E+03  0.44119302489E+03  0.00000000000E+00 0.  1.
        -13    1    3    3    0    0 -0.13650715024E+03 -0.40185358191E+03  0.69488128011E+02  0.43005709306E+03  0.00000000000E+00 0. -1.
         22    1    1    2    0    0  0.21791673557E+03  0.81104012703E+03  0.13637729075E+04  0.16016086709E+04  0.00000000000E+00 0. -1.
<mgrwt>
<rscale>  0 0.19049615E+04</rscale>
<asrwt>0</asrwt>
<pdfrwt beam="1">  1        2 0.31150865E+00 0.19049615E+04</pdfrwt>
<pdfrwt beam="2">  1       -2 0.68931164E-01 0.19049615E+04</pdfrwt>
<totfact> 0.11647525E+01</totfact>
</mgrwt>
</event>
<event>
 6    1  0.2047711E-005  0.7898886E+03  0.7818608E-02  0.9574769E-01
         -2   -1    0    0    0  501 -0.00000000000E+00  0.00000000000E+00  0.10067159328E+04  0.10067159328E+04  0.00000000000E+00 0.  1.
          2   -1    0    0  501    0  0.00000000000E+00 -0.00000000000E+00 -0.15494042851E+03  0.15494042851E+03  0.00000000000E+00 0. -1.
         23    2    1    2    0    0 -0.25142233084E+03 -0.19967985191E+03  0.75367222107E+03  0.82593402679E+03  0.10516638290E+03 0.  0.
         11    1    3    3    0    0 -0.15586049726E+03 -0.57373605620E+02  0.35200704206E+03  0.38922125185E+03  0.00000000000E+00 0.  1.
        -11    1    3    3    0    0 -0.95561833579E+02 -0.14230624629E+03  0.40166517900E+03  0.43671277494E+03  0.00000000000E+00 0. -1.
         22    1    1    2    0    0  0.25142233084E+03  0.19967985191E+03  0.98103283181E+02  0.33572233449E+03  0.00000000000E+00 0. -1.
<mgrwt>
<rscale>  0 0.78988859E+03</rscale>
<asrwt>0</asrwt>
<pdfrwt beam="1">  1        2 0.23836990E-01 0.78988859E+03</pdfrwt>
<pdfrwt beam="2">  1       -2 0.15487937E+00 0.78988859E+03</pdfrwt>
<totfact> 0.64285413E+01</totfact>
</mgrwt>
</event>
<event>
 6    1  0.2047711E-005  0.2565858E+04  0.7818608E-02  0.8379892E-01
          2   -1    0    0  501    0  0.00000000000E+00  0.00000000000E+00  0.11130949342E+04  0.11130949342E+04  0.00000000000E+00 0. -1.
         -2   -1    0    0    0  501 -0.00000000000E+00 -0.00000000000E+00 -0.14786758438E+04  0.14786758438E+04  0.00000000000E+00 0.  1.
         23    2    1    2    0    0  0.97681572891E+03  0.45406853534E+03 -0.88320379618E+03  0.13966638138E+04  0.10135906527E+03 0.  0.
         13    1    3    3    0    0  0.72521418493E+03  0.35754375632E+03 -0.60941715709E+03  0.10125030484E+04  0.00000000000E+00 0.  1.
        -13    1    3    3    0    0  0.25160154398E+03  0.96524779016E+02 -0.27378663909E+03  0.38416076536E+03  0.00000000000E+00 0. -1.
         22    1    1    2    0    0 -0.97681572891E+03 -0.45406853534E+03  0.51762288662E+03  0.11951069642E+04  0.00000000000E+00 0. -1.
<mgrwt>
<rscale>  0 0.25658578E+04</rscale>
<asrwt>0</asrwt>
<pdfrwt beam="1">  1        2 0.17124537E+00 0.25658578E+04</pdfrwt>
<pdfrwt beam="2">  1       -2 0.22748859E+00 0.25658578E+04</pdfrwt>
<totfact> 0.16815948E+00</totfact>
</mgrwt>
</event>
<event>
 6    1  0.2047711E-005  0.1786295E+04  0.7818608E-02  0.8713622E-01
         -2   -1    0    0    0  501 -0.00000000000E+00  0.00000000000E+00  0.31024183079E+03  0.31024183079E+03  0.00000000000E+00 0.  1.
          2   -1    0    0  501    0  0.00000000000E+00 -0.00000000000E+00 -0.25712593633E+04  0.25712593633E+04  0.00000000000E+00 0. -1.
         23    2    1    2    0    0 -0.51124724566E+03 -0.72677127808E+03 -0.12446580659E+04  0.15314801564E+04  0.81777329292E+02 0.  0.
         13    1    3    3    0    0 -0.14656046267E+03 -0.21117860939E+03 -0.29862230427E+03  0.39401986611E+03  0.00000000000E+00 0.  1.
        -13    1    3    3    0    0 -0.36468678299E+03 -0.51559266869E+03 -0.94603576163E+03  0.11374602903E+04  0.00000000000E+00 0. -1.
         22    1    1    2    0    0  0.51124724566E+03  0.72677127808E+03 -0.10163594666E+04  0.13500210377E+04  0.00000000000E+00 0. -1.
<mgrwt>
<rscale>  0 0.17862947E+04</rscale>
<asrwt>0</asrwt>
<pdfrwt beam="1">  1        2 0.39557836E+00 0.17862947E+04</pdfrwt>
<pdfrwt beam="2">  1       -2 0.47729512E-01 0.17862947E+04</pdfrwt>
<totfact> 0.12455808E+01</totfact>
</mgrwt>
</event>
<event>
 6    1  0.2047711E-005  0.3960607E+04  0.7818608E-02  0.8012541E-01
         -2   -1    0    0    0  501 -0.00000000000E+00  0.00000000000E+00  0.10699969410E+04  0.10699969410E+04  0.00000000000E+00 0.  1.
          2   -1    0    0  501    0  0.00000000000E+00 -0.00000000000E+00 -0.36650591794E+04  0.36650591794E+04  0.00000000000E+00 0. -1.
         23    2    1    2    0    0 -0.90072042103E+03 -0.23788598052E+03 -0.33859440117E+04  0.35130164336E+04  0.93704833995E+02 0.  0.
         13    1    3    3    0    0 -0.64423301969E+03 -0.18600912069E+03 -0.25763198485E+04  0.26621531772E+04  0.00000000000E+00 0.  1.
        -13    1    3    3    0    0 -0.25648740134E+03 -0.51876859828E+02 -0.80962416318E+03  0.85086325648E+03  0.00000000000E+00 0. -1.
         22    1    1    2    0    0  0.90072042103E+03  0.23788598052E+03  0.79088177332E+03  0.12220396867E+04  0.00000000000E+00 0.  1.
<mgrwt>
<rscale>  0 0.39606071E+04</rscale>
<asrwt>0</asrwt>
<pdfrwt beam="1">  1        2 0.56385524E+00 0.39606071E+04</pdfrwt>
<pdfrwt beam="2">  1       -2 0.16461492E+00 0.39606071E+04</pdfrwt>
<totfact> 0.11393218E-01</totfact>
</mgrwt>
</event>
<event>
 6    1  0.2047711E-005  0.3672322E+04  0.7818608E-02  0.8074123E-01
         -2   -1    0    0    0  501 -0.00000000000E+00  0.00000000000E+00  0.13780982111E+04  0.13780982111E+04  0.00000000000E+00 0.  1.
          2   -1    0    0  501    0  0.00000000000E+00 -0.00000000000E+00 -0.24464778852E+04  0.24464778852E+04  0.00000000000E+00 0. -1.
         23    2    1    2    0    0  0.60877343152E+03 -0.91768917095E+02  0.12658170931E+04  0.14105543125E+04  0.91345116829E+02 0.  0.
         13    1    3    3    0    0  0.38658162743E+03 -0.92386596827E+02  0.87368479230E+03  0.95984673476E+03  0.00000000000E+00 0. -1.
        -13    1    3    3    0    0  0.22219180409E+03  0.61767973229E+00  0.39213230079E+03  0.45070757777E+03  0.00000000000E+00 0.  1.
         22    1    1    2    0    0 -0.60877343152E+03  0.91768917095E+02 -0.23341967672E+04  0.24140217839E+04  0.00000000000E+00 0. -1.
<mgrwt>
<rscale>  0 0.36723218E+04</rscale>
<asrwt>0</asrwt>
<pdfrwt beam="1">  1        2 0.37638121E+00 0.36723218E+04</pdfrwt>
<pdfrwt beam="2">  1       -2 0.21201511E+00 0.36723218E+04</pdfrwt>
<totfact> 0.33661518E-01</totfact>
</mgrwt>
</event>
<event>
 6    1  0.2047711E-005  0.3375351E+04  0.7818608E-02  0.8143983E-01
          2   -1    0    0  501    0  0.00000000000E+00  0.00000000000E+00  0.34267601697E+04  0.34267601697E+04  0.00000000000E+00 0. -1.
         -2   -1    0    0    0  501 -0.00000000000E+00 -0.00000000000E+00 -0.83117831839E+03  0.83117831839E+03  0.00000000000E+00 0.  1.
         23    2    1    2    0    0 -0.72483970925E+03  0.50895523339E+03  0.31091669281E+04  0.32341232387E+04  0.90587540712E+02 0.  0.
         13    1    3    3    0    0 -0.39421766486E+03  0.22288233631E+03  0.15449738641E+04  0.16099777464E+04  0.00000000000E+00 0. -1.
        -13    1    3    3    0    0 -0.33062204439E+03  0.28607289708E+03  0.15641930640E+04  0.16241454923E+04  0.00000000000E+00 0.  1.
         22    1    1    2    0    0  0.72483970925E+03 -0.50895523339E+03 -0.51358507682E+03  0.10238152494E+04  0.00000000000E+00 0.  1.
<mgrwt>
<rscale>  0 0.33753511E+04</rscale>
<asrwt>0</asrwt>
<pdfrwt beam="1">  1        2 0.52719387E+00 0.33753511E+04</pdfrwt>
<pdfrwt beam="2">  1       -2 0.12787359E+00 0.33753511E+04</pdfrwt>
<totfact> 0.34305717E-01</totfact>
</mgrwt>
</event>
<event>
 6    1  0.2047711E-005  0.1966793E+04  0.7818608E-02  0.8622305E-01
         -2   -1    0    0    0  501 -0.00000000000E+00  0.00000000000E+00  0.10474539860E+04  0.10474539860E+04  0.00000000000E+00 0.  1.
          2   -1    0    0  501    0  0.00000000000E+00 -0.00000000000E+00 -0.92325671179E+03  0.92325671179E+03  0.00000000000E+00 0. -1.
         23    2    1    2    0    0 -0.51638762278E+03  0.25995804244E+03  0.85693087313E+03  0.10373656985E+04  0.86963845140E+02 0.  0.
         11    1    3    3    0    0 -0.70612015136E+02  0.49332245038E+02  0.18386013681E+03  0.20303762457E+03  0.00000000000E+00 0. -1.
        -11    1    3    3    0    0 -0.44577560765E+03  0.21062579740E+03  0.67307073631E+03  0.83432807395E+03  0.00000000000E+00 0.  1.
         22    1    1    2    0    0  0.51638762278E+03 -0.25995804244E+03 -0.73273359888E+03  0.93334499930E+03  0.00000000000E+00 0. -1.
<mgrwt>
<rscale>  0 0.19667933E+04</rscale>
<asrwt>0</asrwt>
<pdfrwt beam="1">  1        2 0.14203949E+00 0.19667933E+04</pdfrwt>
<pdfrwt beam="2">  1       -2 0.16114677E+00 0.19667933E+04</pdfrwt>
<totfact> 0.65068800E+00</totfact>
</mgrwt>
</event>
<event>
 6    1  0.2047711E-005  0.1194390E+04  0.7818608E-02  0.9117781E-01
         -2   -1    0    0    0  501 -0.00000000000E+00  0.00000000000E+00  0.54822797377E+03  0.54822797377E+03  0.00000000000E+00 0.  1.
          2   -1    0    0  501    0  0.00000000000E+00 -0.00000000000E+00 -0.65053569692E+03  0.65053569692E+03  0.00000000000E+00 0. -1.
         23    2    1    2    0    0 -0.27199300306E+03 -0.11523062930E+03  0.46514546715E+03  0.55902824505E+03  0.94307907993E+02 0.  0.
         13    1    3    3    0    0 -0.16516327904E+03 -0.68896692725E+02  0.36048459512E+03  0.40246093765E+03  0.00000000000E+00 0.  1.
        -13    1    3    3    0    0 -0.10682972402E+03 -0.46333936575E+02  0.10466087202E+03  0.15656730740E+03  0.00000000000E+00 0. -1.
         22    1    1    2    0    0  0.27199300306E+03  0.11523062930E+03 -0.56745319029E+03  0.63973542564E+03  0.00000000000E+00 0. -1.
<mgrwt>
<rscale>  0 0.11943900E+04</rscale>
<asrwt>0</asrwt>
<pdfrwt beam="1">  1        2 0.10008241E+00 0.11943900E+04</pdfrwt>
<pdfrwt beam="2">  1       -2 0.84342766E-01 0.11943900E+04</pdfrwt>
<totfact> 0.54402204E+01</totfact>
</mgrwt>
</event>
<event>
 6    1  0.2047711E-005  0.2986371E+04  0.7818608E-02  0.8247633E-01
         -2   -1    0    0    0  501 -0.00000000000E+00  0.00000000000E+00  0.65964216981E+03  0.65964216981E+03  0.00000000000E+00 0.  1.
          2   -1    0    0  501    0  0.00000000000E+00 -0.00000000000E+00 -0.33800192581E+04  0.33800192581E+04  0.00000000000E+00 0. -1.
         23    2    1    2    0    0 -0.44587576655E+03 -0.71445269480E+02 -0.32847118900E+04  0.33169004756E+04  0.92665738571E+02 0.  0.
         11    1    3    3    0    0 -0.35776824482E+03 -0.59924962883E+02 -0.23308605830E+04  0.23589192813E+04  0.00000000000E+00 0. -1.
        -11    1    3    3    0    0 -0.88107521735E+02 -0.11520306597E+02 -0.95385130698E+03  0.95798119432E+03  0.00000000000E+00 0.  1.
         22    1    1    2    0    0  0.44587576655E+03  0.71445269480E+02  0.56433480172E+03  0.72276095229E+03  0.00000000000E+00 0.  1.
<mgrwt>
<rscale>  0 0.29863712E+04</rscale>
<asrwt>0</asrwt>
<pdfrwt beam="1">  1        2 0.52000296E+00 0.29863712E+04</pdfrwt>
<pdfrwt beam="2">  1       -2 0.10148341E+00 0.29863712E+04</pdfrwt>
<totfact> 0.67189552E-01</totfact>
</mgrwt>
</event>
<event>
 6    1  0.2047711E-005  0.2445711E+04  0.7818608E-02  0.8422585E-01
          2   -1    0    0  501    0  0.00000000000E+00  0.00000000000E+00  0.23819067106E+04  0.23819067106E+04  0.00000000000E+00 0. -1.
         -2   -1    0    0    0  501 -0.00000000000E+00 -0.00000000000E+00 -0.62780627745E+03  0.62780627745E+03  0.00000000000E+00 0.  1.
         23    2    1    2    0    0  0.84519294662E+03 -0.83923148531E+03  0.12113668300E+04  0.17008125461E+04  0.81811473949E+02 0.  0.
         13    1    3    3    0    0  0.82004108091E+03 -0.83079970561E+03  0.11834835322E+04  0.16623263206E+04  0.00000000000E+00 0. -1.
        -13    1    3    3    0    0  0.25151865711E+02 -0.84317797028E+01  0.27883297789E+02  0.38486225500E+02  0.00000000000E+00 0.  1.
         22    1    1    2    0    0 -0.84519294662E+03  0.83923148531E+03  0.54273360321E+03  0.13089004420E+04  0.00000000000E+00 0. -1.
<mgrwt>
<rscale>  0 0.24457113E+04</rscale>
<asrwt>0</asrwt>
<pdfrwt beam="1">  1        2 0.36644718E+00 0.24457113E+04</pdfrwt>
<pdfrwt beam="2">  1       -2 0.96585582E-01 0.24457113E+04</pdfrwt>
<totfact> 0.32696636E+00</totfact>
</mgrwt>
</event>
<event>
 6    1  0.2047711E-005  0.4045552E+04  0.7818608E-02  0.7995420E-01
          2   -1    0    0  501    0  0.00000000000E+00  0.00000000000E+00  0.29395650741E+04  0.29395650741E+04  0.00000000000E+00 0. -1.
         -2   -1    0    0    0  501 -0.00000000000E+00 -0.00000000000E+00 -0.13919139955E+04  0.13919139955E+04  0.00000000000E+00 0.  1.
         23    2    1    2    0    0 -0.45182415010E+03 -0.61133150121E+03 -0.12315802764E+04  0.14501602412E+04  0.91123437669E+02 0.  0.
         13    1    3    3    0    0 -0.15222005981E+03 -0.17138199889E+03 -0.30435306792E+03  0.38101643810E+03  0.00000000000E+00 0. -1.
        -13    1    3    3    0    0 -0.29960409029E+03 -0.43994950232E+03 -0.92722720846E+03  0.10691438031E+04  0.00000000000E+00 0.  1.
         22    1    1    2    0    0  0.45182415010E+03  0.61133150121E+03  0.27792313550E+04  0.28813188285E+04  0.00000000000E+00 0. -1.
<mgrwt>
<rscale>  0 0.40455515E+04</rscale>
<asrwt>0</asrwt>
<pdfrwt beam="1">  1        2 0.45224078E+00 0.40455515E+04</pdfrwt>
<pdfrwt beam="2">  1       -2 0.21414061E+00 0.40455515E+04</pdfrwt>
<totfact> 0.16068768E-01</totfact>
</mgrwt>
</event>
<event>
 6    1  0.2047711E-005  0.8620146E+03  0.7818608E-02  0.9474352E-01
         -1   -1    0    0    0  501 -0.00000000000E+00  0.00000000000E+00  0.11921779503E+03  0.11921779503E+03  0.00000000000E+00 0.  1.
          1   -1    0    0  501    0  0.00000000000E+00 -0.00000000000E+00 -0.15582179917E+04  0.15582179917E+04  0.00000000000E+00 0. -1.
         23    2    1    2    0    0 -0.36752473624E+03 -0.65799886830E+01 -0.11517263440E+04  0.12109124814E+04  0.68685793159E+02 0.  0.
         11    1    3    3    0    0 -0.14492031324E+02 -0.12626307401E+02 -0.38464072475E+02  0.42999156757E+02  0.00000000000E+00 0.  1.
        -11    1    3    3    0    0 -0.35303270491E+03  0.60463187180E+01 -0.11132622715E+04  0.11679133246E+04  0.00000000000E+00 0. -1.
         22    1    1    2    0    0  0.36752473624E+03  0.65799886830E+01 -0.28727385272E+03  0.46652330537E+03  0.00000000000E+00 0.  1.
<mgrwt>
<rscale>  0 0.86201465E+03</rscale>
<asrwt>0</asrwt>
<pdfrwt beam="1">  1        1 0.23972586E+00 0.86201465E+03</pdfrwt>
<pdfrwt beam="2">  1       -1 0.18341198E-01 0.86201465E+03</pdfrwt>
<totfact> 0.14258191E+02</totfact>
</mgrwt>
</event>
<event>
 6    1  0.2047711E-005  0.1537700E+04  0.7818608E-02  0.8859763E-01
          2   -1    0    0  501    0  0.00000000000E+00  0.00000000000E+00  0.26269081691E+04  0.26269081691E+04  0.00000000000E+00 0. -1.
         -2   -1    0    0    0  501 -0.00000000000E+00 -0.00000000000E+00 -0.22502891724E+03  0.22502891724E+03  0.00000000000E+00 0.  1.
         23    2    1    2    0    0  0.41379816255E+03 -0.13044060311E+03  0.23761375898E+04  0.24173035586E+04  0.95304662080E+02 0.  0.
         11    1    3    3    0    0  0.17486793055E+03 -0.81501706220E+01  0.10074298518E+04  0.10225263442E+04  0.00000000000E+00 0. -1.
        -11    1    3    3    0    0  0.23893023200E+03 -0.12229043249E+03  0.13687077380E+04  0.13947772144E+04  0.00000000000E+00 0.  1.
         22    1    1    2    0    0 -0.41379816255E+03  0.13044060311E+03  0.25741662098E+02  0.43463352774E+03  0.00000000000E+00 0.  1.
<mgrwt>
<rscale>  0 0.15377000E+04</rscale>
<asrwt>0</asrwt>
<pdfrwt beam="1">  1        2 0.40413970E+00 0.15377000E+04</pdfrwt>
<pdfrwt beam="2">  1       -2 0.34619835E-01 0.15377000E+04</pdfrwt>
<totfact> 0.22190018E+01</totfact>
</mgrwt>
</event>
<event>
 6    1  0.2047711E-005  0.2272116E+04  0.7818608E-02  0.8488997E-01
          2   -1    0    0  501    0  0.00000000000E+00  0.00000000000E+00  0.17370093242E+04  0.17370093242E+04  0.00000000000E+00 0. -1.
         -2   -1    0    0    0  501 -0.00000000000E+00 -0.00000000000E+00 -0.74301722303E+03  0.74301722303E+03  0.00000000000E+00 0.  1.
         23    2    1    2    0    0  0.60414687976E+03 -0.66637399711E+03  0.12519950693E+04  0.15442844418E+04  0.90967176017E+02 0.  0.
         11    1    3    3    0    0  0.44879837606E+03 -0.44525332781E+03  0.83373360420E+03  0.10463184176E+04  0.00000000000E+00 0.  1.
        -11    1    3    3    0    0  0.15534850371E+03 -0.22112066931E+03  0.41826146511E+03  0.49796602414E+03  0.00000000000E+00 0. -1.
         22    1    1    2    0    0 -0.60414687976E+03  0.66637399711E+03 -0.25800296816E+03  0.93574210546E+03  0.00000000000E+00 0.  1.
<mgrwt>
<rscale>  0 0.22721161E+04</rscale>
<asrwt>0</asrwt>
<pdfrwt beam="1">  1        2 0.26723220E+00 0.22721161E+04</pdfrwt>
<pdfrwt beam="2">  1       -2 0.11431034E+00 0.22721161E+04</pdfrwt>
<totfact> 0.50858360E+00</totfact>
</mgrwt>
</event>
<event>
 6    1  0.2047711E-005  0.2080661E+04  0.7818608E-02  0.8569811E-01
         -2   -1    0    0    0  501 -0.00000000000E+00  0.00000000000E+00  0.15939279098E+04  0.15939279098E+04  0.00000000000E+00 0.  1.
          2   -1    0    0  501    0  0.00000000000E+00 -0.00000000000E+00 -0.67900639151E+03  0.67900639151E+03  0.00000000000E+00 0. -1.
         23    2    1    2    0    0  0.25001728183E+03 -0.93185771204E+03  0.87775926878E+03  0.13074041519E+04  0.89313188735E+02 0.  0.
         11    1    3    3    0    0  0.11162231553E+03 -0.58204155749E+03  0.54579194260E+03  0.80568030916E+03  0.00000000000E+00 0. -1.
        -11    1    3    3    0    0  0.13839496631E+03 -0.34981615455E+03  0.33196732618E+03  0.50172384270E+03  0.00000000000E+00 0.  1.
         22    1    1    2    0    0 -0.25001728183E+03  0.93185771204E+03  0.37162249518E+02  0.96553014945E+03  0.00000000000E+00 0. -1.
<mgrwt>
<rscale>  0 0.20806607E+04</rscale>
<asrwt>0</asrwt>
<pdfrwt beam="1">  1        2 0.10446252E+00 0.20806607E+04</pdfrwt>
<pdfrwt beam="2">  1       -2 0.24521968E+00 0.20806607E+04</pdfrwt>
<totfact> 0.27020311E+00</totfact>
</mgrwt>
</event>
<event>
 6    1  0.2047711E-005  0.2538144E+04  0.7818608E-02  0.8389521E-01
          2   -1    0    0  501    0  0.00000000000E+00  0.00000000000E+00  0.91955109479E+03  0.91955109479E+03  0.00000000000E+00 0. -1.
         -2   -1    0    0    0  501 -0.00000000000E+00 -0.00000000000E+00 -0.17514454152E+04  0.17514454152E+04  0.00000000000E+00 0.  1.
         23    2    1    2    0    0 -0.92011679442E+03  0.87064128464E+03 -0.37251261425E+03  0.13235312177E+04  0.91313058170E+02 0.  0.
         11    1    3    3    0    0 -0.28087153471E+03  0.29032942013E+03 -0.15929584327E+03  0.43422938280E+03  0.00000000000E+00 0. -1.
        -11    1    3    3    0    0 -0.63924525971E+03  0.58031186451E+03 -0.21321677098E+03  0.88930183491E+03  0.00000000000E+00 0.  1.
         22    1    1    2    0    0  0.92011679442E+03 -0.87064128464E+03 -0.45938170613E+03  0.13474652922E+04  0.00000000000E+00 0. -1.
<mgrwt>
<rscale>  0 0.25381438E+04</rscale>
<asrwt>0</asrwt>
<pdfrwt beam="1">  1        2 0.14146940E+00 0.25381438E+04</pdfrwt>
<pdfrwt beam="2">  1       -2 0.26945314E+00 0.25381438E+04</pdfrwt>
<totfact> 0.12351514E+00</totfact>
</mgrwt>
</event>
<event>
 6    1  0.2047711E-005  0.2227839E+04  0.7818608E-02  0.8506929E-01
         -1   -1    0    0    0  501 -0.00000000000E+00  0.00000000000E+00  0.77812299611E+03  0.77812299611E+03  0.00000000000E+00 0.  1.
          1   -1    0    0  501    0  0.00000000000E+00 -0.00000000000E+00 -0.15946285320E+04  0.15946285320E+04  0.00000000000E+00 0. -1.
         23    2    1    2    0    0  0.29755310313E+03 -0.10092876639E+04 -0.79211161105E+03  0.13202333566E+04  0.91519800352E+02 0.  0.
         13    1    3    3    0    0  0.21699950985E+03 -0.58639098287E+03 -0.45004846969E+03  0.77038094288E+03  0.00000000000E+00 0. -1.
        -13    1    3    3    0    0  0.80553593278E+02 -0.42289668103E+03 -0.34206314135E+03  0.54985241373E+03  0.00000000000E+00 0.  1.
         22    1    1    2    0    0 -0.29755310313E+03  0.10092876639E+04 -0.24393924795E+02  0.10525181715E+04  0.00000000000E+00 0.  1.
<mgrwt>
<rscale>  0 0.22278394E+04</rscale>
<asrwt>0</asrwt>
<pdfrwt beam="1">  1        1 0.24532746E+00 0.22278394E+04</pdfrwt>
<pdfrwt beam="2">  1       -1 0.11971123E+00 0.22278394E+04</pdfrwt>
<totfact> 0.31874772E+00</totfact>
</mgrwt>
</event>
<event>
 6    1  0.2047711E-005  0.1511420E+04  0.7818608E-02  0.8876894E-01
          2   -1    0    0  501    0  0.00000000000E+00  0.00000000000E+00  0.94582210456E+03  0.94582210456E+03  0.00000000000E+00 0.  1.
         -2   -1    0    0    0  501 -0.00000000000E+00 -0.00000000000E+00 -0.60381084835E+03  0.60381084835E+03  0.00000000000E+00 0. -1.
         23    2    1    2    0    0 -0.34268426871E+03 -0.29428543171E+02 -0.51521208975E+03  0.62598236311E+03  0.90065944311E+02 0.  0.
         11    1    3    3    0    0 -0.11701950539E+03 -0.27587016058E+02 -0.25242138685E+03  0.27959106681E+03  0.00000000000E+00 0. -1.
        -11    1    3    3    0    0 -0.22566476332E+03 -0.18415271124E+01 -0.26279070290E+03  0.34639129630E+03  0.00000000000E+00 0.  1.
         22    1    1    2    0    0  0.34268426871E+03  0.29428543171E+02  0.85722334596E+03  0.92365058980E+03  0.00000000000E+00 0.  1.
<mgrwt>
<rscale>  0 0.15114201E+04</rscale>
<asrwt>0</asrwt>
<pdfrwt beam="1">  1        2 0.14551109E+00 0.15114201E+04</pdfrwt>
<pdfrwt beam="2">  1       -2 0.92893977E-01 0.15114201E+04</pdfrwt>
<totfact> 0.25909549E+01</totfact>
</mgrwt>
</event>
<event>
 6    1  0.2047711E-005  0.2295767E+04  0.7818608E-02  0.8479592E-01
          2   -1    0    0  501    0  0.00000000000E+00  0.00000000000E+00  0.13948389003E+04  0.13948389003E+04  0.00000000000E+00 0. -1.
         -2   -1    0    0    0  501 -0.00000000000E+00 -0.00000000000E+00 -0.94465172513E+03  0.94465172513E+03  0.00000000000E+00 0.  1.
         23    2    1    2    0    0  0.58130741303E+03 -0.41008669706E+03  0.11411668000E+04  0.13477536393E+04  0.89937753132E+02 0.  0.
         11    1    3    3    0    0  0.14531130981E+03 -0.73883016232E+02  0.31947124413E+03  0.35865854608E+03  0.00000000000E+00 0. -1.
        -11    1    3    3    0    0  0.43599610322E+03 -0.33620368083E+03  0.82169555584E+03  0.98909509326E+03  0.00000000000E+00 0.  1.
         22    1    1    2    0    0 -0.58130741303E+03  0.41008669706E+03 -0.69097962484E+03  0.99173698605E+03  0.00000000000E+00 0.  1.
<mgrwt>
<rscale>  0 0.22957674E+04</rscale>
<asrwt>0</asrwt>
<pdfrwt beam="1">  1        2 0.21459060E+00 0.22957674E+04</pdfrwt>
<pdfrwt beam="2">  1       -2 0.14533104E+00 0.22957674E+04</pdfrwt>
<totfact> 0.43046089E+00</totfact>
</mgrwt>
</event>
<event>
 6    1  0.2047711E-005  0.1231876E+04  0.7818608E-02  0.9085404E-01
          2   -1    0    0  501    0  0.00000000000E+00  0.00000000000E+00  0.36342909788E+03  0.36342909788E+03  0.00000000000E+00 0. -1.
         -2   -1    0    0    0  501 -0.00000000000E+00 -0.00000000000E+00 -0.10438895359E+04  0.10438895359E+04  0.00000000000E+00 0.  1.
         23    2    1    2    0    0  0.15597549128E+03 -0.57139326833E+03 -0.16379423840E+03  0.62133989184E+03  0.91739237395E+02 0.  0.
         11    1    3    3    0    0  0.97238156431E+02 -0.48511915933E+03 -0.12879929461E+03  0.51125836532E+03  0.00000000000E+00 0.  1.
        -11    1    3    3    0    0  0.58737334853E+02 -0.86274109000E+02 -0.34994943791E+02  0.11008152652E+03  0.00000000000E+00 0. -1.
         22    1    1    2    0    0 -0.15597549128E+03  0.57139326833E+03 -0.51666619964E+03  0.78597874197E+03  0.00000000000E+00 0. -1.
<mgrwt>
<rscale>  0 0.12318763E+04</rscale>
<asrwt>0</asrwt>
<pdfrwt beam="1">  1        2 0.55912168E-01 0.12318763E+04</pdfrwt>
<pdfrwt beam="2">  1       -2 0.16059839E+00 0.12318763E+04</pdfrwt>
<totfact> 0.21724246E+01</totfact>
</mgrwt>
</event>
<event>
 6    1  0.2047711E-005  0.9964215E+03  0.7818608E-02  0.9312478E-01
         -1   -1    0    0    0  501 -0.00000000000E+00  0.00000000000E+00  0.14842744686E+03  0.14842744686E+03  0.00000000000E+00 0. -1.
          1   -1    0    0  501    0  0.00000000000E+00 -0.00000000000E+00 -0.16722915817E+04  0.16722915817E+04  0.00000000000E+00 0.  1.
         23    2    1    2    0    0  0.48945654554E+03 -0.75090349526E+01 -0.64553352208E+03  0.81518993356E+03  0.90537307565E+02 0.  0.
         13    1    3    3    0    0  0.38007336771E+03 -0.43627793024E+02 -0.49099570071E+03  0.62244351332E+03  0.00000000000E+00 0.  1.
        -13    1    3    3    0    0  0.10938317783E+03  0.36118758071E+02 -0.15453782138E+03  0.19274642024E+03  0.00000000000E+00 0. -1.
         22    1    1    2    0    0 -0.48945654554E+03  0.75090349526E+01 -0.87833061276E+03  0.10055290950E+04  0.00000000000E+00 0.  1.
<mgrwt>
<rscale>  0 0.99642154E+03</rscale>
<asrwt>0</asrwt>
<pdfrwt beam="1">  1        1 0.25727563E+00 0.99642154E+03</pdfrwt>
<pdfrwt beam="2">  1       -1 0.22834992E-01 0.99642154E+03</pdfrwt>
<totfact> 0.81744658E+01</totfact>
</mgrwt>
</event>
<event>
 6    1  0.2047711E-005  0.4832886E+04  0.7818608E-02  0.7854816E-01
          2   -1    0    0  501    0  0.00000000000E+00  0.00000000000E+00  0.29813862094E+04  0.29813862094E+04  0.00000000000E+00 0. -1.
         -2   -1    0    0    0  501 -0.00000000000E+00 -0.00000000000E+00 -0.19585510694E+04  0.19585510694E+04  0.00000000000E+00 0.  1.
         23    2    1    2    0    0 -0.54225624915E+03 -0.14697995308E+04 -0.13678207612E+04  0.20816881403E+04  0.90218501785E+02 0.  0.
         13    1    3    3    0    0 -0.19030900846E+02 -0.27904376464E+02 -0.44411272083E+02  0.55795972085E+02  0.00000000000E+00 0.  1.
        -13    1    3    3    0    0 -0.52322534831E+03 -0.14418951543E+04 -0.13234094891E+04  0.20258921682E+04  0.00000000000E+00 0. -1.
         22    1    1    2    0    0  0.54225624915E+03  0.14697995308E+04  0.23906559012E+04  0.28582491386E+04  0.00000000000E+00 0. -1.
<mgrwt>
<rscale>  0 0.48328862E+04</rscale>
<asrwt>0</asrwt>
<pdfrwt beam="1">  1        2 0.45867480E+00 0.48328862E+04</pdfrwt>
<pdfrwt beam="2">  1       -2 0.30131555E+00 0.48328862E+04</pdfrwt>
<totfact> 0.41147068E-02</totfact>
</mgrwt>
</event>
<event>
 6    1  0.2047711E-005  0.3040716E+04  0.7818608E-02  0.8232199E-01
          2   -1    0    0  501    0  0.00000000000E+00  0.00000000000E+00  0.10162766665E+04  0.10162766665E+04  0.00000000000E+00 0. -1.
         -2   -1    0    0    0  501 -0.00000000000E+00 -0.00000000000E+00 -0.22744672784E+04  0.22744672784E+04  0.00000000000E+00 0.  1.
         23    2    1    2    0    0 -0.13845805431E+04 -0.61320037935E+03 -0.50017164478E+03  0.15973241091E+04  0.90524304481E+02 0.  0.
         13    1    3    3    0    0 -0.80576545529E+03 -0.38007485824E+03 -0.25277999408E+03  0.92607375096E+03  0.00000000000E+00 0.  1.
        -13    1    3    3    0    0 -0.57881508785E+03 -0.23312552111E+03 -0.24739165071E+03  0.67125035818E+03  0.00000000000E+00 0. -1.
         22    1    1    2    0    0  0.13845805431E+04  0.61320037935E+03 -0.75801896713E+03  0.16934198358E+04  0.00000000000E+00 0.  1.
<mgrwt>
<rscale>  0 0.30407157E+04</rscale>
<asrwt>0</asrwt>
<pdfrwt beam="1">  1        2 0.15635026E+00 0.30407157E+04</pdfrwt>
<pdfrwt beam="2">  1       -2 0.34991804E+00 0.30407157E+04</pdfrwt>
<totfact> 0.32669528E-01</totfact>
</mgrwt>
</event>
<event>
 6    1  0.2047711E-005  0.1343523E+04  0.7818608E-02  0.8995745E-01
          2   -1    0    0  501    0  0.00000000000E+00  0.00000000000E+00  0.35742418444E+03  0.35742418444E+03  0.00000000000E+00 0. -1.
         -2   -1    0    0    0  501 -0.00000000000E+00 -0.00000000000E+00 -0.12625442185E+04  0.12625442185E+04  0.00000000000E+00 0.  1.
         23    2    1    2    0    0 -0.35876397020E+03  0.57704267664E+02  0.22212059450E+03  0.43560663240E+03  0.91510714531E+02 0.  0.
         13    1    3    3    0    0 -0.16716205180E+03  0.51412595699E+02  0.61118134312E+02  0.18526152569E+03  0.00000000000E+00 0. -1.
        -13    1    3    3    0    0 -0.19160191840E+03  0.62916719645E+01  0.16100246018E+03  0.25034510671E+03  0.00000000000E+00 0.  1.
         22    1    1    2    0    0  0.35876397020E+03 -0.57704267664E+02 -0.11272406285E+04  0.11843617705E+04  0.00000000000E+00 0.  1.
<mgrwt>
<rscale>  0 0.13435235E+04</rscale>
<asrwt>0</asrwt>
<pdfrwt beam="1">  1        2 0.54988336E-01 0.13435235E+04</pdfrwt>
<pdfrwt beam="2">  1       -2 0.19423757E+00 0.13435235E+04</pdfrwt>
<totfact> 0.12794420E+01</totfact>
</mgrwt>
</event>
<event>
 6    1  0.2047711E-005  0.2120905E+04  0.7818608E-02  0.8552090E-01
         -2   -1    0    0    0  501 -0.00000000000E+00  0.00000000000E+00  0.10459490245E+04  0.10459490245E+04  0.00000000000E+00 0.  1.
          2   -1    0    0  501    0  0.00000000000E+00 -0.00000000000E+00 -0.10751570209E+04  0.10751570209E+04  0.00000000000E+00 0. -1.
         23    2    1    2    0    0  0.89359956803E+02  0.43163090605E+03 -0.97707350369E+03  0.10757642541E+04  0.91135381874E+02 0.  0.
         11    1    3    3    0    0  0.10474534019E+03  0.30419309959E+03 -0.70315461800E+03  0.77326026986E+03  0.00000000000E+00 0.  1.
        -11    1    3    3    0    0 -0.15385383392E+02  0.12743780646E+03 -0.27391888569E+03  0.30250398423E+03  0.00000000000E+00 0. -1.
         22    1    1    2    0    0 -0.89359956803E+02 -0.43163090605E+03  0.94786550728E+03  0.10453417914E+04  0.00000000000E+00 0.  1.
<mgrwt>
<rscale>  0 0.21209049E+04</rscale>
<asrwt>0</asrwt>
<pdfrwt beam="1">  1        2 0.16540877E+00 0.21209049E+04</pdfrwt>
<pdfrwt beam="2">  1       -2 0.16091523E+00 0.21209049E+04</pdfrwt>
<totfact> 0.51500171E+00</totfact>
</mgrwt>
</event>
<event>
 6    1  0.2047711E-005  0.1850620E+04  0.7818608E-02  0.8679834E-01
          2   -1    0    0  501    0  0.00000000000E+00  0.00000000000E+00  0.14576094533E+04  0.14576094533E+04  0.00000000000E+00 0. -1.
         -2   -1    0    0    0  501 -0.00000000000E+00 -0.00000000000E+00 -0.58739912637E+03  0.58739912637E+03  0.00000000000E+00 0.  1.
         23    2    1    2    0    0  0.83962053282E+03 -0.20610616350E+03  0.79389087672E+03  0.11770989944E+04  0.88639318299E+02 0.  0.
         11    1    3    3    0    0  0.49191781428E+03 -0.13012965445E+03  0.52423659460E+03  0.73057571140E+03  0.00000000000E+00 0. -1.
        -11    1    3    3    0    0  0.34770271854E+03 -0.75976509046E+02  0.26965428212E+03  0.44652328301E+03  0.00000000000E+00 0.  1.
         22    1    1    2    0    0 -0.83962053282E+03  0.20610616350E+03  0.76319450253E+02  0.86790958529E+03  0.00000000000E+00 0.  1.
<mgrwt>
<rscale>  0 0.18506199E+04</rscale>
<asrwt>0</asrwt>
<pdfrwt beam="1">  1        2 0.22424761E+00 0.18506199E+04</pdfrwt>
<pdfrwt beam="2">  1       -2 0.90369097E-01 0.18506199E+04</pdfrwt>
<totfact> 0.13206360E+01</totfact>
</mgrwt>
</event>
<event>
 6    1  0.2047711E-005  0.3108752E+04  0.7818608E-02  0.8213340E-01
          2   -1    0    0  501    0  0.00000000000E+00  0.00000000000E+00  0.18039828655E+04  0.18039828655E+04  0.00000000000E+00 0. -1.
         -2   -1    0    0    0  501 -0.00000000000E+00 -0.00000000000E+00 -0.13393055234E+04  0.13393055234E+04  0.00000000000E+00 0.  1.
         23    2    1    2    0    0  0.24662512780E+03  0.70908454114E+03 -0.11417400886E+04  0.13700986635E+04  0.99875311396E+02 0.  0.
         13    1    3    3    0    0  0.10143194345E+03  0.43509512990E+03 -0.69876824483E+03  0.82938125804E+03  0.00000000000E+00 0.  1.
        -13    1    3    3    0    0  0.14519318435E+03  0.27398941124E+03 -0.44297184376E+03  0.54071740551E+03  0.00000000000E+00 0. -1.
         22    1    1    2    0    0 -0.24662512780E+03 -0.70908454114E+03  0.16064174307E+04  0.17731897253E+04  0.00000000000E+00 0. -1.
<mgrwt>
<rscale>  0 0.31087517E+04</rscale>
<asrwt>0</asrwt>
<pdfrwt beam="1">  1        2 0.27753582E+00 0.31087517E+04</pdfrwt>
<pdfrwt beam="2">  1       -2 0.20604700E+00 0.31087517E+04</pdfrwt>
<totfact> 0.88463293E-01</totfact>
</mgrwt>
</event>
<event>
 6    1  0.2734464E-005  0.3454571E+04  0.7818608E-02  0.8124641E-01
          2   -1    0    0  501    0  0.00000000000E+00  0.00000000000E+00  0.22463769013E+04  0.22463769013E+04  0.00000000000E+00 0. -1.
         -2   -1    0    0    0  501 -0.00000000000E+00 -0.00000000000E+00 -0.13281452959E+04  0.13281452959E+04  0.00000000000E+00 0.  1.
         23    2    1    2    0    0 -0.92788667380E+03  0.69160498183E+03 -0.86570637101E+03  0.14480871914E+04  0.90652428786E+02 0.  0.
         11    1    3    3    0    0 -0.55937340576E+03  0.40502629941E+03 -0.57024445264E+03  0.89561355844E+03  0.00000000000E+00 0.  1.
        -11    1    3    3    0    0 -0.36851326804E+03  0.28657868242E+03 -0.29546191837E+03  0.55247363299E+03  0.00000000000E+00 0. -1.
         22    1    1    2    0    0  0.92788667380E+03 -0.69160498183E+03  0.17839379764E+04  0.21264350058E+04  0.00000000000E+00 0. -1.
<mgrwt>
<rscale>  0 0.34545708E+04</rscale>
<asrwt>0</asrwt>
<pdfrwt beam="1">  1        2 0.34559645E+00 0.34545708E+04</pdfrwt>
<pdfrwt beam="2">  1       -2 0.20433005E+00 0.34545708E+04</pdfrwt>
<totfact> 0.49966573E-01</totfact>
</mgrwt>
</event>
<event>
 6    1  0.2763903E-005  0.3084117E+04  0.7818608E-02  0.8220111E-01
         -2   -1    0    0    0  501 -0.00000000000E+00  0.00000000000E+00  0.17770778051E+04  0.17770778051E+04  0.00000000000E+00 0.  1.
          2   -1    0    0  501    0  0.00000000000E+00 -0.00000000000E+00 -0.13381202670E+04  0.13381202670E+04  0.00000000000E+00 0. -1.
         23    2    1    2    0    0 -0.21800769852E+03  0.26260489920E+03 -0.12978209256E+04  0.13452014276E+04  0.93482813136E+02 0.  0.
         13    1    3    3    0    0 -0.95714596990E+02  0.16271541275E+03 -0.83878145757E+03  0.85976271331E+03  0.00000000000E+00 0. -1.
        -13    1    3    3    0    0 -0.12229310153E+03  0.99889486447E+02 -0.45903946799E+03  0.48543871431E+03  0.00000000000E+00 0.  1.
         22    1    1    2    0    0  0.21800769852E+03 -0.26260489920E+03  0.17367784637E+04  0.17699966445E+04  0.00000000000E+00 0.  1.
<mgrwt>
<rscale>  0 0.30841166E+04</rscale>
<asrwt>0</asrwt>
<pdfrwt beam="1">  1        2 0.20586466E+00 0.30841166E+04</pdfrwt>
<pdfrwt beam="2">  1       -2 0.27339658E+00 0.30841166E+04</pdfrwt>
<totfact> 0.61704141E-01</totfact>
</mgrwt>
</event>
<event>
 6    1  0.2047711E-005  0.3347310E+04  0.7818608E-02  0.8150961E-01
          2   -1    0    0  501    0  0.00000000000E+00  0.00000000000E+00  0.36264159270E+04  0.36264159270E+04  0.00000000000E+00 0. -1.
         -2   -1    0    0    0  501 -0.00000000000E+00 -0.00000000000E+00 -0.77242141812E+03  0.77242141812E+03  0.00000000000E+00 0.  1.
         23    2    1    2    0    0  0.60665510762E+03 -0.31391344698E+02  0.34757052529E+04  0.35296192566E+04  0.93108838564E+02 0.  0.
         11    1    3    3    0    0  0.39404467781E+03  0.21417977035E+02  0.23232274306E+04  0.23565049612E+04  0.00000000000E+00 0.  1.
        -11    1    3    3    0    0  0.21261042981E+03 -0.52809321733E+02  0.11524778223E+04  0.11731142954E+04  0.00000000000E+00 0. -1.
         22    1    1    2    0    0 -0.60665510762E+03  0.31391344698E+02 -0.62171074401E+03  0.86921808848E+03  0.00000000000E+00 0.  1.
<mgrwt>
<rscale>  0 0.33473102E+04</rscale>
<asrwt>0</asrwt>
<pdfrwt beam="1">  1        2 0.55791013E+00 0.33473102E+04</pdfrwt>
<pdfrwt beam="2">  1       -2 0.11883407E+00 0.33473102E+04</pdfrwt>
<totfact> 0.29858565E-01</totfact>
</mgrwt>
</event>
<event>
 6    1  0.2047711E-005  0.4734973E+04  0.7818608E-02  0.7870744E-01
          2   -1    0    0  501    0  0.00000000000E+00  0.00000000000E+00  0.37990039706E+04  0.37990039706E+04  0.00000000000E+00 0. -1.
         -2   -1    0    0    0  501 -0.00000000000E+00 -0.00000000000E+00 -0.14753844184E+04  0.14753844184E+04  0.00000000000E+00 0.  1.
         23    2    1    2    0    0 -0.17143345939E+04  0.55779961900E+03  0.28701909194E+04  0.33905561847E+04  0.88271245029E+02 0.  0.
         13    1    3    3    0    0 -0.13962939734E+04  0.48384771675E+03  0.23859915791E+04  0.28065461493E+04  0.00000000000E+00 0.  1.
        -13    1    3    3    0    0 -0.31804062054E+03  0.73951902250E+02  0.48419934034E+03  0.58401003531E+03  0.00000000000E+00 0. -1.
         22    1    1    2    0    0  0.17143345939E+04 -0.55779961900E+03 -0.54657136718E+03  0.18838322044E+04  0.00000000000E+00 0.  1.
<mgrwt>
<rscale>  0 0.47349726E+04</rscale>
<asrwt>0</asrwt>
<pdfrwt beam="1">  1        2 0.58446215E+00 0.47349726E+04</pdfrwt>
<pdfrwt beam="2">  1       -2 0.22698222E+00 0.47349726E+04</pdfrwt>
<totfact> 0.32559175E-02</totfact>
</mgrwt>
</event>
<event>
 6    1  0.2047711E-005  0.2873940E+04  0.7818608E-02  0.8280673E-01
          2   -1    0    0  501    0  0.00000000000E+00  0.00000000000E+00  0.13862233351E+04  0.13862233351E+04  0.00000000000E+00 0. -1.
         -2   -1    0    0    0  501 -0.00000000000E+00 -0.00000000000E+00 -0.14895747514E+04  0.14895747514E+04  0.00000000000E+00 0.  1.
         23    2    1    2    0    0  0.91038519719E+03  0.73696456076E+02 -0.11599380488E+04  0.14791565123E+04  0.90638489561E+02 0.  0.
         11    1    3    3    0    0  0.10934189257E+03  0.77961976254E+01 -0.95750681683E+02  0.14554938410E+03  0.00000000000E+00 0. -1.
        -11    1    3    3    0    0  0.80104330462E+03  0.65900258450E+02 -0.10641873671E+04  0.13336071282E+04  0.00000000000E+00 0.  1.
         22    1    1    2    0    0 -0.91038519719E+03 -0.73696456076E+02  0.10565866325E+04  0.13966415742E+04  0.00000000000E+00 0. -1.
<mgrwt>
<rscale>  0 0.28739403E+04</rscale>
<asrwt>0</asrwt>
<pdfrwt beam="1">  1        2 0.21326513E+00 0.28739403E+04</pdfrwt>
<pdfrwt beam="2">  1       -2 0.22916534E+00 0.28739403E+04</pdfrwt>
<totfact> 0.11029826E+00</totfact>
</mgrwt>
</event>
<event>
 6    1  0.2047711E-005  0.2689947E+04  0.7818608E-02  0.8338274E-01
          2   -1    0    0  501    0  0.00000000000E+00  0.00000000000E+00  0.15017672026E+04  0.15017672026E+04  0.00000000000E+00 0. -1.
         -2   -1    0    0    0  501 -0.00000000000E+00 -0.00000000000E+00 -0.12045496199E+04  0.12045496199E+04  0.00000000000E+00 0.  1.
         23    2    1    2    0    0  0.74254885957E+03  0.89908361489E+03  0.81985638974E+03  0.14284743134E+04  0.92974238091E+02 0.  0.
         11    1    3    3    0    0  0.50276867411E+03  0.55016735914E+03  0.49260564102E+03  0.89337605760E+03  0.00000000000E+00 0.  1.
        -11    1    3    3    0    0  0.23978018547E+03  0.34891625575E+03  0.32725074871E+03  0.53509825584E+03  0.00000000000E+00 0. -1.
         22    1    1    2    0    0 -0.74254885957E+03 -0.89908361489E+03 -0.52263880699E+03  0.12778425091E+04  0.00000000000E+00 0.  1.
<mgrwt>
<rscale>  0 0.26899466E+04</rscale>
<asrwt>0</asrwt>
<pdfrwt beam="1">  1        2 0.23104111E+00 0.26899466E+04</pdfrwt>
<pdfrwt beam="2">  1       -2 0.18531533E+00 0.26899466E+04</pdfrwt>
<totfact> 0.18542072E+00</totfact>
</mgrwt>
</event>
<event>
 6    1  0.2047711E-005  0.2691701E+04  0.7818608E-02  0.8337703E-01
         -2   -1    0    0    0  501 -0.00000000000E+00  0.00000000000E+00  0.60564032481E+03  0.60564032481E+03  0.00000000000E+00 0.  1.
          2   -1    0    0  501    0  0.00000000000E+00 -0.00000000000E+00 -0.29907415796E+04  0.29907415796E+04  0.00000000000E+00 0. -1.
         23    2    1    2    0    0  0.32075402532E+02 -0.50417623791E+03 -0.28583192658E+04  0.29041696564E+04  0.94814858979E+02 0.  0.
         13    1    3    3    0    0  0.29316396574E+01 -0.46588984865E+03 -0.25899080776E+04  0.26314797731E+04  0.00000000000E+00 0. -1.
        -13    1    3    3    0    0  0.29143762875E+02 -0.38286389261E+02 -0.26841118816E+03  0.27268988329E+03  0.00000000000E+00 0.  1.
         22    1    1    2    0    0 -0.32075402532E+02  0.50417623791E+03  0.47321801104E+03  0.69221224801E+03  0.00000000000E+00 0.  1.
<mgrwt>
<rscale>  0 0.26917011E+04</rscale>
<asrwt>0</asrwt>
<pdfrwt beam="1">  1        2 0.46011410E+00 0.26917011E+04</pdfrwt>
<pdfrwt beam="2">  1       -2 0.93175433E-01 0.26917011E+04</pdfrwt>
<totfact> 0.15102044E+00</totfact>
</mgrwt>
</event>
<event>
 6    1  0.2047711E-005  0.4364219E+04  0.7818608E-02  0.7934849E-01
         -2   -1    0    0    0  501 -0.00000000000E+00  0.00000000000E+00  0.25542168053E+04  0.25542168053E+04  0.00000000000E+00 0.  1.
          2   -1    0    0  501    0  0.00000000000E+00 -0.00000000000E+00 -0.18642120217E+04  0.18642120217E+04  0.00000000000E+00 0. -1.
         23    2    1    2    0    0  0.18105065705E+04 -0.79830773576E+03 -0.58399311729E+03  0.20650695399E+04  0.90746684161E+02 0.  0.
         13    1    3    3    0    0  0.87125552576E+03 -0.42788384198E+03 -0.30855009376E+03  0.10185155540E+04  0.00000000000E+00 0. -1.
        -13    1    3    3    0    0  0.93925104473E+03 -0.37042389378E+03 -0.27544302353E+03  0.10465539859E+04  0.00000000000E+00 0.  1.
         22    1    1    2    0    0 -0.18105065705E+04  0.79830773576E+03  0.12739979010E+04  0.23533592872E+04  0.00000000000E+00 0.  1.
<mgrwt>
<rscale>  0 0.43642189E+04</rscale>
<asrwt>0</asrwt>
<pdfrwt beam="1">  1        2 0.28680185E+00 0.43642189E+04</pdfrwt>
<pdfrwt beam="2">  1       -2 0.39295643E+00 0.43642189E+04</pdfrwt>
<totfact> 0.50240563E-02</totfact>
</mgrwt>
</event>
<event>
 6    1  0.2047711E-005  0.2382993E+04  0.7818608E-02  0.8445898E-01
          1   -1    0    0  501    0  0.00000000000E+00  0.00000000000E+00  0.29593218777E+04  0.29593218777E+04  0.00000000000E+00 0. -1.
         -1   -1    0    0    0  501 -0.00000000000E+00 -0.00000000000E+00 -0.47972621155E+03  0.47972621155E+03  0.00000000000E+00 0.  1.
         23    2    1    2    0    0 -0.63900559280E+03  0.10026197905E+04  0.13047169273E+04  0.17675473735E+04  0.91448701432E+02 0.  0.
         11    1    3    3    0    0 -0.29130676943E+03  0.53657545108E+03  0.64420768082E+03  0.88756767891E+03  0.00000000000E+00 0. -1.
        -11    1    3    3    0    0 -0.34769882337E+03  0.46604433945E+03  0.66050924650E+03  0.87997969455E+03  0.00000000000E+00 0.  1.
         22    1    1    2    0    0  0.63900559280E+03 -0.10026197905E+04  0.11748787389E+04  0.16715007158E+04  0.00000000000E+00 0.  1.
<mgrwt>
<rscale>  0 0.23829933E+04</rscale>
<asrwt>0</asrwt>
<pdfrwt beam="1">  1        1 0.45528028E+00 0.23829933E+04</pdfrwt>
<pdfrwt beam="2">  1       -1 0.73804034E-01 0.23829933E+04</pdfrwt>
<totfact> 0.10621694E+00</totfact>
</mgrwt>
</event>
<event>
 6    1  0.2047711E-005  0.1906810E+04  0.7818608E-02  0.8651474E-01
         -2   -1    0    0    0  501 -0.00000000000E+00  0.00000000000E+00  0.24417034728E+03  0.24417034728E+03  0.00000000000E+00 0.  1.
          2   -1    0    0  501    0  0.00000000000E+00 -0.00000000000E+00 -0.37227327448E+04  0.37227327448E+04  0.00000000000E+00 0. -1.
         23    2    1    2    0    0 -0.10739097702E+03  0.52019287801E+03 -0.33849337460E+04  0.34275518367E+04  0.90563105216E+02 0.  0.
         11    1    3    3    0    0 -0.75345549369E+02  0.48280778057E+03 -0.31287147248E+04  0.31666443018E+04  0.00000000000E+00 0. -1.
        -11    1    3    3    0    0 -0.32045427655E+02  0.37385097438E+02 -0.25621902125E+03  0.26090753495E+03  0.00000000000E+00 0.  1.
         22    1    1    2    0    0  0.10739097702E+03 -0.52019287801E+03 -0.93628651481E+02  0.53935125536E+03  0.00000000000E+00 0.  1.
<mgrwt>
<rscale>  0 0.19068098E+04</rscale>
<asrwt>0</asrwt>
<pdfrwt beam="1">  1        2 0.57272816E+00 0.19068098E+04</pdfrwt>
<pdfrwt beam="2">  1       -2 0.37564666E-01 0.19068098E+04</pdfrwt>
<totfact> 0.35450734E+00</totfact>
</mgrwt>
</event>
<event>
 6    1  0.2047711E-005  0.2739080E+04  0.7818608E-02  0.8322435E-01
          1   -1    0    0  501    0  0.00000000000E+00  0.00000000000E+00  0.23209932938E+04  0.23209932938E+04  0.00000000000E+00 0. -1.
         -1   -1    0    0    0  501 -0.00000000000E+00 -0.00000000000E+00 -0.80811941585E+03  0.80811941585E+03  0.00000000000E+00 0.  1.
         23    2    1    2    0    0 -0.77078807148E+03  0.10445172496E+04  0.26413194747E+03  0.13278667673E+04  0.91290362874E+02 0.  0.
         13    1    3    3    0    0 -0.45813568532E+02  0.59959933950E+02  0.37873769505E+02  0.84430439756E+02  0.00000000000E+00 0.  1.
        -13    1    3    3    0    0 -0.72497450294E+03  0.98455731561E+03  0.22625817796E+03  0.12434363276E+04  0.00000000000E+00 0. -1.
         22    1    1    2    0    0  0.77078807148E+03 -0.10445172496E+04  0.12487419305E+04  0.18012459423E+04  0.00000000000E+00 0. -1.
<mgrwt>
<rscale>  0 0.27390800E+04</rscale>
<asrwt>0</asrwt>
<pdfrwt beam="1">  1        1 0.35707589E+00 0.27390800E+04</pdfrwt>
<pdfrwt beam="2">  1       -1 0.12432607E+00 0.27390800E+04</pdfrwt>
<totfact> 0.88843793E-01</totfact>
</mgrwt>
</event>
<event>
 6    1  0.2047711E-005  0.4770798E+04  0.7818608E-02  0.7864870E-01
          2   -1    0    0  501    0  0.00000000000E+00  0.00000000000E+00  0.24038973179E+04  0.24038973179E+04  0.00000000000E+00 0.  1.
         -2   -1    0    0    0  501 -0.00000000000E+00 -0.00000000000E+00 -0.23670425582E+04  0.23670425582E+04  0.00000000000E+00 0. -1.
         23    2    1    2    0    0 -0.10816384073E+04 -0.10881201098E+04 -0.18069951893E+04  0.23722465544E+04  0.91515481624E+02 0.  0.
         11    1    3    3    0    0 -0.44645942198E+03 -0.44222802325E+03 -0.67161327200E+03  0.91975867876E+03  0.00000000000E+00 0.  1.
        -11    1    3    3    0    0 -0.63517898533E+03 -0.64589208651E+03 -0.11353819173E+04  0.14524878756E+04  0.00000000000E+00 0. -1.
         22    1    1    2    0    0  0.10816384073E+04  0.10881201098E+04  0.18438499489E+04  0.23986933217E+04  0.00000000000E+00 0.  1.
<mgrwt>
<rscale>  0 0.47707975E+04</rscale>
<asrwt>0</asrwt>
<pdfrwt beam="1">  1        2 0.36983036E+00 0.47707975E+04</pdfrwt>
<pdfrwt beam="2">  1       -2 0.36416039E+00 0.47707975E+04</pdfrwt>
<totfact> 0.37102171E-02</totfact>
</mgrwt>
</event>
<event>
 6    1  0.2047711E-005  0.2429917E+04  0.7818608E-02  0.8428387E-01
         -2   -1    0    0    0  501 -0.00000000000E+00  0.00000000000E+00  0.74888989741E+03  0.74888989741E+03  0.00000000000E+00 0. -1.
          2   -1    0    0  501    0  0.00000000000E+00 -0.00000000000E+00 -0.19710828557E+04  0.19710828557E+04  0.00000000000E+00 0.  1.
         23    2    1    2    0    0 -0.47327585000E+03  0.34261229733E+03 -0.18020745276E+04  0.18967863521E+04  0.94618424069E+02 0.  0.
         13    1    3    3    0    0 -0.37164483476E+03  0.31337190460E+03 -0.14804885545E+04  0.15582580639E+04  0.00000000000E+00 0. -1.
        -13    1    3    3    0    0 -0.10163101524E+03  0.29240392733E+02 -0.32158597307E+03  0.33852828819E+03  0.00000000000E+00 0.  1.
         22    1    1    2    0    0  0.47327585000E+03 -0.34261229733E+03  0.57988156925E+03  0.82318640103E+03  0.00000000000E+00 0. -1.
<mgrwt>
<rscale>  0 0.24299169E+04</rscale>
<asrwt>0</asrwt>
<pdfrwt beam="1">  1        2 0.30324351E+00 0.24299169E+04</pdfrwt>
<pdfrwt beam="2">  1       -2 0.11521383E+00 0.24299169E+04</pdfrwt>
<totfact> 0.36506467E+00</totfact>
</mgrwt>
</event>
<event>
 6    1  0.2047711E-005  0.2574132E+04  0.7818608E-02  0.8377041E-01
          2   -1    0    0  501    0  0.00000000000E+00  0.00000000000E+00  0.34232213299E+04  0.34232213299E+04  0.00000000000E+00 0. -1.
         -2   -1    0    0    0  501 -0.00000000000E+00 -0.00000000000E+00 -0.48391229762E+03  0.48391229762E+03  0.00000000000E+00 0.  1.
         23    2    1    2    0    0  0.10033183490E+04 -0.79681068505E+03  0.13031184511E+04  0.18289915257E+04  0.74413213122E+02 0.  0.
         13    1    3    3    0    0  0.34912980597E+03 -0.31231397588E+03  0.50903951434E+03  0.69177515719E+03  0.00000000000E+00 0. -1.
        -13    1    3    3    0    0  0.65418854306E+03 -0.48449670917E+03  0.79407893672E+03  0.11372163685E+04  0.00000000000E+00 0.  1.
         22    1    1    2    0    0 -0.10033183490E+04  0.79681068505E+03  0.16361905813E+04  0.20781421019E+04  0.00000000000E+00 0.  1.
<mgrwt>
<rscale>  0 0.25741320E+04</rscale>
<asrwt>0</asrwt>
<pdfrwt beam="1">  1        2 0.52664942E+00 0.25741320E+04</pdfrwt>
<pdfrwt beam="2">  1       -2 0.74448048E-01 0.25741320E+04</pdfrwt>
<totfact> 0.13233421E+00</totfact>
</mgrwt>
</event>
<event>
 6    1  0.2047711E-005  0.4012250E+04  0.7818608E-02  0.8002080E-01
          2   -1    0    0  501    0  0.00000000000E+00  0.00000000000E+00  0.18148025492E+04  0.18148025492E+04  0.00000000000E+00 0.  1.
         -2   -1    0    0    0  501 -0.00000000000E+00 -0.00000000000E+00 -0.22176173521E+04  0.22176173521E+04  0.00000000000E+00 0. -1.
         23    2    1    2    0    0  0.14003311310E+04  0.97958447400E+03  0.85245901320E+03  0.19119894328E+04  0.92218239926E+02 0.  0.
         13    1    3    3    0    0  0.55754682989E+03  0.35898645600E+03  0.37219883560E+03  0.76043521508E+03  0.00000000000E+00 0.  1.
        -13    1    3    3    0    0  0.84278430114E+03  0.62059801800E+03  0.48026017760E+03  0.11515542177E+04  0.00000000000E+00 0. -1.
         22    1    1    2    0    0 -0.14003311310E+04 -0.97958447400E+03 -0.12552738161E+04  0.21204304685E+04  0.00000000000E+00 0. -1.
<mgrwt>
<rscale>  0 0.40122501E+04</rscale>
<asrwt>0</asrwt>
<pdfrwt beam="1">  1        2 0.27920039E+00 0.40122501E+04</pdfrwt>
<pdfrwt beam="2">  1       -2 0.34117190E+00 0.40122501E+04</pdfrwt>
<totfact> 0.11795097E-01</totfact>
</mgrwt>
</event>
<event>
 6    1  0.2047711E-005  0.2704602E+04  0.7818608E-02  0.8333513E-01
         -2   -1    0    0    0  501 -0.00000000000E+00  0.00000000000E+00  0.11204407842E+04  0.11204407842E+04  0.00000000000E+00 0.  1.
          2   -1    0    0  501    0  0.00000000000E+00 -0.00000000000E+00 -0.16321419283E+04  0.16321419283E+04  0.00000000000E+00 0. -1.
         23    2    1    2    0    0  0.22038941823E+03  0.24616492260E+02 -0.16122007637E+04  0.16299621711E+04  0.91694652335E+02 0.  0.
         13    1    3    3    0    0  0.19595189441E+02 -0.22032881008E+02 -0.32786758046E+03  0.32919077996E+03  0.00000000000E+00 0. -1.
        -13    1    3    3    0    0  0.20079422878E+03  0.46649373269E+02 -0.12843331833E+04  0.13007713911E+04  0.00000000000E+00 0.  1.
         22    1    1    2    0    0 -0.22038941823E+03 -0.24616492260E+02  0.11004996196E+04  0.11226205415E+04  0.00000000000E+00 0.  1.
<mgrwt>
<rscale>  0 0.27046023E+04</rscale>
<asrwt>0</asrwt>
<pdfrwt beam="1">  1        2 0.25109876E+00 0.27046023E+04</pdfrwt>
<pdfrwt beam="2">  1       -2 0.17237551E+00 0.27046023E+04</pdfrwt>
<totfact> 0.19241245E+00</totfact>
</mgrwt>
</event>
<event>
 6    1  0.2047711E-005  0.3157953E+04  0.7818608E-02  0.8200011E-01
          2   -1    0    0  501    0  0.00000000000E+00  0.00000000000E+00  0.14766367501E+04  0.14766367501E+04  0.00000000000E+00 0. -1.
         -2   -1    0    0    0  501 -0.00000000000E+00 -0.00000000000E+00 -0.16884091149E+04  0.16884091149E+04  0.00000000000E+00 0.  1.
         23    2    1    2    0    0 -0.56814041437E+03  0.14619467747E+04 -0.27710499973E+03  0.15952241377E+04  0.88774805457E+02 0.  0.
         11    1    3    3    0    0 -0.19845635299E+03  0.40909184302E+03 -0.63678865037E+02  0.45912531831E+03  0.00000000000E+00 0. -1.
        -11    1    3    3    0    0 -0.36968406138E+03  0.10528549317E+04 -0.21342613469E+03  0.11360988193E+04  0.00000000000E+00 0.  1.
         22    1    1    2    0    0  0.56814041437E+03 -0.14619467747E+04  0.65332634884E+02  0.15698217273E+04  0.00000000000E+00 0. -1.
<mgrwt>
<rscale>  0 0.31579531E+04</rscale>
<asrwt>0</asrwt>
<pdfrwt beam="1">  1        2 0.22717488E+00 0.31579531E+04</pdfrwt>
<pdfrwt beam="2">  1       -2 0.25975525E+00 0.31579531E+04</pdfrwt>
<totfact> 0.61907476E-01</totfact>
</mgrwt>
</event>
<event>
 6    1  0.2047711E-005  0.1479680E+04  0.7818608E-02  0.8898079E-01
         -2   -1    0    0    0  501 -0.00000000000E+00  0.00000000000E+00  0.12458369797E+04  0.12458369797E+04  0.00000000000E+00 0.  1.
          2   -1    0    0  501    0  0.00000000000E+00 -0.00000000000E+00 -0.43935357773E+03  0.43935357773E+03  0.00000000000E+00 0. -1.
         23    2    1    2    0    0 -0.37032972972E+03  0.62922948499E+03  0.52420901335E+03  0.90240534808E+03  0.80414358561E+02 0.  0.
         13    1    3    3    0    0 -0.12178479416E+03  0.25091958893E+03  0.23974745168E+03  0.36779208364E+03  0.00000000000E+00 0. -1.
        -13    1    3    3    0    0 -0.24854493555E+03  0.37830989606E+03  0.28446156168E+03  0.53461326444E+03  0.00000000000E+00 0.  1.
         22    1    1    2    0    0  0.37032972972E+03 -0.62922948499E+03  0.28227438859E+03  0.78278520933E+03  0.00000000000E+00 0. -1.
<mgrwt>
<rscale>  0 0.14796796E+04</rscale>
<asrwt>0</asrwt>
<pdfrwt beam="1">  1        2 0.67592859E-01 0.14796796E+04</pdfrwt>
<pdfrwt beam="2">  1       -2 0.19166723E+00 0.14796796E+04</pdfrwt>
<totfact> 0.10437209E+01</totfact>
</mgrwt>
</event>
<event>
 6    1  0.2047711E-005  0.2535495E+04  0.7818608E-02  0.8390448E-01
         -2   -1    0    0    0  501 -0.00000000000E+00  0.00000000000E+00  0.88872919882E+03  0.88872919882E+03  0.00000000000E+00 0.  1.
          2   -1    0    0  501    0  0.00000000000E+00 -0.00000000000E+00 -0.18084072000E+04  0.18084072000E+04  0.00000000000E+00 0. -1.
         23    2    1    2    0    0 -0.84502458960E+03  0.94290077147E+03 -0.46680234466E+03  0.13524339105E+04  0.89691868896E+02 0.  0.
         13    1    3    3    0    0 -0.25485222938E+03  0.22562007321E+03 -0.11851665845E+03  0.36041680675E+03  0.00000000000E+00 0.  1.
        -13    1    3    3    0    0 -0.59017236021E+03  0.71728069826E+03 -0.34828568621E+03  0.99201710372E+03  0.00000000000E+00 0. -1.
         22    1    1    2    0    0  0.84502458960E+03 -0.94290077147E+03 -0.45287565648E+03  0.13447024883E+04  0.00000000000E+00 0. -1.
<mgrwt>
<rscale>  0 0.25354954E+04</rscale>
<asrwt>0</asrwt>
<pdfrwt beam="1">  1        2 0.27821649E+00 0.25354954E+04</pdfrwt>
<pdfrwt beam="2">  1       -2 0.13672757E+00 0.25354954E+04</pdfrwt>
<totfact> 0.28992521E+00</totfact>
</mgrwt>
</event>
<event>
 6    1  0.2047711E-005  0.1024744E+04  0.7818608E-02  0.9281815E-01
          2   -1    0    0  501    0  0.00000000000E+00  0.00000000000E+00  0.11911524611E+04  0.11911524611E+04  0.00000000000E+00 0. -1.
         -2   -1    0    0    0  501 -0.00000000000E+00 -0.00000000000E+00 -0.22039577454E+03  0.22039577454E+03  0.00000000000E+00 0.  1.
         23    2    1    2    0    0 -0.42135931624E+03  0.64924330559E+02  0.10779773256E+03  0.44902187321E+03  0.90782428895E+02 0.  0.
         11    1    3    3    0    0 -0.35408714410E+03  0.62261226154E+02  0.12304432471E+03  0.37999219958E+03  0.00000000000E+00 0.  1.
        -11    1    3    3    0    0 -0.67272172137E+02  0.26631044041E+01 -0.15246592146E+02  0.69029673628E+02  0.00000000000E+00 0. -1.
         22    1    1    2    0    0  0.42135931624E+03 -0.64924330559E+02  0.86295895400E+03  0.96252636242E+03  0.00000000000E+00 0. -1.
<mgrwt>
<rscale>  0 0.10247438E+04</rscale>
<asrwt>0</asrwt>
<pdfrwt beam="1">  1        2 0.18325422E+00 0.10247438E+04</pdfrwt>
<pdfrwt beam="2">  1       -2 0.33907043E-01 0.10247438E+04</pdfrwt>
<totfact> 0.15541269E+02</totfact>
</mgrwt>
</event>
<event>
 6    1  0.2047711E-005  0.1986286E+04  0.7818608E-02  0.8613059E-01
          2   -1    0    0  501    0  0.00000000000E+00  0.00000000000E+00  0.17674077248E+04  0.17674077248E+04  0.00000000000E+00 0.  1.
         -2   -1    0    0    0  501 -0.00000000000E+00 -0.00000000000E+00 -0.55806765742E+03  0.55806765742E+03  0.00000000000E+00 0. -1.
         23    2    1    2    0    0  0.97030453430E+03 -0.10785868852E+03  0.79950512957E+03  0.12666604493E+04  0.10998116036E+03 0.  0.
         13    1    3    3    0    0  0.27402667516E+03 -0.80023525042E+02  0.22234894249E+03  0.36184725436E+03  0.00000000000E+00 0.  1.
        -13    1    3    3    0    0  0.69627785914E+03 -0.27835163476E+02  0.57715618708E+03  0.90481319494E+03  0.00000000000E+00 0. -1.
         22    1    1    2    0    0 -0.97030453430E+03  0.10785868852E+03  0.40983493786E+03  0.10588149330E+04  0.00000000000E+00 0.  1.
<mgrwt>
<rscale>  0 0.19862861E+04</rscale>
<asrwt>0</asrwt>
<pdfrwt beam="1">  1        2 0.27190888E+00 0.19862861E+04</pdfrwt>
<pdfrwt beam="2">  1       -2 0.85856564E-01 0.19862861E+04</pdfrwt>
<totfact> 0.98530811E+00</totfact>
</mgrwt>
</event>
<event>
 6    1  0.2047711E-005  0.1983361E+04  0.7818608E-02  0.8614440E-01
          2   -1    0    0  501    0  0.00000000000E+00  0.00000000000E+00  0.20881036639E+04  0.20881036639E+04  0.00000000000E+00 0. -1.
         -2   -1    0    0    0  501 -0.00000000000E+00 -0.00000000000E+00 -0.47096803883E+03  0.47096803883E+03  0.00000000000E+00 0.  1.
         23    2    1    2    0    0 -0.48244361477E+03  0.59480813146E+03  0.16550510970E+01  0.77124451881E+03  0.90922021104E+02 0.  0.
         11    1    3    3    0    0 -0.20713024586E+03  0.18737861528E+03 -0.79597788111E+01  0.27942269466E+03  0.00000000000E+00 0. -1.
        -11    1    3    3    0    0 -0.27531336891E+03  0.40742951618E+03  0.96148299082E+01  0.49182182415E+03  0.00000000000E+00 0.  1.
         22    1    1    2    0    0  0.48244361477E+03 -0.59480813146E+03  0.16154805740E+04  0.17878271839E+04  0.00000000000E+00 0. -1.
<mgrwt>
<rscale>  0 0.19833609E+04</rscale>
<asrwt>0</asrwt>
<pdfrwt beam="1">  1        2 0.32124671E+00 0.19833609E+04</pdfrwt>
<pdfrwt beam="2">  1       -2 0.72456622E-01 0.19833609E+04</pdfrwt>
<totfact> 0.95656181E+00</totfact>
</mgrwt>
</event>
<event>
 6    1  0.2047711E-005  0.1042483E+04  0.7818608E-02  0.9263139E-01
         -2   -1    0    0    0  501 -0.00000000000E+00  0.00000000000E+00  0.40277812743E+03  0.40277812743E+03  0.00000000000E+00 0.  1.
          2   -1    0    0  501    0  0.00000000000E+00 -0.00000000000E+00 -0.67454715338E+03  0.67454715338E+03  0.00000000000E+00 0. -1.
         23    2    1    2    0    0  0.60463869874E+02 -0.13256818743E+03  0.37583104076E+03  0.41353611978E+03  0.92373953504E+02 0.  0.
         11    1    3    3    0    0  0.48304880089E+02 -0.35033353167E+02  0.68376574532E+02  0.90752703647E+02  0.00000000000E+00 0.  1.
        -11    1    3    3    0    0  0.12158989785E+02 -0.97534834260E+02  0.30745446623E+03  0.32278341614E+03  0.00000000000E+00 0. -1.
         22    1    1    2    0    0 -0.60463869874E+02  0.13256818743E+03 -0.64760006672E+03  0.66378916102E+03  0.00000000000E+00 0. -1.
<mgrwt>
<rscale>  0 0.10424833E+04</rscale>
<asrwt>0</asrwt>
<pdfrwt beam="1">  1        2 0.10377648E+00 0.10424833E+04</pdfrwt>
<pdfrwt beam="2">  1       -2 0.61965866E-01 0.10424833E+04</pdfrwt>
<totfact> 0.10348791E+02</totfact>
</mgrwt>
</event>
<event>
 6    1  0.2047711E-005  0.1948321E+04  0.7818608E-02  0.8631171E-01
         -2   -1    0    0    0  501 -0.00000000000E+00  0.00000000000E+00  0.47392197267E+03  0.47392197267E+03  0.00000000000E+00 0.  1.
          2   -1    0    0  501    0  0.00000000000E+00 -0.00000000000E+00 -0.20024152191E+04  0.20024152191E+04  0.00000000000E+00 0. -1.
         23    2    1    2    0    0 -0.10506066458E+03 -0.56894542398E+03 -0.17585949685E+04  0.18536948858E+04  0.93764746582E+02 0.  0.
         13    1    3    3    0    0 -0.11666137558E+03 -0.42011201896E+03 -0.13515658128E+04  0.14201528549E+04  0.00000000000E+00 0.  1.
        -13    1    3    3    0    0  0.11600710996E+02 -0.14883340502E+03 -0.40702915574E+03  0.43354203091E+03  0.00000000000E+00 0. -1.
         22    1    1    2    0    0  0.10506066458E+03  0.56894542398E+03  0.23010172205E+03  0.62264230598E+03  0.00000000000E+00 0.  1.
<mgrwt>
<rscale>  0 0.19483209E+04</rscale>
<asrwt>0</asrwt>
<pdfrwt beam="1">  1        2 0.30806387E+00 0.19483209E+04</pdfrwt>
<pdfrwt beam="2">  1       -2 0.72911074E-01 0.19483209E+04</pdfrwt>
<totfact> 0.10561630E+01</totfact>
</mgrwt>
</event>
<event>
 6    1  0.2047711E-005  0.3106497E+04  0.7818608E-02  0.8213957E-01
         -2   -1    0    0    0  501 -0.00000000000E+00  0.00000000000E+00  0.72481147858E+03  0.72481147858E+03  0.00000000000E+00 0.  1.
          2   -1    0    0  501    0  0.00000000000E+00 -0.00000000000E+00 -0.33285628358E+04  0.33285628358E+04  0.00000000000E+00 0. -1.
         23    2    1    2    0    0 -0.14628112493E+04 -0.43021400435E+03 -0.92567391909E+03  0.17860312153E+04  0.90191225192E+02 0.  0.
         13    1    3    3    0    0 -0.82694656771E+03 -0.27538069209E+03 -0.56627926496E+03  0.10393975935E+04  0.00000000000E+00 0. -1.
        -13    1    3    3    0    0 -0.63586468156E+03 -0.15483331226E+03 -0.35939465412E+03  0.74663362183E+03  0.00000000000E+00 0.  1.
         22    1    1    2    0    0  0.14628112493E+04  0.43021400435E+03 -0.16780774382E+04  0.22673430991E+04  0.00000000000E+00 0.  1.
<mgrwt>
<rscale>  0 0.31064968E+04</rscale>
<asrwt>0</asrwt>
<pdfrwt beam="1">  1        2 0.51208658E+00 0.31064968E+04</pdfrwt>
<pdfrwt beam="2">  1       -2 0.11150946E+00 0.31064968E+04</pdfrwt>
<totfact> 0.57434622E-01</totfact>
</mgrwt>
</event>
<event>
 6    1  0.2089977E-005  0.4934715E+04  0.7818608E-02  0.7838658E-01
         -2   -1    0    0    0  501 -0.00000000000E+00  0.00000000000E+00  0.18638882758E+04  0.18638882758E+04  0.00000000000E+00 0.  1.
          2   -1    0    0  501    0  0.00000000000E+00 -0.00000000000E+00 -0.32662113154E+04  0.32662113154E+04  0.00000000000E+00 0. -1.
         23    2    1    2    0    0  0.50837064791E+03 -0.40447414060E+03  0.17722750799E+04  0.18897117647E+04  0.89507254385E+02 0.  0.
         13    1    3    3    0    0  0.26349551148E+03 -0.25446992287E+03  0.10712519493E+04  0.11321508580E+04  0.00000000000E+00 0. -1.
        -13    1    3    3    0    0  0.24487513644E+03 -0.15000421772E+03  0.70102313060E+03  0.75756090674E+03  0.00000000000E+00 0.  1.
         22    1    1    2    0    0 -0.50837064791E+03  0.40447414060E+03 -0.31745981195E+04  0.32403878265E+04  0.00000000000E+00 0. -1.
<mgrwt>
<rscale>  0 0.49347150E+04</rscale>
<asrwt>0</asrwt>
<pdfrwt beam="1">  1        2 0.50249404E+00 0.49347150E+04</pdfrwt>
<pdfrwt beam="2">  1       -2 0.28675204E+00 0.49347150E+04</pdfrwt>
<totfact> 0.32839578E-02</totfact>
</mgrwt>
</event>
<event>
 6    1  0.2047711E-005  0.2671054E+04  0.7818608E-02  0.8344459E-01
          2   -1    0    0  501    0  0.00000000000E+00  0.00000000000E+00  0.19538189631E+04  0.19538189631E+04  0.00000000000E+00 0. -1.
         -2   -1    0    0    0  501 -0.00000000000E+00 -0.00000000000E+00 -0.91289524076E+03  0.91289524076E+03  0.00000000000E+00 0.  1.
         23    2    1    2    0    0  0.32129799620E+03 -0.15174131956E+03  0.19013807876E+04  0.19357769387E+04  0.75667868919E+02 0.  0.
         11    1    3    3    0    0  0.14322163183E+03 -0.26724262931E+02  0.75189901008E+03  0.76588428853E+03  0.00000000000E+00 0. -1.
        -11    1    3    3    0    0  0.17807636438E+03 -0.12501705663E+03  0.11494817776E+04  0.11698926502E+04  0.00000000000E+00 0.  1.
         22    1    1    2    0    0 -0.32129799620E+03  0.15174131956E+03 -0.86045706530E+03  0.93093726515E+03  0.00000000000E+00 0.  1.
<mgrwt>
<rscale>  0 0.26710537E+04</rscale>
<asrwt>0</asrwt>
<pdfrwt beam="1">  1        2 0.30058753E+00 0.26710537E+04</pdfrwt>
<pdfrwt beam="2">  1       -2 0.14044542E+00 0.26710537E+04</pdfrwt>
<totfact> 0.22205061E+00</totfact>
</mgrwt>
</event>
<event>
 6    1  0.2047711E-005  0.1153986E+04  0.7818608E-02  0.9154114E-01
         -2   -1    0    0    0  501 -0.00000000000E+00  0.00000000000E+00  0.70375725298E+03  0.70375725298E+03  0.00000000000E+00 0.  1.
          2   -1    0    0  501    0  0.00000000000E+00 -0.00000000000E+00 -0.47306206933E+03  0.47306206933E+03  0.00000000000E+00 0. -1.
         23    2    1    2    0    0 -0.28271730099E+03 -0.34222439054E+03  0.48610442624E+03  0.66468605160E+03  0.91996892413E+02 0.  0.
         11    1    3    3    0    0 -0.83707009948E+02 -0.17071217232E+03  0.18904510821E+03  0.26811856003E+03  0.00000000000E+00 0. -1.
        -11    1    3    3    0    0 -0.19901029105E+03 -0.17151221822E+03  0.29705931803E+03  0.39656749157E+03  0.00000000000E+00 0.  1.
         22    1    1    2    0    0  0.28271730099E+03  0.34222439054E+03 -0.25540924259E+03  0.51213327071E+03  0.00000000000E+00 0. -1.
<mgrwt>
<rscale>  0 0.11539859E+04</rscale>
<asrwt>0</asrwt>
<pdfrwt beam="1">  1        2 0.72778780E-01 0.11539859E+04</pdfrwt>
<pdfrwt beam="2">  1       -2 0.10827035E+00 0.11539859E+04</pdfrwt>
<totfact> 0.44365161E+01</totfact>
</mgrwt>
</event>
<event>
 6    1  0.2047711E-005  0.2295700E+04  0.7818608E-02  0.8479618E-01
          2   -1    0    0  501    0  0.00000000000E+00  0.00000000000E+00  0.13196904444E+04  0.13196904444E+04  0.00000000000E+00 0. -1.
         -2   -1    0    0    0  501 -0.00000000000E+00 -0.00000000000E+00 -0.99838543024E+03  0.99838543024E+03  0.00000000000E+00 0.  1.
         23    2    1    2    0    0 -0.25880092280E+03 -0.91796184226E+03 -0.48074060765E+03  0.10719181635E+04  0.90912903424E+02 0.  0.
         11    1    3    3    0    0 -0.50903218655E+02 -0.18996591789E+03 -0.14154436479E+03  0.24230764502E+03  0.00000000000E+00 0.  1.
        -11    1    3    3    0    0 -0.20789770415E+03 -0.72799592436E+03 -0.33919624287E+03  0.82961051853E+03  0.00000000000E+00 0. -1.
         22    1    1    2    0    0  0.25880092280E+03  0.91796184226E+03  0.80204562182E+03  0.12461577111E+04  0.00000000000E+00 0. -1.
<mgrwt>
<rscale>  0 0.22957001E+04</rscale>
<asrwt>0</asrwt>
<pdfrwt beam="1">  1        2 0.20302930E+00 0.22957001E+04</pdfrwt>
<pdfrwt beam="2">  1       -2 0.15359776E+00 0.22957001E+04</pdfrwt>
<totfact> 0.41078761E+00</totfact>
</mgrwt>
</event>
<event>
 6    1  0.2047711E-005  0.3180822E+04  0.7818608E-02  0.8193900E-01
          2   -1    0    0  501    0  0.00000000000E+00  0.00000000000E+00  0.17923380788E+04  0.17923380788E+04  0.00000000000E+00 0. -1.
         -2   -1    0    0    0  501 -0.00000000000E+00 -0.00000000000E+00 -0.14112333909E+04  0.14112333909E+04  0.00000000000E+00 0.  1.
         23    2    1    2    0    0  0.13875757350E+03  0.84920690219E+03  0.15362524846E+04  0.17631644233E+04  0.90945369485E+02 0.  0.
         13    1    3    3    0    0  0.13931036489E+03  0.60308659477E+03  0.11149495338E+04  0.12752385194E+04  0.00000000000E+00 0.  1.
        -13    1    3    3    0    0 -0.55279138985E+00  0.24612030742E+03  0.42130295087E+03  0.48792590392E+03  0.00000000000E+00 0. -1.
         22    1    1    2    0    0 -0.13875757350E+03 -0.84920690219E+03 -0.11551477967E+04  0.14404070464E+04  0.00000000000E+00 0.  1.
<mgrwt>
<rscale>  0 0.31808221E+04</rscale>
<asrwt>0</asrwt>
<pdfrwt beam="1">  1        2 0.27574432E+00 0.31808221E+04</pdfrwt>
<pdfrwt beam="2">  1       -2 0.21711283E+00 0.31808221E+04</pdfrwt>
<totfact> 0.75775869E-01</totfact>
</mgrwt>
</event>
<event>
 6    1  0.2047711E-005  0.3959201E+04  0.7818608E-02  0.8012828E-01
         -2   -1    0    0    0  501 -0.00000000000E+00  0.00000000000E+00  0.32594335158E+04  0.32594335158E+04  0.00000000000E+00 0.  1.
          2   -1    0    0  501    0  0.00000000000E+00 -0.00000000000E+00 -0.12023001338E+04  0.12023001338E+04  0.00000000000E+00 0. -1.
         23    2    1    2    0    0  0.15409800340E+04  0.10307780290E+04  0.25024479698E+03  0.18729174783E+04  0.89858842184E+02 0.  0.
         13    1    3    3    0    0  0.15082672629E+03  0.85439009192E+02  0.46602163838E+02  0.17950010399E+03  0.00000000000E+00 0. -1.
        -13    1    3    3    0    0  0.13901533077E+04  0.94533901985E+03  0.20364263314E+03  0.16934173743E+04  0.00000000000E+00 0.  1.
         22    1    1    2    0    0 -0.15409800340E+04 -0.10307780290E+04  0.18068885851E+04  0.25888161714E+04  0.00000000000E+00 0. -1.
<mgrwt>
<rscale>  0 0.39592006E+04</rscale>
<asrwt>0</asrwt>
<pdfrwt beam="1">  1        2 0.18496925E+00 0.39592006E+04</pdfrwt>
<pdfrwt beam="2">  1       -2 0.50145131E+00 0.39592006E+04</pdfrwt>
<totfact> 0.24170276E-02</totfact>
</mgrwt>
</event>
<event>
 6    1  0.2047711E-005  0.2202142E+04  0.7818608E-02  0.8517537E-01
         -2   -1    0    0    0  501 -0.00000000000E+00  0.00000000000E+00  0.29789100099E+03  0.29789100099E+03  0.00000000000E+00 0. -1.
          2   -1    0    0  501    0  0.00000000000E+00 -0.00000000000E+00 -0.40698004761E+04  0.40698004761E+04  0.00000000000E+00 0.  1.
         23    2    1    2    0    0  0.52618320435E+02  0.91342929719E+03 -0.68057559682E+03  0.11438014486E+04  0.89313169762E+02 0.  0.
         13    1    3    3    0    0 -0.24744696911E+02  0.16172928260E+03 -0.11902993432E+03  0.20232841160E+03  0.00000000000E+00 0. -1.
        -13    1    3    3    0    0  0.77363017346E+02  0.75170001458E+03 -0.56154566251E+03  0.94147303703E+03  0.00000000000E+00 0.  1.
         22    1    1    2    0    0 -0.52618320435E+02 -0.91342929719E+03 -0.30913338783E+04  0.32238900285E+04  0.00000000000E+00 0.  1.
<mgrwt>
<rscale>  0 0.22021416E+04</rscale>
<asrwt>0</asrwt>
<pdfrwt beam="1">  1        2 0.62612317E+00 0.22021416E+04</pdfrwt>
<pdfrwt beam="2">  1       -2 0.45829383E-01 0.22021416E+04</pdfrwt>
<totfact> 0.12469012E+00</totfact>
</mgrwt>
</event>
<event>
 6    1  0.2047711E-005  0.3503526E+04  0.7818608E-02  0.8112955E-01
          2   -1    0    0  501    0  0.00000000000E+00  0.00000000000E+00  0.20911438182E+04  0.20911438182E+04  0.00000000000E+00 0. -1.
         -2   -1    0    0    0  501 -0.00000000000E+00 -0.00000000000E+00 -0.14674614359E+04  0.14674614359E+04  0.00000000000E+00 0.  1.
         23    2    1    2    0    0 -0.98547827305E+03 -0.44832704930E+03 -0.10852102050E+04  0.15356177493E+04  0.90973144786E+02 0.  0.
         13    1    3    3    0    0 -0.73467853141E+03 -0.28985375867E+03 -0.79293384857E+03  0.11191567514E+04  0.00000000000E+00 0.  1.
        -13    1    3    3    0    0 -0.25079974164E+03 -0.15847329063E+03 -0.29227635646E+03  0.41646099793E+03  0.00000000000E+00 0. -1.
         22    1    1    2    0    0  0.98547827305E+03  0.44832704930E+03  0.17088925873E+04  0.20229875049E+04  0.00000000000E+00 0. -1.
<mgrwt>
<rscale>  0 0.35035256E+04</rscale>
<asrwt>0</asrwt>
<pdfrwt beam="1">  1        2 0.32171443E+00 0.35035256E+04</pdfrwt>
<pdfrwt beam="2">  1       -2 0.22576330E+00 0.35035256E+04</pdfrwt>
<totfact> 0.44378925E-01</totfact>
</mgrwt>
</event>
<event>
 6    1  0.2047711E-005  0.4904273E+04  0.7818608E-02  0.7843446E-01
          2   -1    0    0  501    0  0.00000000000E+00  0.00000000000E+00  0.47025464434E+04  0.47025464434E+04  0.00000000000E+00 0. -1.
         -2   -1    0    0    0  501 -0.00000000000E+00 -0.00000000000E+00 -0.12786633024E+04  0.12786633024E+04  0.00000000000E+00 0.  1.
         23    2    1    2    0    0 -0.64922451503E+03 -0.18557640768E+04 -0.73106845371E+02  0.19694405918E+04  0.89436311790E+02 0.  0.
         11    1    3    3    0    0 -0.17958008286E+03 -0.63056896627E+03 -0.41038375924E+02  0.65692493915E+03  0.00000000000E+00 0.  1.
        -11    1    3    3    0    0 -0.46964443217E+03 -0.12251951106E+04 -0.32068469447E+02  0.13125156526E+04  0.00000000000E+00 0. -1.
         22    1    1    2    0    0  0.64922451503E+03  0.18557640768E+04  0.34969899864E+04  0.40117691540E+04  0.00000000000E+00 0. -1.
<mgrwt>
<rscale>  0 0.49042731E+04</rscale>
<asrwt>0</asrwt>
<pdfrwt beam="1">  1        2 0.72346867E+00 0.49042731E+04</pdfrwt>
<pdfrwt beam="2">  1       -2 0.19671743E+00 0.49042731E+04</pdfrwt>
<totfact> 0.77252939E-03</totfact>
</mgrwt>
</event>
<event>
 6    1  0.2047711E-005  0.2078054E+04  0.7818608E-02  0.8570973E-01
         -2   -1    0    0    0  501 -0.00000000000E+00  0.00000000000E+00  0.63017372481E+03  0.63017372481E+03  0.00000000000E+00 0.  1.
          2   -1    0    0  501    0  0.00000000000E+00 -0.00000000000E+00 -0.17131423877E+04  0.17131423877E+04  0.00000000000E+00 0. -1.
         23    2    1    2    0    0 -0.39464245721E+03 -0.28387109658E+03  0.49038963868E+03  0.69656725078E+03  0.91643159210E+02 0.  0.
         11    1    3    3    0    0 -0.11131149172E+03 -0.94060764244E+02  0.92879603525E+02  0.17281289393E+03  0.00000000000E+00 0. -1.
        -11    1    3    3    0    0 -0.28333096550E+03 -0.18981033233E+03  0.39751003516E+03  0.52375435685E+03  0.00000000000E+00 0.  1.
         22    1    1    2    0    0  0.39464245721E+03  0.28387109658E+03 -0.15733583016E+04  0.16467488618E+04  0.00000000000E+00 0. -1.
<mgrwt>
<rscale>  0 0.20780542E+04</rscale>
<asrwt>0</asrwt>
<pdfrwt beam="1">  1        2 0.26356036E+00 0.20780542E+04</pdfrwt>
<pdfrwt beam="2">  1       -2 0.96949807E-01 0.20780542E+04</pdfrwt>
<totfact> 0.79113956E+00</totfact>
</mgrwt>
</event>
<event>
 6    1  0.2047711E-005  0.1088119E+04  0.7818608E-02  0.9216850E-01
         -2   -1    0    0    0  501 -0.00000000000E+00  0.00000000000E+00  0.12042441572E+04  0.12042441572E+04  0.00000000000E+00 0.  1.
          2   -1    0    0  501    0  0.00000000000E+00 -0.00000000000E+00 -0.24579792600E+03  0.24579792600E+03  0.00000000000E+00 0. -1.
         23    2    1    2    0    0  0.25578743855E+03 -0.90484967750E+02 -0.13984790434E+03  0.31873100694E+03  0.91745710116E+02 0.  0.
         13    1    3    3    0    0  0.10248303070E+03 -0.80008526916E+02 -0.86100170723E+02  0.15594029421E+03  0.00000000000E+00 0.  1.
        -13    1    3    3    0    0  0.15330440786E+03 -0.10476440834E+02 -0.53747733613E+02  0.16279071273E+03  0.00000000000E+00 0. -1.
         22    1    1    2    0    0 -0.25578743855E+03  0.90484967750E+02  0.10982941356E+04  0.11313110763E+04  0.00000000000E+00 0.  1.
<mgrwt>
<rscale>  0 0.10881190E+04</rscale>
<asrwt>0</asrwt>
<pdfrwt beam="1">  1        2 0.37815066E-01 0.10881190E+04</pdfrwt>
<pdfrwt beam="2">  1       -2 0.18526833E+00 0.10881190E+04</pdfrwt>
<totfact> 0.22725491E+01</totfact>
</mgrwt>
</event>
<event>
 6    1  0.2047711E-005  0.2514615E+04  0.7818608E-02  0.8397797E-01
         -2   -1    0    0    0  501 -0.00000000000E+00  0.00000000000E+00  0.72596523986E+03  0.72596523986E+03  0.00000000000E+00 0.  1.
          2   -1    0    0  501    0  0.00000000000E+00 -0.00000000000E+00 -0.21775447104E+04  0.21775447104E+04  0.00000000000E+00 0. -1.
         23    2    1    2    0    0 -0.31922375834E+03 -0.11878908517E+04 -0.43522910474E+03  0.13079045637E+04  0.90562082333E+02 0.  0.
         13    1    3    3    0    0 -0.28367054173E+03 -0.10991104301E+04 -0.37777639597E+03  0.11963392994E+04  0.00000000000E+00 0.  1.
        -13    1    3    3    0    0 -0.35553216617E+02 -0.88780421580E+02 -0.57452708771E+02  0.11156526437E+03  0.00000000000E+00 0. -1.
         22    1    1    2    0    0  0.31922375834E+03  0.11878908517E+04 -0.10163503658E+04  0.15956053865E+04  0.00000000000E+00 0. -1.
<mgrwt>
<rscale>  0 0.25146147E+04</rscale>
<asrwt>0</asrwt>
<pdfrwt beam="1">  1        2 0.33500688E+00 0.25146147E+04</pdfrwt>
<pdfrwt beam="2">  1       -2 0.11168696E+00 0.25146147E+04</pdfrwt>
<totfact> 0.29982952E+00</totfact>
</mgrwt>
</event>
<event>
 6    1  0.2047711E-005  0.2665672E+04  0.7818608E-02  0.8346230E-01
         -2   -1    0    0    0  501 -0.00000000000E+00  0.00000000000E+00  0.81598670924E+03  0.81598670924E+03  0.00000000000E+00 0. -1.
          2   -1    0    0  501    0  0.00000000000E+00 -0.00000000000E+00 -0.21770597520E+04  0.21770597520E+04  0.00000000000E+00 0.  1.
         23    2    1    2    0    0  0.13149881566E+04  0.19127004939E+03 -0.59056677064E+03  0.14569937281E+04  0.91013896369E+02 0.  0.
         13    1    3    3    0    0  0.12011308300E+03  0.32268424136E+02 -0.31789979998E+02  0.12837058359E+03  0.00000000000E+00 0. -1.
        -13    1    3    3    0    0  0.11948750736E+04  0.15900162526E+03 -0.55877679064E+03  0.13286231445E+04  0.00000000000E+00 0.  1.
         22    1    1    2    0    0 -0.13149881566E+04 -0.19127004939E+03 -0.77050627212E+03  0.15360527332E+04  0.00000000000E+00 0.  1.
<mgrwt>
<rscale>  0 0.26656720E+04</rscale>
<asrwt>0</asrwt>
<pdfrwt beam="1">  1        2 0.33493226E+00 0.26656720E+04</pdfrwt>
<pdfrwt beam="2">  1       -2 0.12553642E+00 0.26656720E+04</pdfrwt>
<totfact> 0.22198012E+00</totfact>
</mgrwt>
</event>
<event>
 6    1  0.2047711E-005  0.1316687E+04  0.7818608E-02  0.9016436E-01
          2   -1    0    0  501    0  0.00000000000E+00  0.00000000000E+00  0.23608941212E+04  0.23608941212E+04  0.00000000000E+00 0.  1.
         -2   -1    0    0    0  501 -0.00000000000E+00 -0.00000000000E+00 -0.18358149516E+03  0.18358149516E+03  0.00000000000E+00 0. -1.
         23    2    1    2    0    0 -0.49828395016E+03  0.41850265980E+03  0.94730067206E+03  0.11529438064E+04  0.92029811057E+02 0.  0.
         11    1    3    3    0    0 -0.16582040468E+03  0.18571908688E+03  0.31358412458E+03  0.40040353273E+03  0.00000000000E+00 0. -1.
        -11    1    3    3    0    0 -0.33246354548E+03  0.23278357292E+03  0.63371654748E+03  0.75254027364E+03  0.00000000000E+00 0.  1.
         22    1    1    2    0    0  0.49828395016E+03 -0.41850265980E+03  0.12300119540E+04  0.13915318100E+04  0.00000000000E+00 0. -1.
<mgrwt>
<rscale>  0 0.13166875E+04</rscale>
<asrwt>0</asrwt>
<pdfrwt beam="1">  1        2 0.36321446E+00 0.13166875E+04</pdfrwt>
<pdfrwt beam="2">  1       -2 0.28243309E-01 0.13166875E+04</pdfrwt>
<totfact> 0.47166322E+01</totfact>
</mgrwt>
</event>
<event>
 6    1  0.2047711E-005  0.2001936E+04  0.7818608E-02  0.8605716E-01
          2   -1    0    0  501    0  0.00000000000E+00  0.00000000000E+00  0.99465814802E+03  0.99465814802E+03  0.00000000000E+00 0.  1.
         -2   -1    0    0    0  501 -0.00000000000E+00 -0.00000000000E+00 -0.10073174502E+04  0.10073174502E+04  0.00000000000E+00 0. -1.
         23    2    1    2    0    0 -0.77820362280E+03 -0.34312304529E+03  0.51715454476E+03  0.99995912374E+03  0.95577838661E+02 0.  0.
         11    1    3    3    0    0 -0.39147203361E+03 -0.17246942544E+03  0.20426464670E+03  0.47404651850E+03  0.00000000000E+00 0. -1.
        -11    1    3    3    0    0 -0.38673158919E+03 -0.17065361984E+03  0.31288989806E+03  0.52591260524E+03  0.00000000000E+00 0.  1.
         22    1    1    2    0    0  0.77820362280E+03  0.34312304529E+03 -0.52981384696E+03  0.10020164745E+04  0.00000000000E+00 0. -1.
<mgrwt>
<rscale>  0 0.20019356E+04</rscale>
<asrwt>0</asrwt>
<pdfrwt beam="1">  1        2 0.15302433E+00 0.20019356E+04</pdfrwt>
<pdfrwt beam="2">  1       -2 0.15497192E+00 0.20019356E+04</pdfrwt>
<totfact> 0.64766690E+00</totfact>
</mgrwt>
</event>
<event>
 6    1  0.2047711E-005  0.2016952E+04  0.7818608E-02  0.8598736E-01
         -2   -1    0    0    0  501 -0.00000000000E+00  0.00000000000E+00  0.56823704598E+03  0.56823704598E+03  0.00000000000E+00 0.  1.
          2   -1    0    0  501    0  0.00000000000E+00 -0.00000000000E+00 -0.17897872466E+04  0.17897872466E+04  0.00000000000E+00 0. -1.
         23    2    1    2    0    0  0.89556697618E+03 -0.42304213069E+03 -0.40327286914E+03  0.10732742607E+04  0.91015265523E+02 0.  0.
         11    1    3    3    0    0  0.58487102094E+03 -0.22832940404E+03 -0.26200564235E+03  0.68033475915E+03  0.00000000000E+00 0. -1.
        -11    1    3    3    0    0  0.31069595524E+03 -0.19471272665E+03 -0.14126722679E+03  0.39293950156E+03  0.00000000000E+00 0.  1.
         22    1    1    2    0    0 -0.89556697618E+03  0.42304213069E+03 -0.81827733144E+03  0.12847500318E+04  0.00000000000E+00 0.  1.
<mgrwt>
<rscale>  0 0.20169516E+04</rscale>
<asrwt>0</asrwt>
<pdfrwt beam="1">  1        2 0.27535188E+00 0.20169516E+04</pdfrwt>
<pdfrwt beam="2">  1       -2 0.87421085E-01 0.20169516E+04</pdfrwt>
<totfact> 0.91645577E+00</totfact>
</mgrwt>
</event>
<event>
 6    1  0.2047711E-005  0.1730531E+04  0.7818608E-02  0.8744140E-01
         -2   -1    0    0    0  501 -0.00000000000E+00  0.00000000000E+00  0.50534841029E+03  0.50534841029E+03  0.00000000000E+00 0.  1.
          2   -1    0    0  501    0  0.00000000000E+00 -0.00000000000E+00 -0.14815212067E+04  0.14815212067E+04  0.00000000000E+00 0. -1.
         23    2    1    2    0    0  0.62384884400E+03  0.55282688351E+03 -0.23335494770E+03  0.87036466867E+03  0.90968024955E+02 0.  0.
         11    1    3    3    0    0  0.49281589839E+03  0.38383598097E+03 -0.17333842061E+03  0.64826212141E+03  0.00000000000E+00 0. -1.
        -11    1    3    3    0    0  0.13103294561E+03  0.16899090254E+03 -0.60016527090E+02  0.22210254726E+03  0.00000000000E+00 0.  1.
         22    1    1    2    0    0 -0.62384884400E+03 -0.55282688351E+03 -0.74281784876E+03  0.11165049484E+04  0.00000000000E+00 0.  1.
<mgrwt>
<rscale>  0 0.17305310E+04</rscale>
<asrwt>0</asrwt>
<pdfrwt beam="1">  1        2 0.22792634E+00 0.17305310E+04</pdfrwt>
<pdfrwt beam="2">  1       -2 0.77745910E-01 0.17305310E+04</pdfrwt>
<totfact> 0.18192394E+01</totfact>
</mgrwt>
</event>
<event>
 6    1  0.2047711E-005  0.2413030E+04  0.7818608E-02  0.8434641E-01
         -2   -1    0    0    0  501 -0.00000000000E+00  0.00000000000E+00  0.50833565378E+03  0.50833565378E+03  0.00000000000E+00 0.  1.
          2   -1    0    0  501    0  0.00000000000E+00 -0.00000000000E+00 -0.28636172812E+04  0.28636172812E+04  0.00000000000E+00 0. -1.
         23    2    1    2    0    0 -0.75176909988E+03 -0.49220328422E+03 -0.57854578201E+02  0.90505368714E+03  0.91401158934E+02 0.  0.
         11    1    3    3    0    0 -0.28278393251E+03 -0.17901033501E+03 -0.65616070608E+02  0.34105266638E+03  0.00000000000E+00 0.  1.
        -11    1    3    3    0    0 -0.46898516738E+03 -0.31319294920E+03  0.77614924072E+01  0.56400102076E+03  0.00000000000E+00 0. -1.
         22    1    1    2    0    0  0.75176909988E+03  0.49220328422E+03 -0.22974270492E+04  0.24668992478E+04  0.00000000000E+00 0. -1.
<mgrwt>
<rscale>  0 0.24130303E+04</rscale>
<asrwt>0</asrwt>
<pdfrwt beam="1">  1        2 0.44055650E+00 0.24130303E+04</pdfrwt>
<pdfrwt beam="2">  1       -2 0.78205485E-01 0.24130303E+04</pdfrwt>
<totfact> 0.27640945E+00</totfact>
</mgrwt>
</event>
<event>
 6    1  0.2047711E-005  0.2639601E+04  0.7818608E-02  0.8354873E-01
         -2   -1    0    0    0  501 -0.00000000000E+00  0.00000000000E+00  0.44374042065E+03  0.44374042065E+03  0.00000000000E+00 0.  1.
          2   -1    0    0  501    0  0.00000000000E+00 -0.00000000000E+00 -0.39254340622E+04  0.39254340622E+04  0.00000000000E+00 0. -1.
         23    2    1    2    0    0  0.58050099909E+03  0.60453607746E+03 -0.58542279342E+02  0.84491420197E+03  0.89484810552E+02 0.  0.
         11    1    3    3    0    0  0.41681089603E+03  0.39340775436E+03 -0.70656137286E+02  0.57748876524E+03  0.00000000000E+00 0. -1.
        -11    1    3    3    0    0  0.16369010305E+03  0.21112832310E+03  0.12113857945E+02  0.26742543673E+03  0.00000000000E+00 0.  1.
         22    1    1    2    0    0 -0.58050099909E+03 -0.60453607746E+03 -0.34231513622E+04  0.35242602809E+04  0.00000000000E+00 0. -1.
<mgrwt>
<rscale>  0 0.26396013E+04</rscale>
<asrwt>0</asrwt>
<pdfrwt beam="1">  1        2 0.60391292E+00 0.26396013E+04</pdfrwt>
<pdfrwt beam="2">  1       -2 0.68267758E-01 0.26396013E+04</pdfrwt>
<totfact> 0.68066429E-01</totfact>
</mgrwt>
</event>
<event>
 6    1  0.2047711E-005  0.3672513E+03  0.7818608E-02  0.1055749E+00
         -2   -1    0    0    0  501 -0.00000000000E+00  0.00000000000E+00  0.17415488864E+03  0.17415488864E+03  0.00000000000E+00 0.  1.
          2   -1    0    0  501    0  0.00000000000E+00 -0.00000000000E+00 -0.19361141547E+03  0.19361141547E+03  0.00000000000E+00 0. -1.
         23    2    1    2    0    0 -0.12554847673E+02 -0.14145742776E+03  0.86947762073E+02  0.19031292780E+03  0.92148082390E+02 0.  0.
         13    1    3    3    0    0  0.81853022999E+01 -0.49982874659E+02  0.82006595877E+02  0.96386558712E+02  0.00000000000E+00 0. -1.
        -13    1    3    3    0    0 -0.20740149973E+02 -0.91474553103E+02  0.49411661956E+01  0.93926369086E+02  0.00000000000E+00 0.  1.
         22    1    1    2    0    0  0.12554847673E+02  0.14145742776E+03 -0.10640428890E+03  0.17745337631E+03  0.00000000000E+00 0. -1.
<mgrwt>
<rscale>  0 0.36725127E+03</rscale>
<asrwt>0</asrwt>
<pdfrwt beam="1">  1        2 0.29786371E-01 0.36725127E+03</pdfrwt>
<pdfrwt beam="2">  1       -2 0.26793060E-01 0.36725127E+03</pdfrwt>
<totfact> 0.22317293E+03</totfact>
</mgrwt>
</event>
<event>
 6    1  0.2047711E-005  0.1499826E+04  0.7818608E-02  0.8884568E-01
         -2   -1    0    0    0  501 -0.00000000000E+00  0.00000000000E+00  0.15434144030E+03  0.15434144030E+03  0.00000000000E+00 0.  1.
          2   -1    0    0  501    0  0.00000000000E+00 -0.00000000000E+00 -0.36436738992E+04  0.36436738992E+04  0.00000000000E+00 0. -1.
         23    2    1    2    0    0  0.69155168495E+03  0.62803341545E+02 -0.24503578505E+04  0.25483528933E+04  0.87526455070E+02 0.  0.
         11    1    3    3    0    0  0.57535377184E+03  0.44320290060E+02 -0.19067430722E+04  0.19921509467E+04  0.00000000000E+00 0.  1.
        -11    1    3    3    0    0  0.11619791311E+03  0.18483051485E+02 -0.54361477830E+03  0.55620194659E+03  0.00000000000E+00 0. -1.
         22    1    1    2    0    0 -0.69155168495E+03 -0.62803341545E+02 -0.10389746084E+04  0.12496624462E+04  0.00000000000E+00 0.  1.
<mgrwt>
<rscale>  0 0.14998265E+04</rscale>
<asrwt>0</asrwt>
<pdfrwt beam="1">  1        2 0.56056517E+00 0.14998265E+04</pdfrwt>
<pdfrwt beam="2">  1       -2 0.23744839E-01 0.14998265E+04</pdfrwt>
<totfact> 0.99314992E+00</totfact>
</mgrwt>
</event>
<event>
 6    1  0.2047711E-005  0.1360376E+04  0.7818608E-02  0.8983011E-01
         -2   -1    0    0    0  501 -0.00000000000E+00  0.00000000000E+00  0.10018431521E+04  0.10018431521E+04  0.00000000000E+00 0.  1.
          2   -1    0    0  501    0  0.00000000000E+00 -0.00000000000E+00 -0.46180441307E+03  0.46180441307E+03  0.00000000000E+00 0. -1.
         23    2    1    2    0    0 -0.49824263932E+03 -0.18183606171E+03  0.72418740818E+03  0.90220227542E+03  0.90617121094E+02 0.  0.
         11    1    3    3    0    0 -0.22714783923E+03 -0.64422195342E+02  0.39232888675E+03  0.45789552902E+03  0.00000000000E+00 0.  1.
        -11    1    3    3    0    0 -0.27109480009E+03 -0.11741386637E+03  0.33185852143E+03  0.44430674640E+03  0.00000000000E+00 0. -1.
         22    1    1    2    0    0  0.49824263932E+03  0.18183606171E+03 -0.18414866919E+03  0.56144528971E+03  0.00000000000E+00 0. -1.
<mgrwt>
<rscale>  0 0.13603758E+04</rscale>
<asrwt>0</asrwt>
<pdfrwt beam="1">  1        2 0.71046833E-01 0.13603758E+04</pdfrwt>
<pdfrwt beam="2">  1       -2 0.15412972E+00 0.13603758E+04</pdfrwt>
<totfact> 0.18346326E+01</totfact>
</mgrwt>
</event>
<event>
 6    1  0.2047711E-005  0.2071074E+04  0.7818608E-02  0.8574093E-01
         -2   -1    0    0    0  501 -0.00000000000E+00  0.00000000000E+00  0.11205267742E+04  0.11205267742E+04  0.00000000000E+00 0.  1.
          2   -1    0    0  501    0  0.00000000000E+00 -0.00000000000E+00 -0.95699386094E+03  0.95699386094E+03  0.00000000000E+00 0. -1.
         23    2    1    2    0    0 -0.50773942958E+03 -0.84069864562E+03 -0.24084540090E+03  0.10154022980E+04  0.91987926499E+02 0.  0.
         13    1    3    3    0    0 -0.34701527306E+03 -0.64602141207E+03 -0.16298472122E+03  0.75121720157E+03  0.00000000000E+00 0.  1.
        -13    1    3    3    0    0 -0.16072415652E+03 -0.19467723355E+03 -0.77860679674E+02  0.26418509646E+03  0.00000000000E+00 0. -1.
         22    1    1    2    0    0  0.50773942958E+03  0.84069864562E+03  0.40437831418E+03  0.10621183371E+04  0.00000000000E+00 0.  1.
<mgrwt>
<rscale>  0 0.20710744E+04</rscale>
<asrwt>0</asrwt>
<pdfrwt beam="1">  1        2 0.14722982E+00 0.20710744E+04</pdfrwt>
<pdfrwt beam="2">  1       -2 0.17238873E+00 0.20710744E+04</pdfrwt>
<totfact> 0.50852239E+00</totfact>
</mgrwt>
</event>
<event>
 6    1  0.2047711E-005  0.1570500E+04  0.7818608E-02  0.8838879E-01
         -2   -1    0    0    0  501 -0.00000000000E+00  0.00000000000E+00  0.18042151646E+03  0.18042151646E+03  0.00000000000E+00 0.  1.
          2   -1    0    0  501    0  0.00000000000E+00 -0.00000000000E+00 -0.34176498735E+04  0.34176498735E+04  0.00000000000E+00 0. -1.
         23    2    1    2    0    0 -0.73499427482E+03  0.12649936600E+03 -0.10813050803E+04  0.13167945877E+04  0.92242266579E+02 0.  0.
         13    1    3    3    0    0 -0.14391816310E+03  0.27313978093E+02 -0.28164383785E+03  0.31746140312E+03  0.00000000000E+00 0.  1.
        -13    1    3    3    0    0 -0.59107611171E+03  0.99185387909E+02 -0.79966124247E+03  0.99933318454E+03  0.00000000000E+00 0. -1.
         22    1    1    2    0    0  0.73499427482E+03 -0.12649936600E+03 -0.21559232767E+04  0.22812768023E+04  0.00000000000E+00 0. -1.
<mgrwt>
<rscale>  0 0.15705000E+04</rscale>
<asrwt>0</asrwt>
<pdfrwt beam="1">  1        2 0.52579223E+00 0.15705000E+04</pdfrwt>
<pdfrwt beam="2">  1       -2 0.27757160E-01 0.15705000E+04</pdfrwt>
<totfact> 0.10676932E+01</totfact>
</mgrwt>
</event>
<event>
 6    1  0.2047711E-005  0.3223841E+04  0.7818608E-02  0.8182549E-01
         -2   -1    0    0    0  501 -0.00000000000E+00  0.00000000000E+00  0.21929440616E+04  0.21929440616E+04  0.00000000000E+00 0. -1.
          2   -1    0    0  501    0  0.00000000000E+00 -0.00000000000E+00 -0.11848398382E+04  0.11848398382E+04  0.00000000000E+00 0.  1.
         23    2    1    2    0    0 -0.26573618735E+03  0.79072052172E+03 -0.93902449799E+03  0.12594909734E+04  0.93251485355E+02 0.  0.
         11    1    3    3    0    0 -0.98508857779E+02  0.17756513293E+03 -0.20478521570E+03  0.28839271153E+03  0.00000000000E+00 0.  1.
        -11    1    3    3    0    0 -0.16722732957E+03  0.61315538879E+03 -0.73423928229E+03  0.97109826187E+03  0.00000000000E+00 0. -1.
         22    1    1    2    0    0  0.26573618735E+03 -0.79072052172E+03  0.19471287213E+04  0.21182929264E+04  0.00000000000E+00 0. -1.
<mgrwt>
<rscale>  0 0.32238409E+04</rscale>
<asrwt>0</asrwt>
<pdfrwt beam="1">  1        2 0.18228305E+00 0.32238409E+04</pdfrwt>
<pdfrwt beam="2">  1       -2 0.33737601E+00 0.32238409E+04</pdfrwt>
<totfact> 0.30343915E-01</totfact>
</mgrwt>
</event>
<event>
 6    1  0.2047711E-005  0.3313121E+04  0.7818608E-02  0.8159565E-01
          2   -1    0    0  501    0  0.00000000000E+00  0.00000000000E+00  0.12948534671E+04  0.12948534671E+04  0.00000000000E+00 0. -1.
         -2   -1    0    0    0  501 -0.00000000000E+00 -0.00000000000E+00 -0.21193075489E+04  0.21193075489E+04  0.00000000000E+00 0.  1.
         23    2    1    2    0    0 -0.46111856917E+03 -0.97956925837E+03 -0.17023209013E+04  0.20203043449E+04  0.10745663347E+03 0.  0.
         13    1    3    3    0    0 -0.19751336046E+03 -0.52732871419E+03 -0.93389817099E+03  0.10905287223E+04  0.00000000000E+00 0. -1.
        -13    1    3    3    0    0 -0.26360520871E+03 -0.45224054419E+03 -0.76842273034E+03  0.92977562259E+03  0.00000000000E+00 0.  1.
         22    1    1    2    0    0  0.46111856917E+03  0.97956925837E+03  0.87786681948E+03  0.13938566711E+04  0.00000000000E+00 0. -1.
<mgrwt>
<rscale>  0 0.33131210E+04</rscale>
<asrwt>0</asrwt>
<pdfrwt beam="1">  1        2 0.19920823E+00 0.33131210E+04</pdfrwt>
<pdfrwt beam="2">  1       -2 0.32604731E+00 0.33131210E+04</pdfrwt>
<totfact> 0.30499149E-01</totfact>
</mgrwt>
</event>
<event>
 6    1  0.2047711E-005  0.2464803E+04  0.7818608E-02  0.8415633E-01
          2   -1    0    0  501    0  0.00000000000E+00  0.00000000000E+00  0.23805930394E+04  0.23805930394E+04  0.00000000000E+00 0. -1.
         -2   -1    0    0    0  501 -0.00000000000E+00 -0.00000000000E+00 -0.63799801749E+03  0.63799801749E+03  0.00000000000E+00 0.  1.
         23    2    1    2    0    0 -0.60047690332E+03  0.91869768390E+03  0.19040701104E+03  0.11175740746E+04  0.90216609174E+02 0.  0.
         13    1    3    3    0    0 -0.35511414693E+03  0.46105001727E+03  0.98918494489E+02  0.59030334941E+03  0.00000000000E+00 0. -1.
        -13    1    3    3    0    0 -0.24536275640E+03  0.45764766662E+03  0.91488516548E+02  0.52727072520E+03  0.00000000000E+00 0.  1.
         22    1    1    2    0    0  0.60047690332E+03 -0.91869768390E+03  0.15521880108E+04  0.19010169823E+04  0.00000000000E+00 0. -1.
<mgrwt>
<rscale>  0 0.24648031E+04</rscale>
<asrwt>0</asrwt>
<pdfrwt beam="1">  1        2 0.36624508E+00 0.24648031E+04</pdfrwt>
<pdfrwt beam="2">  1       -2 0.98153542E-01 0.24648031E+04</pdfrwt>
<totfact> 0.31485909E+00</totfact>
</mgrwt>
</event>
<event>
 6    1  0.2047711E-005  0.1369004E+04  0.7818608E-02  0.8976566E-01
         -2   -1    0    0    0  501 -0.00000000000E+00  0.00000000000E+00  0.39575495629E+03  0.39575495629E+03  0.00000000000E+00 0.  1.
          2   -1    0    0  501    0  0.00000000000E+00 -0.00000000000E+00 -0.11839214766E+04  0.11839214766E+04  0.00000000000E+00 0. -1.
         23    2    1    2    0    0 -0.39129958526E+03 -0.27200976569E+03  0.16677770445E+03  0.51242615744E+03  0.87527630318E+02 0.  0.
         13    1    3    3    0    0 -0.19830266934E+03 -0.15350828732E+03  0.13168860762E+03  0.28325012324E+03  0.00000000000E+00 0. -1.
        -13    1    3    3    0    0 -0.19299691592E+03 -0.11850147838E+03  0.35089096832E+02  0.22917603419E+03  0.00000000000E+00 0.  1.
         22    1    1    2    0    0  0.39129958526E+03  0.27200976569E+03 -0.95494422477E+03  0.10672502755E+04  0.00000000000E+00 0. -1.
<mgrwt>
<rscale>  0 0.13690037E+04</rscale>
<asrwt>0</asrwt>
<pdfrwt beam="1">  1        2 0.18214177E+00 0.13690037E+04</pdfrwt>
<pdfrwt beam="2">  1       -2 0.60885378E-01 0.13690037E+04</pdfrwt>
<totfact> 0.47430954E+01</totfact>
</mgrwt>
</event>
<event>
 6    1  0.2047711E-005  0.2616072E+04  0.7818608E-02  0.8362762E-01
         -2   -1    0    0    0  501 -0.00000000000E+00  0.00000000000E+00  0.17255051652E+04  0.17255051652E+04  0.00000000000E+00 0.  1.
          2   -1    0    0  501    0  0.00000000000E+00 -0.00000000000E+00 -0.99156911871E+03  0.99156911871E+03  0.00000000000E+00 0. -1.
         23    2    1    2    0    0  0.97373706559E+03  0.86981341052E+03  0.31996867234E+03  0.13473632820E+04  0.90931953970E+02 0.  0.
         11    1    3    3    0    0  0.13104312701E+03  0.11414581543E+03  0.11344132968E+02  0.17415584305E+03  0.00000000000E+00 0. -1.
        -11    1    3    3    0    0  0.84269393858E+03  0.75566759510E+03  0.30862453937E+03  0.11732074389E+04  0.00000000000E+00 0.  1.
         22    1    1    2    0    0 -0.97373706559E+03 -0.86981341052E+03  0.41396737417E+03  0.13697110020E+04  0.00000000000E+00 0. -1.
<mgrwt>
<rscale>  0 0.26160716E+04</rscale>
<asrwt>0</asrwt>
<pdfrwt beam="1">  1        2 0.15254910E+00 0.26160716E+04</pdfrwt>
<pdfrwt beam="2">  1       -2 0.26546233E+00 0.26160716E+04</pdfrwt>
<totfact> 0.11639791E+00</totfact>
</mgrwt>
</event>
<event>
 6    1  0.2047711E-005  0.3883309E+04  0.7818608E-02  0.8028510E-01
         -2   -1    0    0    0  501 -0.00000000000E+00  0.00000000000E+00  0.14069764977E+04  0.14069764977E+04  0.00000000000E+00 0.  1.
          2   -1    0    0  501    0  0.00000000000E+00 -0.00000000000E+00 -0.26795200569E+04  0.26795200569E+04  0.00000000000E+00 0. -1.
         23    2    1    2    0    0 -0.12065047021E+04  0.10251842883E+04  0.54409247605E+03  0.16767615265E+04  0.94000920126E+02 0.  0.
         13    1    3    3    0    0 -0.92791742738E+03  0.76838291149E+03  0.37428128021E+03  0.12615583726E+04  0.00000000000E+00 0.  1.
        -13    1    3    3    0    0 -0.27858727471E+03  0.25680137684E+03  0.16981119585E+03  0.41520315391E+03  0.00000000000E+00 0. -1.
         22    1    1    2    0    0  0.12065047021E+04 -0.10251842883E+04 -0.18166360352E+04  0.24097350281E+04  0.00000000000E+00 0. -1.
<mgrwt>
<rscale>  0 0.38833088E+04</rscale>
<asrwt>0</asrwt>
<pdfrwt beam="1">  1        2 0.41223386E+00 0.38833088E+04</pdfrwt>
<pdfrwt beam="2">  1       -2 0.21645792E+00 0.38833088E+04</pdfrwt>
<totfact> 0.22636571E-01</totfact>
</mgrwt>
</event>
<event>
 6    1  0.2047711E-005  0.2675915E+04  0.7818608E-02  0.8342862E-01
         -2   -1    0    0    0  501 -0.00000000000E+00  0.00000000000E+00  0.72773503049E+03  0.72773503049E+03  0.00000000000E+00 0.  1.
          2   -1    0    0  501    0  0.00000000000E+00 -0.00000000000E+00 -0.24598663719E+04  0.24598663719E+04  0.00000000000E+00 0. -1.
         23    2    1    2    0    0 -0.53474241521E+02 -0.46663047319E+03  0.62343196862E+03  0.78566843067E+03  0.89464911805E+02 0.  0.
         13    1    3    3    0    0 -0.60438462734E+02 -0.27038895175E+03  0.41798113225E+03  0.50146906178E+03  0.00000000000E+00 0.  1.
        -13    1    3    3    0    0  0.69642212133E+01 -0.19624152144E+03  0.20545083637E+03  0.28419936889E+03  0.00000000000E+00 0. -1.
         22    1    1    2    0    0  0.53474241521E+02  0.46663047319E+03 -0.23555633100E+04  0.24019329717E+04  0.00000000000E+00 0. -1.
<mgrwt>
<rscale>  0 0.26759155E+04</rscale>
<asrwt>0</asrwt>
<pdfrwt beam="1">  1        2 0.37844098E+00 0.26759155E+04</pdfrwt>
<pdfrwt beam="2">  1       -2 0.11195924E+00 0.26759155E+04</pdfrwt>
<totfact> 0.20314900E+00</totfact>
</mgrwt>
</event>
<event>
 6    1  0.2047711E-005  0.3744442E+04  0.7818608E-02  0.8058184E-01
         -2   -1    0    0    0  501 -0.00000000000E+00  0.00000000000E+00  0.18226192035E+04  0.18226192035E+04  0.00000000000E+00 0.  1.
          2   -1    0    0  501    0  0.00000000000E+00 -0.00000000000E+00 -0.19231730075E+04  0.19231730075E+04  0.00000000000E+00 0. -1.
         23    2    1    2    0    0 -0.86588192929E+03 -0.10428271623E+04  0.12400789094E+04  0.18393462826E+04  0.90327403353E+02 0.  0.
         11    1    3    3    0    0 -0.76113704533E+02 -0.11257819590E+03  0.15796577670E+03  0.20837546117E+03  0.00000000000E+00 0.  1.
        -11    1    3    3    0    0 -0.78976822476E+03 -0.93024896639E+03  0.10821131327E+04  0.16309708214E+04  0.00000000000E+00 0. -1.
         22    1    1    2    0    0  0.86588192929E+03  0.10428271623E+04 -0.13406327135E+04  0.19064459285E+04  0.00000000000E+00 0. -1.
<mgrwt>
<rscale>  0 0.37444423E+04</rscale>
<asrwt>0</asrwt>
<pdfrwt beam="1">  1        2 0.29587277E+00 0.37444423E+04</pdfrwt>
<pdfrwt beam="2">  1       -2 0.28040295E+00 0.37444423E+04</pdfrwt>
<totfact> 0.24864891E-01</totfact>
</mgrwt>
</event>
<event>
 6    1  0.2047711E-005  0.1590428E+04  0.7818608E-02  0.8826450E-01
          2   -1    0    0  501    0  0.00000000000E+00  0.00000000000E+00  0.13621227151E+04  0.13621227151E+04  0.00000000000E+00 0. -1.
         -2   -1    0    0    0  501 -0.00000000000E+00 -0.00000000000E+00 -0.46424964931E+03  0.46424964931E+03  0.00000000000E+00 0.  1.
         23    2    1    2    0    0 -0.70049739654E+03 -0.15735604241E+01  0.87466934049E+03  0.11254889993E+04  0.10478527425E+03 0.  0.
         11    1    3    3    0    0 -0.48592730430E+03  0.49719717491E+01  0.67931991818E+03  0.83523985585E+03  0.00000000000E+00 0.  1.
        -11    1    3    3    0    0 -0.21457009224E+03 -0.65455321732E+01  0.19534942231E+03  0.29024914345E+03  0.00000000000E+00 0. -1.
         22    1    1    2    0    0  0.70049739654E+03  0.15735604241E+01  0.23203725330E+02  0.70088336513E+03  0.00000000000E+00 0.  1.
<mgrwt>
<rscale>  0 0.15904276E+04</rscale>
<asrwt>0</asrwt>
<pdfrwt beam="1">  1        2 0.20955734E+00 0.15904276E+04</pdfrwt>
<pdfrwt beam="2">  1       -2 0.71423023E-01 0.15904276E+04</pdfrwt>
<totfact> 0.25970175E+01</totfact>
</mgrwt>
</event>
<event>
 6    1  0.2047711E-005  0.3570356E+04  0.7818608E-02  0.8097316E-01
          2   -1    0    0  501    0  0.00000000000E+00  0.00000000000E+00  0.23201777103E+04  0.23201777103E+04  0.00000000000E+00 0. -1.
         -2   -1    0    0    0  501 -0.00000000000E+00 -0.00000000000E+00 -0.13735418418E+04  0.13735418418E+04  0.00000000000E+00 0.  1.
         23    2    1    2    0    0  0.13850413378E+04 -0.10394210013E+04  0.91721602954E+03  0.19617839146E+04  0.92603225984E+02 0.  0.
         11    1    3    3    0    0  0.74909754462E+03 -0.51769705908E+03  0.51529610645E+03  0.10462731257E+04  0.00000000000E+00 0.  1.
        -11    1    3    3    0    0  0.63594379322E+03 -0.52172394223E+03  0.40191992309E+03  0.91551078890E+03  0.00000000000E+00 0. -1.
         22    1    1    2    0    0 -0.13850413378E+04  0.10394210013E+04  0.29419838962E+02  0.17319356375E+04  0.00000000000E+00 0.  1.
<mgrwt>
<rscale>  0 0.35703564E+04</rscale>
<asrwt>0</asrwt>
<pdfrwt beam="1">  1        2 0.35695042E+00 0.35703564E+04</pdfrwt>
<pdfrwt beam="2">  1       -2 0.21131413E+00 0.35703564E+04</pdfrwt>
<totfact> 0.40511969E-01</totfact>
</mgrwt>
</event>
<event>
 6    1  0.2047711E-005  0.9557605E+03  0.7818608E-02  0.9358443E-01
          1   -1    0    0  501    0  0.00000000000E+00  0.00000000000E+00  0.20601295290E+04  0.20601295290E+04  0.00000000000E+00 0. -1.
         -1   -1    0    0    0  501 -0.00000000000E+00 -0.00000000000E+00 -0.11085203144E+03  0.11085203144E+03  0.00000000000E+00 0.  1.
         23    2    1    2    0    0  0.15001092305E+03  0.45002622855E+03  0.98567336822E+03  0.10969425474E+04  0.81878447116E+02 0.  0.
         13    1    3    3    0    0  0.61992693415E+02  0.85587097258E+02  0.24363342924E+03  0.26556636289E+03  0.00000000000E+00 0. -1.
        -13    1    3    3    0    0  0.88018229638E+02  0.36443913129E+03  0.74203993898E+03  0.83137618453E+03  0.00000000000E+00 0.  1.
         22    1    1    2    0    0 -0.15001092305E+03 -0.45002622855E+03  0.96360412936E+03  0.10740390130E+04  0.00000000000E+00 0. -1.
<mgrwt>
<rscale>  0 0.95576052E+03</rscale>
<asrwt>0</asrwt>
<pdfrwt beam="1">  1        1 0.31694298E+00 0.95576052E+03</pdfrwt>
<pdfrwt beam="2">  1       -1 0.17054160E-01 0.95576052E+03</pdfrwt>
<totfact> 0.73187509E+01</totfact>
</mgrwt>
</event>
<event>
 6    1  0.2047711E-005  0.1902356E+04  0.7818608E-02  0.8653685E-01
         -2   -1    0    0    0  501 -0.00000000000E+00  0.00000000000E+00  0.37487243659E+03  0.37487243659E+03  0.00000000000E+00 0.  1.
          2   -1    0    0  501    0  0.00000000000E+00 -0.00000000000E+00 -0.24134599608E+04  0.24134599608E+04  0.00000000000E+00 0. -1.
         23    2    1    2    0    0 -0.91497913736E+03  0.18662451492E+03 -0.77487959959E+03  0.12170357194E+04  0.93391740393E+02 0.  0.
         13    1    3    3    0    0 -0.44730693316E+03  0.84844518070E+02 -0.43784270908E+03  0.63165522446E+03  0.00000000000E+00 0.  1.
        -13    1    3    3    0    0 -0.46767220420E+03  0.10177999685E+03 -0.33703689051E+03  0.58538049498E+03  0.00000000000E+00 0. -1.
         22    1    1    2    0    0  0.91497913736E+03 -0.18662451492E+03 -0.12637079247E+04  0.15712966780E+04  0.00000000000E+00 0. -1.
<mgrwt>
<rscale>  0 0.19023560E+04</rscale>
<asrwt>0</asrwt>
<pdfrwt beam="1">  1        2 0.37130152E+00 0.19023560E+04</pdfrwt>
<pdfrwt beam="2">  1       -2 0.57672684E-01 0.19023560E+04</pdfrwt>
<totfact> 0.10301298E+01</totfact>
</mgrwt>
</event>
<event>
 6    1  0.2047711E-005  0.2589784E+04  0.7818608E-02  0.8371680E-01
         -1   -1    0    0    0  501 -0.00000000000E+00  0.00000000000E+00  0.13721215536E+04  0.13721215536E+04  0.00000000000E+00 0.  1.
          1   -1    0    0  501    0  0.00000000000E+00 -0.00000000000E+00 -0.12220088780E+04  0.12220088780E+04  0.00000000000E+00 0. -1.
         23    2    1    2    0    0 -0.77697833921E+03  0.76914517059E+03 -0.61685408342E+03  0.12586463836E+04  0.91663109526E+02 0.  0.
         11    1    3    3    0    0 -0.34175895898E+03  0.35911651281E+03 -0.23025957495E+03  0.54661076432E+03  0.00000000000E+00 0.  1.
        -11    1    3    3    0    0 -0.43521938023E+03  0.41002865778E+03 -0.38659450847E+03  0.71203561927E+03  0.00000000000E+00 0. -1.
         22    1    1    2    0    0  0.77697833921E+03 -0.76914517059E+03  0.76696675906E+03  0.13354840480E+04  0.00000000000E+00 0. -1.
<mgrwt>
<rscale>  0 0.25897836E+04</rscale>
<asrwt>0</asrwt>
<pdfrwt beam="1">  1        1 0.18800137E+00 0.25897836E+04</pdfrwt>
<pdfrwt beam="2">  1       -1 0.21109562E+00 0.25897836E+04</pdfrwt>
<totfact> 0.11471818E+00</totfact>
</mgrwt>
</event>
<event>
 6    1  0.2047711E-005  0.3682247E+04  0.7818608E-02  0.8071908E-01
          3   -1    0    0  501    0  0.00000000000E+00  0.00000000000E+00  0.35629582958E+04  0.35629582958E+04  0.00000000000E+00 0. -1.
         -3   -1    0    0    0  501 -0.00000000000E+00 -0.00000000000E+00 -0.95138231061E+03  0.95138231061E+03  0.00000000000E+00 0.  1.
         23    2    1    2    0    0 -0.98423598118E+03  0.98210918661E+03  0.27839923168E+04  0.31132744721E+04  0.92767438807E+02 0.  0.
         11    1    3    3    0    0 -0.55419950728E+03  0.61682201659E+03  0.16439616431E+04  0.18412540232E+04  0.00000000000E+00 0.  1.
        -11    1    3    3    0    0 -0.43003647390E+03  0.36528717002E+03  0.11400306737E+04  0.12720204489E+04  0.00000000000E+00 0. -1.
         22    1    1    2    0    0  0.98423598118E+03 -0.98210918661E+03 -0.17241633166E+03  0.14010661342E+04  0.00000000000E+00 0.  1.
<mgrwt>
<rscale>  0 0.36822469E+04</rscale>
<asrwt>0</asrwt>
<pdfrwt beam="1">  1        3 0.54814742E+00 0.36822469E+04</pdfrwt>
<pdfrwt beam="2">  1       -3 0.14636651E+00 0.36822469E+04</pdfrwt>
<totfact> 0.14419438E-03</totfact>
</mgrwt>
</event>
<event>
 6    1  0.2047711E-005  0.4002106E+04  0.7818608E-02  0.8004122E-01
          2   -1    0    0  501    0  0.00000000000E+00  0.00000000000E+00  0.25358550381E+04  0.25358550381E+04  0.00000000000E+00 0. -1.
         -2   -1    0    0    0  501 -0.00000000000E+00 -0.00000000000E+00 -0.15790383439E+04  0.15790383439E+04  0.00000000000E+00 0.  1.
         23    2    1    2    0    0  0.99162385164E+03  0.50425169623E+03 -0.12302356235E+04  0.16611644897E+04  0.91652257784E+02 0.  0.
         13    1    3    3    0    0  0.58494572921E+03  0.28895561849E+03 -0.65449830411E+03  0.92413466858E+03  0.00000000000E+00 0. -1.
        -13    1    3    3    0    0  0.40667812243E+03  0.21529607774E+03 -0.57573731934E+03  0.73702982113E+03  0.00000000000E+00 0.  1.
         22    1    1    2    0    0 -0.99162385164E+03 -0.50425169623E+03  0.21870523177E+04  0.24537288923E+04  0.00000000000E+00 0. -1.
<mgrwt>
<rscale>  0 0.40021056E+04</rscale>
<asrwt>0</asrwt>
<pdfrwt beam="1">  1        2 0.39013154E+00 0.40021056E+04</pdfrwt>
<pdfrwt beam="2">  1       -2 0.24292898E+00 0.40021056E+04</pdfrwt>
<totfact> 0.18593161E-01</totfact>
</mgrwt>
</event>
<event>
 6    1  0.2047711E-005  0.4436762E+04  0.7818608E-02  0.7921802E-01
         -2   -1    0    0    0  501 -0.00000000000E+00  0.00000000000E+00  0.12134784238E+04  0.12134784238E+04  0.00000000000E+00 0. -1.
          2   -1    0    0  501    0  0.00000000000E+00 -0.00000000000E+00 -0.40554600034E+04  0.40554600034E+04  0.00000000000E+00 0.  1.
         23    2    1    2    0    0  0.58154189518E+03  0.45283517946E+03  0.10620339506E+04  0.12959561800E+04  0.91299685840E+02 0.  0.
         11    1    3    3    0    0  0.47719007411E+03  0.33556476495E+03  0.87706763255E+03  0.10533573517E+04  0.00000000000E+00 0. -1.
        -11    1    3    3    0    0  0.10435182107E+03  0.11727041452E+03  0.18496631809E+03  0.24259882834E+03  0.00000000000E+00 0.  1.
         22    1    1    2    0    0 -0.58154189518E+03 -0.45283517946E+03 -0.39040155303E+04  0.39729822471E+04  0.00000000000E+00 0.  1.
<mgrwt>
<rscale>  0 0.44367615E+04</rscale>
<asrwt>0</asrwt>
<pdfrwt beam="1">  1        2 0.62391690E+00 0.44367615E+04</pdfrwt>
<pdfrwt beam="2">  1       -2 0.18668900E+00 0.44367615E+04</pdfrwt>
<totfact> 0.38129220E-02</totfact>
</mgrwt>
</event>
<event>
 6    1  0.2373165E-005  0.4005725E+04  0.7818608E-02  0.8003393E-01
         -1   -1    0    0    0  501 -0.00000000000E+00  0.00000000000E+00  0.12538790153E+04  0.12538790153E+04  0.00000000000E+00 0.  1.
          1   -1    0    0  501    0  0.00000000000E+00 -0.00000000000E+00 -0.31992384115E+04  0.31992384115E+04  0.00000000000E+00 0. -1.
         23    2    1    2    0    0 -0.26459083590E+03 -0.73711581927E+03 -0.30211946514E+04  0.31224147787E+04  0.92243627753E+02 0.  0.
         13    1    3    3    0    0 -0.73168526016E+02 -0.28610290364E+03 -0.10007521527E+04  0.10434142877E+04  0.00000000000E+00 0.  1.
        -13    1    3    3    0    0 -0.19142230988E+03 -0.45101291563E+03 -0.20204424987E+04  0.20790004910E+04  0.00000000000E+00 0. -1.
         22    1    1    2    0    0  0.26459083590E+03  0.73711581927E+03  0.10758352552E+04  0.13307026481E+04  0.00000000000E+00 0.  1.
<mgrwt>
<rscale>  0 0.40057249E+04</rscale>
<asrwt>0</asrwt>
<pdfrwt beam="1">  1        1 0.49219053E+00 0.40057249E+04</pdfrwt>
<pdfrwt beam="2">  1       -1 0.19290446E+00 0.40057249E+04</pdfrwt>
<totfact> 0.56091311E-02</totfact>
</mgrwt>
</event>
<event>
 6    1  0.2047711E-005  0.2349799E+04  0.7818608E-02  0.8458541E-01
         -2   -1    0    0    0  501 -0.00000000000E+00  0.00000000000E+00  0.13938080709E+04  0.13938080709E+04  0.00000000000E+00 0.  1.
          2   -1    0    0  501    0  0.00000000000E+00 -0.00000000000E+00 -0.99037250103E+03  0.99037250103E+03  0.00000000000E+00 0. -1.
         23    2    1    2    0    0 -0.59933375926E+03  0.87977519557E+03 -0.29855191820E+03  0.11090367435E+04  0.87314952540E+02 0.  0.
         11    1    3    3    0    0 -0.43521862390E+03  0.66759449522E+03 -0.25858245149E+03  0.83783205051E+03  0.00000000000E+00 0. -1.
        -11    1    3    3    0    0 -0.16411513537E+03  0.21218070035E+03 -0.39969466711E+02  0.27120469304E+03  0.00000000000E+00 0.  1.
         22    1    1    2    0    0  0.59933375926E+03 -0.87977519557E+03  0.70198748812E+03  0.12751438284E+04  0.00000000000E+00 0.  1.
<mgrwt>
<rscale>  0 0.23497993E+04</rscale>
<asrwt>0</asrwt>
<pdfrwt beam="1">  1        2 0.15236500E+00 0.23497993E+04</pdfrwt>
<pdfrwt beam="2">  1       -2 0.21443201E+00 0.23497993E+04</pdfrwt>
<totfact> 0.24736836E+00</totfact>
</mgrwt>
</event>
<event>
 6    1  0.2047711E-005  0.3145973E+04  0.7818608E-02  0.8203233E-01
         -2   -1    0    0    0  501 -0.00000000000E+00  0.00000000000E+00  0.12009798737E+04  0.12009798737E+04  0.00000000000E+00 0.  1.
          2   -1    0    0  501    0  0.00000000000E+00 -0.00000000000E+00 -0.20602228710E+04  0.20602228710E+04  0.00000000000E+00 0. -1.
         23    2    1    2    0    0  0.30111750009E+03  0.15115547836E+04 -0.74900430327E+03  0.17160094939E+04  0.90617460713E+02 0.  0.
         13    1    3    3    0    0  0.94765900934E+02  0.34011207494E+03 -0.20218688209E+03  0.40686156711E+03  0.00000000000E+00 0.  1.
        -13    1    3    3    0    0  0.20635159916E+03  0.11714427086E+04 -0.54681742119E+03  0.13091479268E+04  0.00000000000E+00 0. -1.
         22    1    1    2    0    0 -0.30111750009E+03 -0.15115547836E+04 -0.11023869397E+03  0.15451932508E+04  0.00000000000E+00 0.  1.
<mgrwt>
<rscale>  0 0.31459728E+04</rscale>
<asrwt>0</asrwt>
<pdfrwt beam="1">  1        2 0.31695737E+00 0.31459728E+04</pdfrwt>
<pdfrwt beam="2">  1       -2 0.18476613E+00 0.31459728E+04</pdfrwt>
<totfact> 0.87970497E-01</totfact>
</mgrwt>
</event>
<event>
 6    1  0.2047711E-005  0.2460558E+04  0.7818608E-02  0.8417173E-01
         -2   -1    0    0    0  501 -0.00000000000E+00  0.00000000000E+00  0.77188833041E+03  0.77188833041E+03  0.00000000000E+00 0.  1.
          2   -1    0    0  501    0  0.00000000000E+00 -0.00000000000E+00 -0.19608882716E+04  0.19608882716E+04  0.00000000000E+00 0. -1.
         23    2    1    2    0    0  0.71110699688E+03  0.98223076401E+03 -0.81474098424E+03  0.14637138764E+04  0.90581486950E+02 0.  0.
         11    1    3    3    0    0  0.48039559640E+03  0.69775536716E+03 -0.52425910243E+03  0.99623796752E+03  0.00000000000E+00 0.  1.
        -11    1    3    3    0    0  0.23071140047E+03  0.28447539685E+03 -0.29048188180E+03  0.46747590887E+03  0.00000000000E+00 0. -1.
         22    1    1    2    0    0 -0.71110699688E+03 -0.98223076401E+03 -0.37425895698E+03  0.12690627257E+04  0.00000000000E+00 0.  1.
<mgrwt>
<rscale>  0 0.24605583E+04</rscale>
<asrwt>0</asrwt>
<pdfrwt beam="1">  1        2 0.30167512E+00 0.24605583E+04</pdfrwt>
<pdfrwt beam="2">  1       -2 0.11875205E+00 0.24605583E+04</pdfrwt>
<totfact> 0.34253894E+00</totfact>
</mgrwt>
</event>
<event>
 6    1  0.2047711E-005  0.1661915E+04  0.7818608E-02  0.8783389E-01
          2   -1    0    0  501    0  0.00000000000E+00  0.00000000000E+00  0.19420571351E+04  0.19420571351E+04  0.00000000000E+00 0. -1.
         -2   -1    0    0    0  501 -0.00000000000E+00 -0.00000000000E+00 -0.35554567521E+03  0.35554567521E+03  0.00000000000E+00 0.  1.
         23    2    1    2    0    0 -0.18775978619E+03 -0.79870899488E+03  0.95305819045E+03  0.12610446400E+04  0.93401680676E+02 0.  0.
         11    1    3    3    0    0 -0.94236192844E+02 -0.23479014395E+03  0.32378649809E+03  0.41090700661E+03  0.00000000000E+00 0.  1.
        -11    1    3    3    0    0 -0.93523593345E+02 -0.56391885094E+03  0.62927169235E+03  0.85013763342E+03  0.00000000000E+00 0. -1.
         22    1    1    2    0    0  0.18775978619E+03  0.79870899488E+03  0.63345326948E+03  0.10365581703E+04  0.00000000000E+00 0. -1.
<mgrwt>
<rscale>  0 0.16619146E+04</rscale>
<asrwt>0</asrwt>
<pdfrwt beam="1">  1        2 0.29877801E+00 0.16619146E+04</pdfrwt>
<pdfrwt beam="2">  1       -2 0.54699336E-01 0.16619146E+04</pdfrwt>
<totfact> 0.21597058E+01</totfact>
</mgrwt>
</event>
<event>
 6    1  0.2047711E-005  0.3089898E+04  0.7818608E-02  0.8218516E-01
          2   -1    0    0  501    0  0.00000000000E+00  0.00000000000E+00  0.27558367844E+04  0.27558367844E+04  0.00000000000E+00 0. -1.
         -2   -1    0    0    0  501 -0.00000000000E+00 -0.00000000000E+00 -0.86611355049E+03  0.86611355049E+03  0.00000000000E+00 0.  1.
         23    2    1    2    0    0 -0.11316462413E+04 -0.18120996891E+03  0.21577676844E+04  0.24449592152E+04  0.91672875637E+02 0.  0.
         13    1    3    3    0    0 -0.96997175571E+03 -0.12772684099E+03  0.18742416548E+04  0.21142235297E+04  0.00000000000E+00 0.  1.
        -13    1    3    3    0    0 -0.16167448557E+03 -0.53483127919E+02  0.28352602956E+03  0.33073568555E+03  0.00000000000E+00 0. -1.
         22    1    1    2    0    0  0.11316462413E+04  0.18120996891E+03 -0.26804445052E+03  0.11769911196E+04  0.00000000000E+00 0.  1.
<mgrwt>
<rscale>  0 0.30898981E+04</rscale>
<asrwt>0</asrwt>
<pdfrwt beam="1">  1        2 0.42397489E+00 0.30898981E+04</pdfrwt>
<pdfrwt beam="2">  1       -2 0.13324824E+00 0.30898981E+04</pdfrwt>
<totfact> 0.85183273E-01</totfact>
</mgrwt>
</event>
<event>
 6    1  0.2047711E-005  0.1595467E+04  0.7818608E-02  0.8823338E-01
          1   -1    0    0  501    0  0.00000000000E+00  0.00000000000E+00  0.12929142045E+04  0.12929142045E+04  0.00000000000E+00 0. -1.
         -1   -1    0    0    0  501 -0.00000000000E+00 -0.00000000000E+00 -0.49220485382E+03  0.49220485382E+03  0.00000000000E+00 0.  1.
         23    2    1    2    0    0 -0.45479434146E+03  0.62026868580E+03  0.62689506025E+03  0.99658716730E+03  0.92830112899E+02 0.  0.
         11    1    3    3    0    0 -0.29655115880E+03  0.47412397595E+03  0.44590664821E+03  0.71524043040E+03  0.00000000000E+00 0.  1.
        -11    1    3    3    0    0 -0.15824318266E+03  0.14614470984E+03  0.18098841203E+03  0.28134673690E+03  0.00000000000E+00 0. -1.
         22    1    1    2    0    0  0.45479434146E+03 -0.62026868580E+03  0.17381429045E+03  0.78853189103E+03  0.00000000000E+00 0.  1.
<mgrwt>
<rscale>  0 0.15954669E+04</rscale>
<asrwt>0</asrwt>
<pdfrwt beam="1">  1        1 0.19890988E+00 0.15954669E+04</pdfrwt>
<pdfrwt beam="2">  1       -1 0.75723825E-01 0.15954669E+04</pdfrwt>
<totfact> 0.15393626E+01</totfact>
</mgrwt>
</event>
<event>
 6    1  0.2047711E-005  0.8563455E+03  0.7818608E-02  0.9481860E-01
         -1   -1    0    0    0  501 -0.00000000000E+00  0.00000000000E+00  0.18300501840E+03  0.18300501840E+03  0.00000000000E+00 0.  1.
          1   -1    0    0  501    0  0.00000000000E+00 -0.00000000000E+00 -0.10017861867E+04  0.10017861867E+04  0.00000000000E+00 0. -1.
         23    2    1    2    0    0 -0.51079363061E+02  0.30166576248E+03 -0.81615920902E+03  0.87882027800E+03  0.11224033579E+03 0.  0.
         11    1    3    3    0    0  0.19301512897E+02  0.16390711305E+03 -0.50578551555E+03  0.53203108730E+03  0.00000000000E+00 0.  1.
        -11    1    3    3    0    0 -0.70380875958E+02  0.13775864943E+03 -0.31037369347E+03  0.34678919070E+03  0.00000000000E+00 0. -1.
         22    1    1    2    0    0  0.51079363061E+02 -0.30166576248E+03 -0.26219593159E+01  0.30597092713E+03  0.00000000000E+00 0.  1.
<mgrwt>
<rscale>  0 0.85634549E+03</rscale>
<asrwt>0</asrwt>
<pdfrwt beam="1">  1        1 0.15412095E+00 0.85634549E+03</pdfrwt>
<pdfrwt beam="2">  1       -1 0.28154618E-01 0.85634549E+03</pdfrwt>
<totfact> 0.17335301E+02</totfact>
</mgrwt>
</event>
<event>
 6    1  0.2047711E-005  0.2806151E+04  0.7818608E-02  0.8301361E-01
         -2   -1    0    0    0  501 -0.00000000000E+00  0.00000000000E+00  0.78466715231E+03  0.78466715231E+03  0.00000000000E+00 0.  1.
          2   -1    0    0  501    0  0.00000000000E+00 -0.00000000000E+00 -0.25088614505E+04  0.25088614505E+04  0.00000000000E+00 0. -1.
         23    2    1    2    0    0 -0.62503531191E+03  0.46182075998E+03  0.50589071706E+03  0.93191332282E+03  0.92679383700E+02 0.  0.
         13    1    3    3    0    0 -0.65728421137E+02  0.81917590989E+02  0.49064049880E+02  0.11592237942E+03  0.00000000000E+00 0.  1.
        -13    1    3    3    0    0 -0.55930689077E+03  0.37990316899E+03  0.45682666718E+03  0.81599094341E+03  0.00000000000E+00 0. -1.
         22    1    1    2    0    0  0.62503531191E+03 -0.46182075998E+03 -0.22300850153E+04  0.23616152800E+04  0.00000000000E+00 0. -1.
<mgrwt>
<rscale>  0 0.28061512E+04</rscale>
<asrwt>0</asrwt>
<pdfrwt beam="1">  1        2 0.38597868E+00 0.28061512E+04</pdfrwt>
<pdfrwt beam="2">  1       -2 0.12071803E+00 0.28061512E+04</pdfrwt>
<totfact> 0.15649443E+00</totfact>
</mgrwt>
</event>
<event>
 6    1  0.2047711E-005  0.6268263E+04  0.7818608E-02  0.7658002E-01
          2   -1    0    0  501    0  0.00000000000E+00  0.00000000000E+00  0.38514790820E+04  0.38514790820E+04  0.00000000000E+00 0. -1.
         -2   -1    0    0    0  501 -0.00000000000E+00 -0.00000000000E+00 -0.25503918717E+04  0.25503918717E+04  0.00000000000E+00 0.  1.
         23    2    1    2    0    0 -0.32676543971E+03 -0.28773322535E+04 -0.57183610457E+03  0.29531525985E+04  0.91088911975E+02 0.  0.
         13    1    3    3    0    0 -0.17467523063E+03 -0.17036591556E+04 -0.29663132668E+03  0.17380897844E+04  0.00000000000E+00 0. -1.
        -13    1    3    3    0    0 -0.15209020908E+03 -0.11736730980E+04 -0.27520477789E+03  0.12150628142E+04  0.00000000000E+00 0.  1.
         22    1    1    2    0    0  0.32676543971E+03  0.28773322535E+04  0.18729233148E+04  0.34487183551E+04  0.00000000000E+00 0. -1.
<mgrwt>
<rscale>  0 0.62682632E+04</rscale>
<asrwt>0</asrwt>
<pdfrwt beam="1">  1        2 0.59253524E+00 0.62682632E+04</pdfrwt>
<pdfrwt beam="2">  1       -2 0.39236798E+00 0.62682632E+04</pdfrwt>
<totfact> 0.24534378E-03</totfact>
</mgrwt>
</event>
<event>
 6    1  0.2047711E-005  0.8840013E+03  0.7818608E-02  0.9445805E-01
         -2   -1    0    0    0  501 -0.00000000000E+00  0.00000000000E+00  0.29716865320E+03  0.29716865320E+03  0.00000000000E+00 0.  1.
          2   -1    0    0  501    0  0.00000000000E+00 -0.00000000000E+00 -0.65741981960E+03  0.65741981960E+03  0.00000000000E+00 0. -1.
         23    2    1    2    0    0 -0.25079516375E+03 -0.15427138800E+03  0.16721844536E+03  0.35050067566E+03  0.90503258809E+02 0.  0.
         11    1    3    3    0    0 -0.14351169406E+03 -0.99897427558E+02  0.48399740897E+02  0.18143218371E+03  0.00000000000E+00 0.  1.
        -11    1    3    3    0    0 -0.10728346969E+03 -0.54373960442E+02  0.11881870446E+03  0.16906849195E+03  0.00000000000E+00 0. -1.
         22    1    1    2    0    0  0.25079516375E+03  0.15427138800E+03 -0.52746961176E+03  0.60408779714E+03  0.00000000000E+00 0. -1.
<mgrwt>
<rscale>  0 0.88400127E+03</rscale>
<asrwt>0</asrwt>
<pdfrwt beam="1">  1        2 0.10114151E+00 0.88400127E+03</pdfrwt>
<pdfrwt beam="2">  1       -2 0.45718255E-01 0.88400127E+03</pdfrwt>
<totfact> 0.20185720E+02</totfact>
</mgrwt>
</event>
<event>
 6    1  0.2047711E-005  0.5250513E+04  0.7818608E-02  0.7790984E-01
          2   -1    0    0  501    0  0.00000000000E+00  0.00000000000E+00  0.29972324779E+04  0.29972324779E+04  0.00000000000E+00 0. -1.
         -2   -1    0    0    0  501 -0.00000000000E+00 -0.00000000000E+00 -0.22994448243E+04  0.22994448243E+04  0.00000000000E+00 0.  1.
         23    2    1    2    0    0  0.70911688243E+03 -0.25268333738E+04  0.32789902224E+03  0.26462903018E+04  0.87183372554E+02 0.  0.
         11    1    3    3    0    0  0.43943241040E+03 -0.17159375031E+04  0.22611113691E+03  0.17856843518E+04  0.00000000000E+00 0. -1.
        -11    1    3    3    0    0  0.26968447203E+03 -0.81089587072E+03  0.10178788533E+03  0.86060595002E+03  0.00000000000E+00 0.  1.
         22    1    1    2    0    0 -0.70911688243E+03  0.25268333738E+04  0.36988863134E+03  0.26503870004E+04  0.00000000000E+00 0. -1.
<mgrwt>
<rscale>  0 0.52505126E+04</rscale>
<asrwt>0</asrwt>
<pdfrwt beam="1">  1        2 0.46111269E+00 0.52505126E+04</pdfrwt>
<pdfrwt beam="2">  1       -2 0.35376074E+00 0.52505126E+04</pdfrwt>
<totfact> 0.18372451E-02</totfact>
</mgrwt>
</event>
<event>
 6    1  0.2047711E-005  0.2522704E+04  0.7818608E-02  0.8394942E-01
          1   -1    0    0  501    0  0.00000000000E+00  0.00000000000E+00  0.33211905973E+04  0.33211905973E+04  0.00000000000E+00 0. -1.
         -1   -1    0    0    0  501 -0.00000000000E+00 -0.00000000000E+00 -0.47904763523E+03  0.47904763523E+03  0.00000000000E+00 0.  1.
         23    2    1    2    0    0  0.24999125842E+03 -0.10224786991E+04  0.38037516403E+03  0.11228777766E+04  0.90614106634E+02 0.  0.
         13    1    3    3    0    0  0.10300889150E+03 -0.60282363050E+03  0.20752743296E+03  0.64581328312E+03  0.00000000000E+00 0.  1.
        -13    1    3    3    0    0  0.14698236692E+03 -0.41965506863E+03  0.17284773107E+03  0.47706449349E+03  0.00000000000E+00 0. -1.
         22    1    1    2    0    0 -0.24999125842E+03  0.10224786991E+04  0.24617677981E+04  0.26773604559E+04  0.00000000000E+00 0. -1.
<mgrwt>
<rscale>  0 0.25227037E+04</rscale>
<asrwt>0</asrwt>
<pdfrwt beam="1">  1        1 0.51095238E+00 0.25227037E+04</pdfrwt>
<pdfrwt beam="2">  1       -1 0.73699638E-01 0.25227037E+04</pdfrwt>
<totfact> 0.56597110E-01</totfact>
</mgrwt>
</event>
<event>
 6    1  0.4260513E-005  0.4397810E+04  0.7818608E-02  0.7928776E-01
         -2   -1    0    0    0  501 -0.00000000000E+00  0.00000000000E+00  0.18260180062E+04  0.18260180062E+04  0.00000000000E+00 0.  1.
          2   -1    0    0  501    0  0.00000000000E+00 -0.00000000000E+00 -0.26479387279E+04  0.26479387279E+04  0.00000000000E+00 0. -1.
         23    2    1    2    0    0  0.10672841972E+04 -0.10895903993E+04  0.11989411928E+04  0.19421222858E+04  0.89867643450E+02 0.  0.
         13    1    3    3    0    0  0.41059399964E+03 -0.46077471349E+03  0.52711835266E+03  0.81163694275E+03  0.00000000000E+00 0.  1.
        -13    1    3    3    0    0  0.65669019756E+03 -0.62881568585E+03  0.67182284017E+03  0.11304853431E+04  0.00000000000E+00 0. -1.
         22    1    1    2    0    0 -0.10672841972E+04  0.10895903993E+04 -0.20208619145E+04  0.25318344483E+04  0.00000000000E+00 0. -1.
<mgrwt>
<rscale>  0 0.43978103E+04</rscale>
<asrwt>0</asrwt>
<pdfrwt beam="1">  1        2 0.40737519E+00 0.43978103E+04</pdfrwt>
<pdfrwt beam="2">  1       -2 0.28092585E+00 0.43978103E+04</pdfrwt>
<totfact> 0.90548569E-02</totfact>
</mgrwt>
</event>
<event>
 6    1  0.2047711E-005  0.1234288E+04  0.7818608E-02  0.9083363E-01
         -2   -1    0    0    0  501 -0.00000000000E+00  0.00000000000E+00  0.37054050420E+03  0.37054050420E+03  0.00000000000E+00 0.  1.
          2   -1    0    0  501    0  0.00000000000E+00 -0.00000000000E+00 -0.10278681996E+04  0.10278681996E+04  0.00000000000E+00 0. -1.
         23    2    1    2    0    0 -0.82385102654E+02  0.13807835520E+03 -0.10014441932E+04  0.10185809778E+04  0.93615164417E+02 0.  0.
         13    1    3    3    0    0 -0.30165692296E+01  0.32143012617E+02 -0.46226728572E+03  0.46339326322E+03  0.00000000000E+00 0.  1.
        -13    1    3    3    0    0 -0.79368533424E+02  0.10593534258E+03 -0.53917690749E+03  0.55518771463E+03  0.00000000000E+00 0. -1.
         22    1    1    2    0    0  0.82385102654E+02 -0.13807835520E+03  0.34411649782E+03  0.37982772593E+03  0.00000000000E+00 0.  1.
<mgrwt>
<rscale>  0 0.12342881E+04</rscale>
<asrwt>0</asrwt>
<pdfrwt beam="1">  1        2 0.15813357E+00 0.12342881E+04</pdfrwt>
<pdfrwt beam="2">  1       -2 0.57006232E-01 0.12342881E+04</pdfrwt>
<totfact> 0.68664222E+01</totfact>
</mgrwt>
</event>
<event>
 6    1  0.2047711E-005  0.1772412E+04  0.7818608E-02  0.8721109E-01
         -2   -1    0    0    0  501 -0.00000000000E+00  0.00000000000E+00  0.37670323234E+03  0.37670323234E+03  0.00000000000E+00 0.  1.
          2   -1    0    0  501    0  0.00000000000E+00 -0.00000000000E+00 -0.20848273414E+04  0.20848273414E+04  0.00000000000E+00 0. -1.
         23    2    1    2    0    0  0.37963734398E+03 -0.45300384189E+03  0.56291928287E+02  0.60075091281E+03  0.91629058392E+02 0.  0.
         13    1    3    3    0    0  0.27297286254E+03 -0.26639458997E+03  0.57988129331E+02  0.38580161274E+03  0.00000000000E+00 0. -1.
        -13    1    3    3    0    0  0.10666448144E+03 -0.18660925193E+03 -0.16962010436E+01  0.21494930007E+03  0.00000000000E+00 0.  1.
         22    1    1    2    0    0 -0.37963734398E+03  0.45300384189E+03 -0.17644160374E+04  0.18607796610E+04  0.00000000000E+00 0. -1.
<mgrwt>
<rscale>  0 0.17724121E+04</rscale>
<asrwt>0</asrwt>
<pdfrwt beam="1">  1        2 0.32074266E+00 0.17724121E+04</pdfrwt>
<pdfrwt beam="2">  1       -2 0.57954344E-01 0.17724121E+04</pdfrwt>
<totfact> 0.15799451E+01</totfact>
</mgrwt>
</event>
<event>
 6    1  0.2047711E-005  0.1229004E+04  0.7818608E-02  0.9087842E-01
         -2   -1    0    0    0  501 -0.00000000000E+00  0.00000000000E+00  0.14461473855E+03  0.14461473855E+03  0.00000000000E+00 0.  1.
          2   -1    0    0  501    0  0.00000000000E+00 -0.00000000000E+00 -0.26111626645E+04  0.26111626645E+04  0.00000000000E+00 0. -1.
         23    2    1    2    0    0 -0.13761622845E+03  0.44880736124E+03 -0.21171951665E+04  0.21706162079E+04  0.93236659754E+02 0.  0.
         11    1    3    3    0    0 -0.25902139163E+02  0.18281022815E+03 -0.99107176717E+03  0.10081238753E+04  0.00000000000E+00 0.  1.
        -11    1    3    3    0    0 -0.11171408928E+03  0.26599713309E+03 -0.11261233994E+04  0.11624923325E+04  0.00000000000E+00 0. -1.
         22    1    1    2    0    0  0.13761622845E+03 -0.44880736124E+03 -0.34935275937E+03  0.58516119515E+03  0.00000000000E+00 0.  1.
<mgrwt>
<rscale>  0 0.12290038E+04</rscale>
<asrwt>0</asrwt>
<pdfrwt beam="1">  1        2 0.40171738E+00 0.12290038E+04</pdfrwt>
<pdfrwt beam="2">  1       -2 0.22248419E-01 0.12290038E+04</pdfrwt>
<totfact> 0.52630355E+01</totfact>
</mgrwt>
</event>
<event>
 6    1  0.2047711E-005  0.2122136E+04  0.7818608E-02  0.8551555E-01
          1   -1    0    0  501    0  0.00000000000E+00  0.00000000000E+00  0.12620529304E+04  0.12620529304E+04  0.00000000000E+00 0. -1.
         -1   -1    0    0    0  501 -0.00000000000E+00 -0.00000000000E+00 -0.89209013089E+03  0.89209013089E+03  0.00000000000E+00 0.  1.
         23    2    1    2    0    0 -0.14665536292E+03 -0.37881306618E+03  0.11781777718E+04  0.12495887091E+04  0.91443673129E+02 0.  0.
         11    1    3    3    0    0  0.12063806874E+02 -0.44890845051E+02  0.14315875881E+03  0.15051629025E+03  0.00000000000E+00 0. -1.
        -11    1    3    3    0    0 -0.15871916980E+03 -0.33392222112E+03  0.10350190130E+04  0.10990724188E+04  0.00000000000E+00 0.  1.
         22    1    1    2    0    0  0.14665536292E+03  0.37881306618E+03 -0.80821497230E+03  0.90455435217E+03  0.00000000000E+00 0.  1.
<mgrwt>
<rscale>  0 0.21221357E+04</rscale>
<asrwt>0</asrwt>
<pdfrwt beam="1">  1        1 0.19416199E+00 0.21221357E+04</pdfrwt>
<pdfrwt beam="2">  1       -1 0.13724463E+00 0.21221357E+04</pdfrwt>
<totfact> 0.39033444E+00</totfact>
</mgrwt>
</event>
<event>
 6    1  0.2047711E-005  0.1448892E+04  0.7818608E-02  0.8919169E-01
          1   -1    0    0  501    0  0.00000000000E+00  0.00000000000E+00  0.81937709638E+03  0.81937709638E+03  0.00000000000E+00 0. -1.
         -1   -1    0    0    0  501 -0.00000000000E+00 -0.00000000000E+00 -0.64051381585E+03  0.64051381585E+03  0.00000000000E+00 0.  1.
         23    2    1    2    0    0 -0.37910625222E+03 -0.60507234555E+03 -0.15146448079E+02  0.71997614105E+03  0.91116052197E+02 0.  0.
         13    1    3    3    0    0 -0.28364369438E+03 -0.51679424375E+03 -0.47263601755E+01  0.58953572769E+03  0.00000000000E+00 0.  1.
        -13    1    3    3    0    0 -0.95462557839E+02 -0.88278101794E+02 -0.10420087903E+02  0.13044041336E+03  0.00000000000E+00 0. -1.
         22    1    1    2    0    0  0.37910625222E+03  0.60507234555E+03  0.19400972861E+03  0.73991477118E+03  0.00000000000E+00 0. -1.
<mgrwt>
<rscale>  0 0.14488925E+04</rscale>
<asrwt>0</asrwt>
<pdfrwt beam="1">  1        1 0.12605801E+00 0.14488925E+04</pdfrwt>
<pdfrwt beam="2">  1       -1 0.98540587E-01 0.14488925E+04</pdfrwt>
<totfact> 0.20371407E+01</totfact>
</mgrwt>
</event>
<event>
 6    1  0.2047711E-005  0.2521004E+04  0.7818608E-02  0.8395541E-01
          2   -1    0    0  501    0  0.00000000000E+00  0.00000000000E+00  0.11158307207E+04  0.11158307207E+04  0.00000000000E+00 0. -1.
         -2   -1    0    0    0  501 -0.00000000000E+00 -0.00000000000E+00 -0.14239301488E+04  0.14239301488E+04  0.00000000000E+00 0.  1.
         23    2    1    2    0    0 -0.55172471812E+03 -0.22565649206E+03  0.96237834007E+03  0.11363953517E+04  0.99505320783E+02 0.  0.
         11    1    3    3    0    0 -0.35180990592E+03 -0.19443570726E+03  0.64579765666E+03  0.76067737413E+03  0.00000000000E+00 0. -1.
        -11    1    3    3    0    0 -0.19991481219E+03 -0.31220784808E+02  0.31658068341E+03  0.37571797754E+03  0.00000000000E+00 0.  1.
         22    1    1    2    0    0  0.55172471812E+03  0.22565649206E+03 -0.12704777683E+04  0.14033655178E+04  0.00000000000E+00 0.  1.
<mgrwt>
<rscale>  0 0.25210038E+04</rscale>
<asrwt>0</asrwt>
<pdfrwt beam="1">  1        2 0.17166626E+00 0.25210038E+04</pdfrwt>
<pdfrwt beam="2">  1       -2 0.21906618E+00 0.25210038E+04</pdfrwt>
<totfact> 0.19000931E+00</totfact>
</mgrwt>
</event>
<event>
 6    1  0.2047711E-005  0.4573079E+04  0.7818608E-02  0.7897966E-01
          2   -1    0    0  501    0  0.00000000000E+00  0.00000000000E+00  0.19558962361E+04  0.19558962361E+04  0.00000000000E+00 0. -1.
         -2   -1    0    0    0  501 -0.00000000000E+00 -0.00000000000E+00 -0.26730783555E+04  0.26730783555E+04  0.00000000000E+00 0.  1.
         23    2    1    2    0    0 -0.42645889947E+03 -0.69257348754E+03 -0.25208128423E+04  0.26504375025E+04  0.93788805857E+02 0.  0.
         13    1    3    3    0    0 -0.15016490191E+03 -0.22353490896E+03 -0.97830921893E+03  0.10146951666E+04  0.00000000000E+00 0. -1.
        -13    1    3    3    0    0 -0.27629399756E+03 -0.46903857858E+03 -0.15425036233E+04  0.16357423359E+04  0.00000000000E+00 0.  1.
         22    1    1    2    0    0  0.42645889947E+03  0.69257348754E+03  0.18036307229E+04  0.19785370892E+04  0.00000000000E+00 0. -1.
<mgrwt>
<rscale>  0 0.45730794E+04</rscale>
<asrwt>0</asrwt>
<pdfrwt beam="1">  1        2 0.30090711E+00 0.45730794E+04</pdfrwt>
<pdfrwt beam="2">  1       -2 0.41124282E+00 0.45730794E+04</pdfrwt>
<totfact> 0.33362842E-02</totfact>
</mgrwt>
</event>
<event>
 6    1  0.2047711E-005  0.2691863E+04  0.7818608E-02  0.8337650E-01
          2   -1    0    0  501    0  0.00000000000E+00  0.00000000000E+00  0.15360432736E+04  0.15360432736E+04  0.00000000000E+00 0. -1.
         -2   -1    0    0    0  501 -0.00000000000E+00 -0.00000000000E+00 -0.11793496516E+04  0.11793496516E+04  0.00000000000E+00 0.  1.
         23    2    1    2    0    0 -0.10744430673E+04 -0.74105000961E+03  0.50345357082E+03  0.14019541165E+04  0.91797740312E+02 0.  0.
         11    1    3    3    0    0 -0.42380759004E+03 -0.30638693509E+03  0.24848878256E+03  0.57899266181E+03  0.00000000000E+00 0.  1.
        -11    1    3    3    0    0 -0.65063547724E+03 -0.43466307452E+03  0.25496478825E+03  0.82296145465E+03  0.00000000000E+00 0. -1.
         22    1    1    2    0    0  0.10744430673E+04  0.74105000961E+03 -0.14675994880E+03  0.13134388087E+04  0.00000000000E+00 0. -1.
<mgrwt>
<rscale>  0 0.26918634E+04</rscale>
<asrwt>0</asrwt>
<pdfrwt beam="1">  1        2 0.23631435E+00 0.26918634E+04</pdfrwt>
<pdfrwt beam="2">  1       -2 0.18143841E+00 0.26918634E+04</pdfrwt>
<totfact> 0.18849350E+00</totfact>
</mgrwt>
</event>
<event>
 6    1  0.2047711E-005  0.3334967E+04  0.7818608E-02  0.8154055E-01
         -1   -1    0    0    0  501 -0.00000000000E+00  0.00000000000E+00  0.12319214214E+04  0.12319214214E+04  0.00000000000E+00 0.  1.
          1   -1    0    0  501    0  0.00000000000E+00 -0.00000000000E+00 -0.22570443188E+04  0.22570443188E+04  0.00000000000E+00 0. -1.
         23    2    1    2    0    0 -0.13600831164E+04  0.89653146798E+03 -0.14663088764E+03  0.16381975300E+04  0.92713394680E+02 0.  0.
         13    1    3    3    0    0 -0.44890749680E+03  0.28674737955E+03 -0.50282448667E+01  0.53269811677E+03  0.00000000000E+00 0.  1.
        -13    1    3    3    0    0 -0.91117561958E+03  0.60978408843E+03 -0.14160264277E+03  0.11054994132E+04  0.00000000000E+00 0. -1.
         22    1    1    2    0    0  0.13600831164E+04 -0.89653146798E+03 -0.87849200973E+03  0.18507682102E+04  0.00000000000E+00 0. -1.
<mgrwt>
<rscale>  0 0.33349670E+04</rscale>
<asrwt>0</asrwt>
<pdfrwt beam="1">  1        1 0.34723758E+00 0.33349670E+04</pdfrwt>
<pdfrwt beam="2">  1       -1 0.18952637E+00 0.33349670E+04</pdfrwt>
<totfact> 0.29332180E-01</totfact>
</mgrwt>
</event>
<event>
 6    1  0.2047711E-005  0.1238580E+04  0.7818608E-02  0.9079742E-01
         -2   -1    0    0    0  501 -0.00000000000E+00  0.00000000000E+00  0.13352078035E+03  0.13352078035E+03  0.00000000000E+00 0.  1.
          2   -1    0    0  501    0  0.00000000000E+00 -0.00000000000E+00 -0.28723645463E+04  0.28723645463E+04  0.00000000000E+00 0. -1.
         23    2    1    2    0    0 -0.16018556188E+03 -0.51463257290E+03 -0.65409541583E+03  0.85258976342E+03  0.92533195994E+02 0.  0.
         11    1    3    3    0    0 -0.23899304533E+02 -0.22623940383E+03 -0.25632828635E+03  0.34272384654E+03  0.00000000000E+00 0.  1.
        -11    1    3    3    0    0 -0.13628625734E+03 -0.28839316907E+03 -0.39776712948E+03  0.50986591689E+03  0.00000000000E+00 0. -1.
         22    1    1    2    0    0  0.16018556188E+03  0.51463257290E+03 -0.20847483501E+04  0.21532955632E+04  0.00000000000E+00 0. -1.
<mgrwt>
<rscale>  0 0.12385804E+04</rscale>
<asrwt>0</asrwt>
<pdfrwt beam="1">  1        2 0.44190223E+00 0.12385804E+04</pdfrwt>
<pdfrwt beam="2">  1       -2 0.20541659E-01 0.12385804E+04</pdfrwt>
<totfact> 0.42395124E+01</totfact>
</mgrwt>
</event>
<event>
 6    1  0.2047711E-005  0.1360878E+04  0.7818608E-02  0.8982634E-01
          2   -1    0    0  501    0  0.00000000000E+00  0.00000000000E+00  0.16280759903E+04  0.16280759903E+04  0.00000000000E+00 0. -1.
         -2   -1    0    0    0  501 -0.00000000000E+00 -0.00000000000E+00 -0.28438305527E+03  0.28438305527E+03  0.00000000000E+00 0.  1.
         23    2    1    2    0    0 -0.48980185270E+03  0.24860832003E+03  0.12319587380E+04  0.13519267250E+04  0.90948258675E+02 0.  0.
         13    1    3    3    0    0 -0.81703271126E+02  0.82589348328E+02  0.25346624240E+03  0.27882173697E+03  0.00000000000E+00 0.  1.
        -13    1    3    3    0    0 -0.40809858157E+03  0.16601897171E+03  0.97849249562E+03  0.10731049880E+04  0.00000000000E+00 0. -1.
         22    1    1    2    0    0  0.48980185270E+03 -0.24860832003E+03  0.11173419704E+03  0.56053232064E+03  0.00000000000E+00 0.  1.
<mgrwt>
<rscale>  0 0.13608780E+04</rscale>
<asrwt>0</asrwt>
<pdfrwt beam="1">  1        2 0.25047322E+00 0.13608780E+04</pdfrwt>
<pdfrwt beam="2">  1       -2 0.43751240E-01 0.13608780E+04</pdfrwt>
<totfact> 0.51995645E+01</totfact>
</mgrwt>
</event>
<event>
 6    1  0.2047711E-005  0.4024301E+04  0.7818608E-02  0.7999662E-01
         -2   -1    0    0    0  501 -0.00000000000E+00  0.00000000000E+00  0.97341961922E+03  0.97341961922E+03  0.00000000000E+00 0.  1.
          2   -1    0    0  501    0  0.00000000000E+00 -0.00000000000E+00 -0.41593049183E+04  0.41593049183E+04  0.00000000000E+00 0. -1.
         23    2    1    2    0    0  0.80209561272E+03  0.16157809428E+04 -0.27276769312E+04  0.32715259089E+04  0.92492726023E+02 0.  0.
         11    1    3    3    0    0  0.60956310678E+03  0.12826345556E+04 -0.20923562838E+04  0.25287691477E+04  0.00000000000E+00 0. -1.
        -11    1    3    3    0    0  0.19253250594E+03  0.33314638720E+03 -0.63532064743E+03  0.74275676113E+03  0.00000000000E+00 0.  1.
         22    1    1    2    0    0 -0.80209561272E+03 -0.16157809428E+04 -0.45820836790E+03  0.18611986287E+04  0.00000000000E+00 0.  1.
<mgrwt>
<rscale>  0 0.40243007E+04</rscale>
<asrwt>0</asrwt>
<pdfrwt beam="1">  1        2 0.63989308E+00 0.40243007E+04</pdfrwt>
<pdfrwt beam="2">  1       -2 0.14975686E+00 0.40243007E+04</pdfrwt>
<totfact> 0.59451000E-02</totfact>
</mgrwt>
</event>
<event>
 6    1  0.2047711E-005  0.2218294E+04  0.7818608E-02  0.8510852E-01
          2   -1    0    0  501    0  0.00000000000E+00  0.00000000000E+00  0.21881947726E+04  0.21881947726E+04  0.00000000000E+00 0. -1.
         -2   -1    0    0    0  501 -0.00000000000E+00 -0.00000000000E+00 -0.56220201945E+03  0.56220201945E+03  0.00000000000E+00 0.  1.
         23    2    1    2    0    0 -0.59749477316E+03  0.81140366730E+03  0.24527340318E+03  0.10410806017E+04  0.91180379722E+02 0.  0.
         11    1    3    3    0    0 -0.30603003725E+03  0.45166223328E+03  0.91364119333E+02  0.55317317268E+03  0.00000000000E+00 0. -1.
        -11    1    3    3    0    0 -0.29146473591E+03  0.35974143402E+03  0.15390928384E+03  0.48790742901E+03  0.00000000000E+00 0.  1.
         22    1    1    2    0    0  0.59749477316E+03 -0.81140366730E+03  0.13807193500E+04  0.17093161904E+04  0.00000000000E+00 0. -1.
<mgrwt>
<rscale>  0 0.22182944E+04</rscale>
<asrwt>0</asrwt>
<pdfrwt beam="1">  1        2 0.33664534E+00 0.22182944E+04</pdfrwt>
<pdfrwt beam="2">  1       -2 0.86492620E-01 0.22182944E+04</pdfrwt>
<totfact> 0.55406295E+00</totfact>
</mgrwt>
</event>
<event>
 6    1  0.2047711E-005  0.3472637E+04  0.7818608E-02  0.8120305E-01
          2   -1    0    0  501    0  0.00000000000E+00  0.00000000000E+00  0.26543022681E+04  0.26543022681E+04  0.00000000000E+00 0. -1.
         -2   -1    0    0    0  501 -0.00000000000E+00 -0.00000000000E+00 -0.11358169269E+04  0.11358169269E+04  0.00000000000E+00 0.  1.
         23    2    1    2    0    0 -0.47431390593E+03 -0.71106276810E+03 -0.88826158723E+03  0.12360998687E+04  0.91379957134E+02 0.  0.
         11    1    3    3    0    0 -0.36480658090E+03 -0.59081914019E+03 -0.68024088610E+03  0.97204874414E+03  0.00000000000E+00 0.  1.
        -11    1    3    3    0    0 -0.10950732503E+03 -0.12024362792E+03 -0.20802070113E+03  0.26405112458E+03  0.00000000000E+00 0. -1.
         22    1    1    2    0    0  0.47431390593E+03  0.71106276810E+03  0.24067469284E+04  0.25540193263E+04  0.00000000000E+00 0. -1.
<mgrwt>
<rscale>  0 0.34726367E+04</rscale>
<asrwt>0</asrwt>
<pdfrwt beam="1">  1        2 0.40835419E+00 0.34726367E+04</pdfrwt>
<pdfrwt beam="2">  1       -2 0.17474107E+00 0.34726367E+04</pdfrwt>
<totfact> 0.45920990E-01</totfact>
</mgrwt>
</event>
<event>
 6    1  0.2047711E-005  0.2052651E+04  0.7818608E-02  0.8582393E-01
         -2   -1    0    0    0  501 -0.00000000000E+00  0.00000000000E+00  0.58108577588E+03  0.58108577588E+03  0.00000000000E+00 0.  1.
          2   -1    0    0  501    0  0.00000000000E+00 -0.00000000000E+00 -0.18127162782E+04  0.18127162782E+04  0.00000000000E+00 0. -1.
         23    2    1    2    0    0 -0.49084010095E+02 -0.83243891392E+03 -0.13109515092E+04  0.15561531971E+04  0.87493587054E+02 0.  0.
         13    1    3    3    0    0  0.55908172493E+01 -0.57219342010E+03 -0.87499087590E+03  0.10454882114E+04  0.00000000000E+00 0.  1.
        -13    1    3    3    0    0 -0.54674827344E+02 -0.26024549382E+03 -0.43596063331E+03  0.51066498568E+03  0.00000000000E+00 0. -1.
         22    1    1    2    0    0  0.49084010095E+02  0.83243891392E+03  0.79321006928E+02  0.83764885698E+03  0.00000000000E+00 0. -1.
<mgrwt>
<rscale>  0 0.20526506E+04</rscale>
<asrwt>0</asrwt>
<pdfrwt beam="1">  1        2 0.27887943E+00 0.20526506E+04</pdfrwt>
<pdfrwt beam="2">  1       -2 0.89397812E-01 0.20526506E+04</pdfrwt>
<totfact> 0.84292643E+00</totfact>
</mgrwt>
</event>
<event>
 6    1  0.2047711E-005  0.2430391E+04  0.7818608E-02  0.8428212E-01
          2   -1    0    0  501    0  0.00000000000E+00  0.00000000000E+00  0.35054420032E+04  0.35054420032E+04  0.00000000000E+00 0. -1.
         -2   -1    0    0    0  501 -0.00000000000E+00 -0.00000000000E+00 -0.42125934907E+03  0.42125934907E+03  0.00000000000E+00 0.  1.
         23    2    1    2    0    0  0.16934646724E+03 -0.71162772150E+03  0.31086039715E+04  0.31947938167E+04  0.90535291656E+02 0.  0.
         13    1    3    3    0    0  0.38644554091E+02 -0.27424775148E+03  0.10239459536E+04  0.10607405652E+04  0.00000000000E+00 0. -1.
        -13    1    3    3    0    0  0.13070191315E+03 -0.43737997002E+03  0.20846580180E+04  0.21340532515E+04  0.00000000000E+00 0.  1.
         22    1    1    2    0    0 -0.16934646724E+03  0.71162772150E+03 -0.24421317405E+02  0.73190753563E+03  0.00000000000E+00 0.  1.
<mgrwt>
<rscale>  0 0.24303911E+04</rscale>
<asrwt>0</asrwt>
<pdfrwt beam="1">  1        2 0.53929875E+00 0.24303911E+04</pdfrwt>
<pdfrwt beam="2">  1       -2 0.64809133E-01 0.24303911E+04</pdfrwt>
<totfact> 0.15909452E+00</totfact>
</mgrwt>
</event>
<event>
 6    1  0.2047711E-005  0.2182399E+04  0.7818608E-02  0.8525790E-01
          2   -1    0    0  501    0  0.00000000000E+00  0.00000000000E+00  0.14338503570E+04  0.14338503570E+04  0.00000000000E+00 0. -1.
         -2   -1    0    0    0  501 -0.00000000000E+00 -0.00000000000E+00 -0.83043258188E+03  0.83043258188E+03  0.00000000000E+00 0.  1.
         23    2    1    2    0    0 -0.61292745479E+03 -0.69154584758E+03 -0.29613120350E+03  0.97466900863E+03  0.91489139030E+02 0.  0.
         13    1    3    3    0    0 -0.45777804603E+03 -0.53464540285E+03 -0.18577378559E+03  0.72795490631E+03  0.00000000000E+00 0.  1.
        -13    1    3    3    0    0 -0.15514940876E+03 -0.15690044473E+03 -0.11035741790E+03  0.24671410231E+03  0.00000000000E+00 0. -1.
         22    1    1    2    0    0  0.61292745479E+03  0.69154584758E+03  0.89954897859E+03  0.12896139302E+04  0.00000000000E+00 0. -1.
<mgrwt>
<rscale>  0 0.21823987E+04</rscale>
<asrwt>0</asrwt>
<pdfrwt beam="1">  1        2 0.22059236E+00 0.21823987E+04</pdfrwt>
<pdfrwt beam="2">  1       -2 0.12775886E+00 0.21823987E+04</pdfrwt>
<totfact> 0.57505137E+00</totfact>
</mgrwt>
</event>
<event>
 6    1  0.2047711E-005  0.2851285E+04  0.7818608E-02  0.8287521E-01
         -2   -1    0    0    0  501 -0.00000000000E+00  0.00000000000E+00  0.17023734860E+04  0.17023734860E+04  0.00000000000E+00 0.  1.
          2   -1    0    0  501    0  0.00000000000E+00 -0.00000000000E+00 -0.11938954112E+04  0.11938954112E+04  0.00000000000E+00 0. -1.
         23    2    1    2    0    0  0.13702820269E+04 -0.23883645622E+02 -0.13947998605E+03  0.13803226875E+04  0.87136635253E+02 0.  0.
         11    1    3    3    0    0  0.84534022457E+03 -0.21315604588E+02 -0.43927636027E+02  0.84674912901E+03  0.00000000000E+00 0. -1.
        -11    1    3    3    0    0  0.52494180238E+03 -0.25680410340E+01 -0.95552350027E+02  0.53357355848E+03  0.00000000000E+00 0.  1.
         22    1    1    2    0    0 -0.13702820269E+04  0.23883645622E+02  0.64795806090E+03  0.15159462097E+04  0.00000000000E+00 0.  1.
<mgrwt>
<rscale>  0 0.28512845E+04</rscale>
<asrwt>0</asrwt>
<pdfrwt beam="1">  1        2 0.18367622E+00 0.28512845E+04</pdfrwt>
<pdfrwt beam="2">  1       -2 0.26190361E+00 0.28512845E+04</pdfrwt>
<totfact> 0.89898759E-01</totfact>
</mgrwt>
</event>
<event>
 6    1  0.2047711E-005  0.4224081E+04  0.7818608E-02  0.7960807E-01
          2   -1    0    0  501    0  0.00000000000E+00  0.00000000000E+00  0.20976042783E+04  0.20976042783E+04  0.00000000000E+00 0. -1.
         -2   -1    0    0    0  501 -0.00000000000E+00 -0.00000000000E+00 -0.21265764706E+04  0.21265764706E+04  0.00000000000E+00 0.  1.
         23    2    1    2    0    0 -0.70274379019E+03  0.76111598886E+03  0.18244988913E+04  0.21008575420E+04  0.10798066489E+03 0.  0.
         11    1    3    3    0    0 -0.37368544761E+03  0.38667602839E+03  0.84046860340E+03  0.99777083441E+03  0.00000000000E+00 0. -1.
        -11    1    3    3    0    0 -0.32905834258E+03  0.37443996047E+03  0.98403028794E+03  0.11030867076E+04  0.00000000000E+00 0.  1.
         22    1    1    2    0    0  0.70274379019E+03 -0.76111598886E+03 -0.18534710837E+04  0.21233232070E+04  0.00000000000E+00 0.  1.
<mgrwt>
<rscale>  0 0.42240814E+04</rscale>
<asrwt>0</asrwt>
<pdfrwt beam="1">  1        2 0.32270835E+00 0.42240814E+04</pdfrwt>
<pdfrwt beam="2">  1       -2 0.32716561E+00 0.42240814E+04</pdfrwt>
<totfact> 0.98712046E-02</totfact>
</mgrwt>
</event>
<event>
 6    1  0.2047711E-005  0.2748853E+04  0.7818608E-02  0.8319326E-01
         -2   -1    0    0    0  501 -0.00000000000E+00  0.00000000000E+00  0.97664660582E+03  0.97664660582E+03  0.00000000000E+00 0.  1.
          2   -1    0    0  501    0  0.00000000000E+00 -0.00000000000E+00 -0.19342192235E+04  0.19342192235E+04  0.00000000000E+00 0. -1.
         23    2    1    2    0    0  0.12764095809E+04  0.23515061834E+03 -0.95165585588E+03  0.16129628131E+04  0.10715846663E+03 0.  0.
         13    1    3    3    0    0  0.48929811866E+03  0.12261739537E+03 -0.42102049535E+03  0.65704332587E+03  0.00000000000E+00 0.  1.
        -13    1    3    3    0    0  0.78711146220E+03  0.11253322297E+03 -0.53063536054E+03  0.95591948722E+03  0.00000000000E+00 0. -1.
         22    1    1    2    0    0 -0.12764095809E+04 -0.23515061834E+03 -0.59167617834E+01  0.12979030162E+04  0.00000000000E+00 0.  1.
<mgrwt>
<rscale>  0 0.27488533E+04</rscale>
<asrwt>0</asrwt>
<pdfrwt beam="1">  1        2 0.29757218E+00 0.27488533E+04</pdfrwt>
<pdfrwt beam="2">  1       -2 0.15025333E+00 0.27488533E+04</pdfrwt>
<totfact> 0.18945753E+00</totfact>
</mgrwt>
</event>
<event>
 6    1  0.2047711E-005  0.1264473E+04  0.7818608E-02  0.9058223E-01
          2   -1    0    0  501    0  0.00000000000E+00  0.00000000000E+00  0.16433092791E+04  0.16433092791E+04  0.00000000000E+00 0. -1.
         -2   -1    0    0    0  501 -0.00000000000E+00 -0.00000000000E+00 -0.24324264499E+03  0.24324264499E+03  0.00000000000E+00 0.  1.
         23    2    1    2    0    0  0.40495128660E+03 -0.16294112439E+03  0.27593260782E+02  0.44633717795E+03  0.88995133777E+02 0.  0.
         13    1    3    3    0    0  0.32841871048E+03 -0.10682832558E+03 -0.67283947445E+01  0.34542207780E+03  0.00000000000E+00 0.  1.
        -13    1    3    3    0    0  0.76532576128E+02 -0.56112798809E+02  0.34321655526E+02  0.10091510014E+03  0.00000000000E+00 0. -1.
         22    1    1    2    0    0 -0.40495128660E+03  0.16294112439E+03  0.13724733734E+04  0.14402147462E+04  0.00000000000E+00 0. -1.
<mgrwt>
<rscale>  0 0.12644728E+04</rscale>
<asrwt>0</asrwt>
<pdfrwt beam="1">  1        2 0.25281681E+00 0.12644728E+04</pdfrwt>
<pdfrwt beam="2">  1       -2 0.37421946E-01 0.12644728E+04</pdfrwt>
<totfact> 0.69767244E+01</totfact>
</mgrwt>
</event>
<event>
 6    1  0.2047711E-005  0.4385242E+04  0.7818608E-02  0.7931041E-01
         -2   -1    0    0    0  501 -0.00000000000E+00  0.00000000000E+00  0.13161095500E+04  0.13161095500E+04  0.00000000000E+00 0.  1.
          2   -1    0    0  501    0  0.00000000000E+00 -0.00000000000E+00 -0.36528770834E+04  0.36528770834E+04  0.00000000000E+00 0. -1.
         23    2    1    2    0    0 -0.10485343540E+04 -0.19011682762E+04 -0.15076313525E+04  0.26449100615E+04  0.93444274314E+02 0.  0.
         11    1    3    3    0    0 -0.23376654652E+03 -0.50794438588E+03 -0.38267327435E+03  0.67756411676E+03  0.00000000000E+00 0. -1.
        -11    1    3    3    0    0 -0.81476780748E+03 -0.13932238903E+04 -0.11249580782E+04  0.19673459447E+04  0.00000000000E+00 0.  1.
         22    1    1    2    0    0  0.10485343540E+04  0.19011682762E+04 -0.82913618084E+03  0.23240765719E+04  0.00000000000E+00 0. -1.
<mgrwt>
<rscale>  0 0.43852418E+04</rscale>
<asrwt>0</asrwt>
<pdfrwt beam="1">  1        2 0.56198109E+00 0.43852418E+04</pdfrwt>
<pdfrwt beam="2">  1       -2 0.20247839E+00 0.43852418E+04</pdfrwt>
<totfact> 0.61781688E-02</totfact>
</mgrwt>
</event>
<event>
 6    1  0.2047711E-005  0.5274568E+03  0.7818608E-02  0.1006851E+00
          2   -1    0    0  501    0  0.00000000000E+00  0.00000000000E+00  0.75153980557E+03  0.75153980557E+03  0.00000000000E+00 0.  1.
         -2   -1    0    0    0  501 -0.00000000000E+00 -0.00000000000E+00 -0.92546871406E+02  0.92546871406E+02  0.00000000000E+00 0. -1.
         23    2    1    2    0    0 -0.11628176168E+03 -0.55812002307E+02 -0.13475489630E+02  0.15936030192E+03  0.92615815628E+02 0.  0.
         11    1    3    3    0    0 -0.19010717814E+02 -0.24137705988E+02 -0.43034441865E+02  0.52877210865E+02  0.00000000000E+00 0. -1.
        -11    1    3    3    0    0 -0.97271043869E+02 -0.31674296319E+02  0.29558952236E+02  0.10648309105E+03  0.00000000000E+00 0.  1.
         22    1    1    2    0    0  0.11628176168E+03  0.55812002307E+02  0.67246842380E+03  0.68472637506E+03  0.00000000000E+00 0.  1.
<mgrwt>
<rscale>  0 0.52745676E+03</rscale>
<asrwt>0</asrwt>
<pdfrwt beam="1">  1        2 0.11562150E+00 0.52745676E+03</pdfrwt>
<pdfrwt beam="2">  1       -2 0.14237981E-01 0.52745676E+03</pdfrwt>
<totfact> 0.14350828E+03</totfact>
</mgrwt>
</event>
<event>
 6    1  0.2047711E-005  0.7813181E+03  0.7818608E-02  0.9587459E-01
          2   -1    0    0  501    0  0.00000000000E+00  0.00000000000E+00  0.10455588801E+03  0.10455588801E+03  0.00000000000E+00 0. -1.
         -2   -1    0    0    0  501 -0.00000000000E+00 -0.00000000000E+00 -0.14596451543E+04  0.14596451543E+04  0.00000000000E+00 0.  1.
         23    2    1    2    0    0 -0.19342856099E+02 -0.29777826004E+03 -0.11747101882E+04  0.12155140049E+04  0.92109889202E+02 0.  0.
         13    1    3    3    0    0  0.14699671435E+02 -0.15860387144E+03 -0.46613737756E+03  0.49260057159E+03  0.00000000000E+00 0. -1.
        -13    1    3    3    0    0 -0.34042527535E+02 -0.13917438861E+03 -0.70857281060E+03  0.72291343330E+03  0.00000000000E+00 0.  1.
         22    1    1    2    0    0  0.19342856099E+02  0.29777826004E+03 -0.18037907815E+03  0.34868703743E+03  0.00000000000E+00 0. -1.
<mgrwt>
<rscale>  0 0.78131810E+03</rscale>
<asrwt>0</asrwt>
<pdfrwt beam="1">  1        2 0.16085523E-01 0.78131810E+03</pdfrwt>
<pdfrwt beam="2">  1       -2 0.22456077E+00 0.78131810E+03</pdfrwt>
<totfact> 0.34744100E+01</totfact>
</mgrwt>
</event>
<event>
 6    1  0.2047711E-005  0.1165496E+04  0.7818608E-02  0.9143605E-01
          2   -1    0    0  501    0  0.00000000000E+00  0.00000000000E+00  0.91648804775E+03  0.91648804775E+03  0.00000000000E+00 0. -1.
         -2   -1    0    0    0  501 -0.00000000000E+00 -0.00000000000E+00 -0.37053987814E+03  0.37053987814E+03  0.00000000000E+00 0.  1.
         23    2    1    2    0    0 -0.20780562705E+03 -0.43509187964E+03 -0.80235497962E+02  0.49671526125E+03  0.88318702826E+02 0.  0.
         13    1    3    3    0    0 -0.14122627103E+03 -0.30059725387E+03 -0.13282381208E+02  0.33238530400E+03  0.00000000000E+00 0. -1.
        -13    1    3    3    0    0 -0.66579356013E+02 -0.13449462576E+03 -0.66953116755E+02  0.16432995725E+03  0.00000000000E+00 0.  1.
         22    1    1    2    0    0  0.20780562705E+03  0.43509187964E+03  0.62618366757E+03  0.79031266464E+03  0.00000000000E+00 0. -1.
<mgrwt>
<rscale>  0 0.11654962E+04</rscale>
<asrwt>0</asrwt>
<pdfrwt beam="1">  1        2 0.14099816E+00 0.11654962E+04</pdfrwt>
<pdfrwt beam="2">  1       -2 0.57006135E-01 0.11654962E+04</pdfrwt>
<totfact> 0.81544046E+01</totfact>
</mgrwt>
</event>
<event>
 6    1  0.2047711E-005  0.2668969E+04  0.7818608E-02  0.8345144E-01
          2   -1    0    0  501    0  0.00000000000E+00  0.00000000000E+00  0.19227171860E+04  0.19227171860E+04  0.00000000000E+00 0. -1.
         -2   -1    0    0    0  501 -0.00000000000E+00 -0.00000000000E+00 -0.92621441310E+03  0.92621441310E+03  0.00000000000E+00 0.  1.
         23    2    1    2    0    0 -0.91266356479E+03 -0.93002797705E+03  0.79847979077E+03  0.15309331461E+04  0.90991763712E+02 0.  0.
         13    1    3    3    0    0 -0.71967096638E+03 -0.78008683391E+03  0.63287204185E+03  0.12357138786E+04  0.00000000000E+00 0. -1.
        -13    1    3    3    0    0 -0.19299259841E+03 -0.14994114314E+03  0.16560774893E+03  0.29521926758E+03  0.00000000000E+00 0.  1.
         22    1    1    2    0    0  0.91266356479E+03  0.93002797705E+03  0.19802298213E+03  0.13179984530E+04  0.00000000000E+00 0.  1.
<mgrwt>
<rscale>  0 0.26689686E+04</rscale>
<asrwt>0</asrwt>
<pdfrwt beam="1">  1        2 0.29580264E+00 0.26689686E+04</pdfrwt>
<pdfrwt beam="2">  1       -2 0.14249453E+00 0.26689686E+04</pdfrwt>
<totfact> 0.22253746E+00</totfact>
</mgrwt>
</event>
<event>
 6    1  0.2047711E-005  0.1180258E+04  0.7818608E-02  0.9130314E-01
          2   -1    0    0  501    0  0.00000000000E+00  0.00000000000E+00  0.12118124264E+03  0.12118124264E+03  0.00000000000E+00 0.  1.
         -2   -1    0    0    0  501 -0.00000000000E+00 -0.00000000000E+00 -0.28738140174E+04  0.28738140174E+04  0.00000000000E+00 0. -1.
         23    2    1    2    0    0 -0.35475946785E+03 -0.35686498537E+03 -0.21500651090E+04  0.22099508729E+04  0.88859384782E+02 0.  0.
         13    1    3    3    0    0 -0.15565044764E+03 -0.12464715380E+03 -0.10142160798E+04  0.10336335092E+04  0.00000000000E+00 0. -1.
        -13    1    3    3    0    0 -0.19910902021E+03 -0.23221783157E+03 -0.11358490292E+04  0.11763173638E+04  0.00000000000E+00 0.  1.
         22    1    1    2    0    0  0.35475946785E+03  0.35686498537E+03 -0.60256766576E+03  0.78504438704E+03  0.00000000000E+00 0.  1.
<mgrwt>
<rscale>  0 0.11802582E+04</rscale>
<asrwt>0</asrwt>
<pdfrwt beam="1">  1        2 0.18643268E-01 0.11802582E+04</pdfrwt>
<pdfrwt beam="2">  1       -2 0.44212523E+00 0.11802582E+04</pdfrwt>
<totfact> 0.12211092E+00</totfact>
</mgrwt>
</event>
<event>
 6    1  0.2047711E-005  0.2050613E+04  0.7818608E-02  0.8583316E-01
          3   -1    0    0  501    0  0.00000000000E+00  0.00000000000E+00  0.88284938188E+03  0.88284938188E+03  0.00000000000E+00 0. -1.
         -3   -1    0    0    0  501 -0.00000000000E+00 -0.00000000000E+00 -0.11907508092E+04  0.11907508092E+04  0.00000000000E+00 0.  1.
         23    2    1    2    0    0  0.16712566980E+02 -0.58217261128E+03  0.69652434050E+03  0.91253370621E+03  0.91473213723E+02 0.  0.
         13    1    3    3    0    0  0.44409998270E+02 -0.50066131630E+03  0.57677885957E+03  0.76505415131E+03  0.00000000000E+00 0.  1.
        -13    1    3    3    0    0 -0.27697431290E+02 -0.81511294985E+02  0.11974548093E+03  0.14747955490E+03  0.00000000000E+00 0. -1.
         22    1    1    2    0    0 -0.16712566980E+02  0.58217261128E+03 -0.10044257678E+04  0.11610664848E+04  0.00000000000E+00 0.  1.
<mgrwt>
<rscale>  0 0.20506132E+04</rscale>
<asrwt>0</asrwt>
<pdfrwt beam="1">  1        3 0.13582298E+00 0.20506132E+04</pdfrwt>
<pdfrwt beam="2">  1       -3 0.18319243E+00 0.20506132E+04</pdfrwt>
<totfact> 0.18964007E-01</totfact>
</mgrwt>
</event>
<event>
 6    1  0.2047711E-005  0.2018201E+04  0.7818608E-02  0.8598158E-01
          2   -1    0    0  501    0  0.00000000000E+00  0.00000000000E+00  0.61625294066E+03  0.61625294066E+03  0.00000000000E+00 0. -1.
         -2   -1    0    0    0  501 -0.00000000000E+00 -0.00000000000E+00 -0.16523794880E+04  0.16523794880E+04  0.00000000000E+00 0.  1.
         23    2    1    2    0    0 -0.37432896746E+03  0.48554607619E+03 -0.14171501802E+04  0.15467902183E+04  0.91477747226E+02 0.  0.
         11    1    3    3    0    0 -0.34064032265E+03  0.45893148109E+03 -0.12543177859E+04  0.13783929200E+04  0.00000000000E+00 0.  1.
        -11    1    3    3    0    0 -0.33688644804E+02  0.26614595102E+02 -0.16283239426E+03  0.16839729832E+03  0.00000000000E+00 0. -1.
         22    1    1    2    0    0  0.37432896746E+03 -0.48554607619E+03  0.38102363279E+03  0.72184221041E+03  0.00000000000E+00 0. -1.
<mgrwt>
<rscale>  0 0.20182009E+04</rscale>
<asrwt>0</asrwt>
<pdfrwt beam="1">  1        2 0.94808147E-01 0.20182009E+04</pdfrwt>
<pdfrwt beam="2">  1       -2 0.25421222E+00 0.20182009E+04</pdfrwt>
<totfact> 0.26961273E+00</totfact>
</mgrwt>
</event>
<event>
 6    1  0.2047711E-005  0.3086295E+04  0.7818608E-02  0.8219509E-01
         -2   -1    0    0    0  501 -0.00000000000E+00  0.00000000000E+00  0.83231659085E+03  0.83231659085E+03  0.00000000000E+00 0.  1.
          2   -1    0    0  501    0  0.00000000000E+00 -0.00000000000E+00 -0.28610564568E+04  0.28610564568E+04  0.00000000000E+00 0. -1.
         23    2    1    2    0    0  0.12153352069E+04 -0.56027984084E+03 -0.99038185297E+02  0.13450328377E+04  0.91387127734E+02 0.  0.
         11    1    3    3    0    0  0.52724254539E+03 -0.28102576297E+03 -0.14508109520E+02  0.59763757107E+03  0.00000000000E+00 0. -1.
        -11    1    3    3    0    0  0.68809266156E+03 -0.27925407787E+03 -0.84530075777E+02  0.74739526665E+03  0.00000000000E+00 0.  1.
         22    1    1    2    0    0 -0.12153352069E+04  0.56027984084E+03 -0.19297016807E+04  0.23483402100E+04  0.00000000000E+00 0. -1.
<mgrwt>
<rscale>  0 0.30862954E+04</rscale>
<asrwt>0</asrwt>
<pdfrwt beam="1">  1        2 0.44016253E+00 0.30862954E+04</pdfrwt>
<pdfrwt beam="2">  1       -2 0.12804871E+00 0.30862954E+04</pdfrwt>
<totfact> 0.81374294E-01</totfact>
</mgrwt>
</event>
<event>
 6    1  0.2047711E-005  0.2696568E+04  0.7818608E-02  0.8336119E-01
         -2   -1    0    0    0  501 -0.00000000000E+00  0.00000000000E+00  0.12156388600E+04  0.12156388600E+04  0.00000000000E+00 0.  1.
          2   -1    0    0  501    0  0.00000000000E+00 -0.00000000000E+00 -0.14954027049E+04  0.14954027049E+04  0.00000000000E+00 0. -1.
         23    2    1    2    0    0 -0.11271777248E+04  0.37963228581E+03 -0.77514433807E+03  0.14226114626E+04  0.91237783323E+02 0.  0.
         13    1    3    3    0    0 -0.26517810520E+03  0.52880156474E+02 -0.19545377618E+03  0.33364339803E+03  0.00000000000E+00 0.  1.
        -13    1    3    3    0    0 -0.86199961956E+03  0.32675212934E+03 -0.57969056189E+03  0.10889680646E+04  0.00000000000E+00 0. -1.
         22    1    1    2    0    0  0.11271777248E+04 -0.37963228581E+03  0.49538049315E+03  0.12884301023E+04  0.00000000000E+00 0.  1.
<mgrwt>
<rscale>  0 0.26965679E+04</rscale>
<asrwt>0</asrwt>
<pdfrwt beam="1">  1        2 0.23006196E+00 0.26965679E+04</pdfrwt>
<pdfrwt beam="2">  1       -2 0.18702136E+00 0.26965679E+04</pdfrwt>
<totfact> 0.18194423E+00</totfact>
</mgrwt>
</event>
<event>
 6    1  0.2047711E-005  0.2725779E+04  0.7818608E-02  0.8326689E-01
         -2   -1    0    0    0  501 -0.00000000000E+00  0.00000000000E+00  0.12943031022E+04  0.12943031022E+04  0.00000000000E+00 0.  1.
          2   -1    0    0  501    0  0.00000000000E+00 -0.00000000000E+00 -0.14351102462E+04  0.14351102462E+04  0.00000000000E+00 0. -1.
         23    2    1    2    0    0  0.66273983328E+03 -0.36798689718E+03 -0.12027840685E+04  0.14246400227E+04  0.90946333154E+02 0.  0.
         13    1    3    3    0    0  0.21128202434E+03 -0.15791024232E+03 -0.46351772015E+03  0.53331455571E+03  0.00000000000E+00 0.  1.
        -13    1    3    3    0    0  0.45145780894E+03 -0.21007665486E+03 -0.73926634839E+03  0.89132546694E+03  0.00000000000E+00 0. -1.
         22    1    1    2    0    0 -0.66273983328E+03  0.36798689718E+03  0.10619769245E+04  0.13047733257E+04  0.00000000000E+00 0.  1.
<mgrwt>
<rscale>  0 0.27257789E+04</rscale>
<asrwt>0</asrwt>
<pdfrwt beam="1">  1        2 0.22078619E+00 0.27257789E+04</pdfrwt>
<pdfrwt beam="2">  1       -2 0.19912356E+00 0.27257789E+04</pdfrwt>
<totfact> 0.16304690E+00</totfact>
</mgrwt>
</event>
<event>
 6    1  0.2047711E-005  0.4539752E+04  0.7818608E-02  0.7903714E-01
          2   -1    0    0  501    0  0.00000000000E+00  0.00000000000E+00  0.28535124260E+04  0.28535124260E+04  0.00000000000E+00 0. -1.
         -2   -1    0    0    0  501 -0.00000000000E+00 -0.00000000000E+00 -0.18056125977E+04  0.18056125977E+04  0.00000000000E+00 0.  1.
         23    2    1    2    0    0  0.71129447794E+03  0.15460859579E+04 -0.10158611789E+04  0.19841612635E+04  0.92738130838E+02 0.  0.
         13    1    3    3    0    0  0.51655061714E+03  0.10253034140E+04 -0.66669060573E+03  0.13276098804E+04  0.00000000000E+00 0. -1.
        -13    1    3    3    0    0  0.19474386080E+03  0.52078254397E+03 -0.34917057321E+03  0.65655138308E+03  0.00000000000E+00 0.  1.
         22    1    1    2    0    0 -0.71129447794E+03 -0.15460859579E+04  0.20637610073E+04  0.26749637603E+04  0.00000000000E+00 0. -1.
<mgrwt>
<rscale>  0 0.45397524E+04</rscale>
<asrwt>0</asrwt>
<pdfrwt beam="1">  1        2 0.43900191E+00 0.45397524E+04</pdfrwt>
<pdfrwt beam="2">  1       -2 0.27778655E+00 0.45397524E+04</pdfrwt>
<totfact> 0.70373917E-02</totfact>
</mgrwt>
</event>
<event>
 6    1  0.2047711E-005  0.1070341E+04  0.7818608E-02  0.9234592E-01
         -2   -1    0    0    0  501 -0.00000000000E+00  0.00000000000E+00  0.10185751667E+04  0.10185751667E+04  0.00000000000E+00 0.  1.
          2   -1    0    0  501    0  0.00000000000E+00 -0.00000000000E+00 -0.28118441492E+03  0.28118441492E+03  0.00000000000E+00 0. -1.
         23    2    1    2    0    0 -0.86399097518E+02 -0.51091156440E+03  0.51488031891E+03  0.73583908772E+03  0.88667860763E+02 0.  0.
         13    1    3    3    0    0 -0.21233851182E+02 -0.29221811741E+03  0.24116008333E+03  0.37947396534E+03  0.00000000000E+00 0.  1.
        -13    1    3    3    0    0 -0.65165246336E+02 -0.21869344699E+03  0.27372023558E+03  0.35636512238E+03  0.00000000000E+00 0. -1.
         22    1    1    2    0    0  0.86399097518E+02  0.51091156440E+03  0.22251043286E+03  0.56392049389E+03  0.00000000000E+00 0.  1.
<mgrwt>
<rscale>  0 0.10703410E+04</rscale>
<asrwt>0</asrwt>
<pdfrwt beam="1">  1        2 0.43259141E-01 0.10703410E+04</pdfrwt>
<pdfrwt beam="2">  1       -2 0.15670387E+00 0.10703410E+04</pdfrwt>
<totfact> 0.31252991E+01</totfact>
</mgrwt>
</event>
<event>
 6    1  0.2047711E-005  0.1212721E+04  0.7818608E-02  0.9101794E-01
          2   -1    0    0  501    0  0.00000000000E+00  0.00000000000E+00  0.13641286715E+04  0.13641286715E+04  0.00000000000E+00 0. -1.
         -2   -1    0    0    0  501 -0.00000000000E+00 -0.00000000000E+00 -0.26952968771E+03  0.26952968771E+03  0.00000000000E+00 0.  1.
         23    2    1    2    0    0 -0.16846444816E+03  0.22484501994E+03 -0.16805028758E+03  0.34012879412E+03  0.92255862407E+02 0.  0.
         13    1    3    3    0    0 -0.84640229227E+02  0.70488707552E+02 -0.23449365197E+02  0.11261660190E+03  0.00000000000E+00 0. -1.
        -13    1    3    3    0    0 -0.83824218934E+02  0.15435631238E+03 -0.14460092238E+03  0.22751219222E+03  0.00000000000E+00 0.  1.
         22    1    1    2    0    0  0.16846444816E+03 -0.22484501994E+03  0.12626492714E+04  0.12935295651E+04  0.00000000000E+00 0. -1.
<mgrwt>
<rscale>  0 0.12127212E+04</rscale>
<asrwt>0</asrwt>
<pdfrwt beam="1">  1        2 0.20986595E+00 0.12127212E+04</pdfrwt>
<pdfrwt beam="2">  1       -2 0.41466106E-01 0.12127212E+04</pdfrwt>
<totfact> 0.82386970E+01</totfact>
</mgrwt>
</event>
<event>
 6    1  0.2047711E-005  0.3268807E+04  0.7818608E-02  0.8170878E-01
         -2   -1    0    0    0  501 -0.00000000000E+00  0.00000000000E+00  0.16392549769E+04  0.16392549769E+04  0.00000000000E+00 0.  1.
          2   -1    0    0  501    0  0.00000000000E+00 -0.00000000000E+00 -0.16295661706E+04  0.16295661706E+04  0.00000000000E+00 0. -1.
         23    2    1    2    0    0  0.65101134643E+03  0.13127201233E+04 -0.71646933641E+03  0.16334754520E+04  0.88678334379E+02 0.  0.
         11    1    3    3    0    0  0.20263389051E+03  0.34718838924E+03 -0.16482797125E+03  0.43447500654E+03  0.00000000000E+00 0.  1.
        -11    1    3    3    0    0  0.44837745591E+03  0.96553173408E+03 -0.55164136517E+03  0.11990004455E+04  0.00000000000E+00 0. -1.
         22    1    1    2    0    0 -0.65101134643E+03 -0.13127201233E+04  0.72615814277E+03  0.16353456955E+04  0.00000000000E+00 0.  1.
<mgrwt>
<rscale>  0 0.32688068E+04</rscale>
<asrwt>0</asrwt>
<pdfrwt beam="1">  1        2 0.25070249E+00 0.32688068E+04</pdfrwt>
<pdfrwt beam="2">  1       -2 0.25219307E+00 0.32688068E+04</pdfrwt>
<totfact> 0.55999474E-01</totfact>
</mgrwt>
</event>
<event>
 6    1  0.2047711E-005  0.1147154E+04  0.7818608E-02  0.9160413E-01
         -2   -1    0    0    0  501 -0.00000000000E+00  0.00000000000E+00  0.26201746940E+03  0.26201746940E+03  0.00000000000E+00 0.  1.
          2   -1    0    0  501    0  0.00000000000E+00 -0.00000000000E+00 -0.12556050849E+04  0.12556050849E+04  0.00000000000E+00 0. -1.
         23    2    1    2    0    0  0.36725287932E+02 -0.31232332159E+03 -0.11287763467E+04  0.11753206452E+04  0.91367249289E+02 0.  0.
         11    1    3    3    0    0  0.65922484708E+02 -0.21162601822E+03 -0.72269523028E+03  0.75592310552E+03  0.00000000000E+00 0. -1.
        -11    1    3    3    0    0 -0.29197196776E+02 -0.10069730337E+03 -0.40608111637E+03  0.41939753967E+03  0.00000000000E+00 0.  1.
         22    1    1    2    0    0 -0.36725287932E+02  0.31232332159E+03  0.13518873111E+03  0.34230190915E+03  0.00000000000E+00 0.  1.
<mgrwt>
<rscale>  0 0.11471538E+04</rscale>
<asrwt>0</asrwt>
<pdfrwt beam="1">  1        2 0.19317002E+00 0.11471538E+04</pdfrwt>
<pdfrwt beam="2">  1       -2 0.40310379E-01 0.11471538E+04</pdfrwt>
<totfact> 0.10116359E+02</totfact>
</mgrwt>
</event>
<event>
 6    1  0.2047711E-005  0.2709931E+04  0.7818608E-02  0.8331790E-01
         -1   -1    0    0    0  501 -0.00000000000E+00  0.00000000000E+00  0.33681777961E+04  0.33681777961E+04  0.00000000000E+00 0.  1.
          1   -1    0    0  501    0  0.00000000000E+00 -0.00000000000E+00 -0.54508161215E+03  0.54508161215E+03  0.00000000000E+00 0. -1.
         23    2    1    2    0    0 -0.22864965401E+03 -0.13087403936E+04  0.10417408700E+04  0.16910288089E+04  0.96292836324E+02 0.  0.
         11    1    3    3    0    0 -0.10018992263E+03 -0.60533364385E+03  0.42074955058E+03  0.74397380685E+03  0.00000000000E+00 0.  1.
        -11    1    3    3    0    0 -0.12845973139E+03 -0.70340674972E+03  0.62099131946E+03  0.94705500209E+03  0.00000000000E+00 0. -1.
         22    1    1    2    0    0  0.22864965401E+03  0.13087403936E+04  0.17813553139E+04  0.22222305993E+04  0.00000000000E+00 0.  1.
<mgrwt>
<rscale>  0 0.27099312E+04</rscale>
<asrwt>0</asrwt>
<pdfrwt beam="1">  1        1 0.83858712E-01 0.27099312E+04</pdfrwt>
<pdfrwt beam="2">  1       -1 0.51818119E+00 0.27099312E+04</pdfrwt>
<totfact> 0.39017002E-02</totfact>
</mgrwt>
</event>
<event>
 6    1  0.2047711E-005  0.4630233E+04  0.7818608E-02  0.7888225E-01
         -2   -1    0    0    0  501 -0.00000000000E+00  0.00000000000E+00  0.14425214571E+04  0.14425214571E+04  0.00000000000E+00 0.  1.
          2   -1    0    0  501    0  0.00000000000E+00 -0.00000000000E+00 -0.37155532867E+04  0.37155532867E+04  0.00000000000E+00 0. -1.
         23    2    1    2    0    0  0.22214644384E+04 -0.54083098381E+03 -0.15356358597E+04  0.27557518636E+04  0.92673816159E+02 0.  0.
         13    1    3    3    0    0  0.15363289223E+04 -0.41669757251E+03 -0.10563194399E+04  0.19104329833E+04  0.00000000000E+00 0. -1.
        -13    1    3    3    0    0  0.68513551601E+03 -0.12413341131E+03 -0.47931641979E+03  0.84531888030E+03  0.00000000000E+00 0.  1.
         22    1    1    2    0    0 -0.22214644384E+04  0.54083098381E+03 -0.73739596986E+03  0.24023228801E+04  0.00000000000E+00 0.  1.
<mgrwt>
<rscale>  0 0.46302334E+04</rscale>
<asrwt>0</asrwt>
<pdfrwt beam="1">  1        2 0.57162357E+00 0.46302334E+04</pdfrwt>
<pdfrwt beam="2">  1       -2 0.22192638E+00 0.46302334E+04</pdfrwt>
<totfact> 0.40840534E-02</totfact>
</mgrwt>
</event>
<event>
 6    1  0.2047711E-005  0.4121567E+04  0.7818608E-02  0.7980462E-01
         -2   -1    0    0    0  501 -0.00000000000E+00  0.00000000000E+00  0.22296641836E+04  0.22296641836E+04  0.00000000000E+00 0.  1.
          2   -1    0    0  501    0  0.00000000000E+00 -0.00000000000E+00 -0.19046939682E+04  0.19046939682E+04  0.00000000000E+00 0. -1.
         23    2    1    2    0    0 -0.12052104665E+04 -0.98736030246E+03  0.15141317521E+04  0.21743791224E+04  0.88977356842E+02 0.  0.
         11    1    3    3    0    0 -0.65295967487E+03 -0.54016615052E+03  0.76184343370E+03  0.11395355302E+04  0.00000000000E+00 0. -1.
        -11    1    3    3    0    0 -0.55225079158E+03 -0.44719415194E+03  0.75228831836E+03  0.10348435922E+04  0.00000000000E+00 0.  1.
         22    1    1    2    0    0  0.12052104665E+04  0.98736030246E+03 -0.11891615367E+04  0.19599790294E+04  0.00000000000E+00 0. -1.
<mgrwt>
<rscale>  0 0.41215667E+04</rscale>
<asrwt>0</asrwt>
<pdfrwt beam="1">  1        2 0.29302984E+00 0.41215667E+04</pdfrwt>
<pdfrwt beam="2">  1       -2 0.34302526E+00 0.41215667E+04</pdfrwt>
<totfact> 0.10147660E-01</totfact>
</mgrwt>
</event>
<event>
 6    1  0.2047711E-005  0.3968875E+04  0.7818608E-02  0.8010855E-01
          2   -1    0    0  501    0  0.00000000000E+00  0.00000000000E+00  0.31584830337E+04  0.31584830337E+04  0.00000000000E+00 0. -1.
         -2   -1    0    0    0  501 -0.00000000000E+00 -0.00000000000E+00 -0.12467984761E+04  0.12467984761E+04  0.00000000000E+00 0.  1.
         23    2    1    2    0    0 -0.15405371967E+04  0.11623981272E+04  0.44836917522E+03  0.19833574463E+04  0.90816198026E+02 0.  0.
         13    1    3    3    0    0 -0.12335431237E+04  0.95962148331E+03  0.33479573730E+03  0.15983085481E+04  0.00000000000E+00 0.  1.
        -13    1    3    3    0    0 -0.30699407303E+03  0.20277664389E+03  0.11357343792E+03  0.38504889817E+03  0.00000000000E+00 0. -1.
         22    1    1    2    0    0  0.15405371967E+04 -0.11623981272E+04  0.14633153824E+04  0.24219240634E+04  0.00000000000E+00 0. -1.
<mgrwt>
<rscale>  0 0.39688748E+04</rscale>
<asrwt>0</asrwt>
<pdfrwt beam="1">  1        2 0.48592046E+00 0.39688748E+04</pdfrwt>
<pdfrwt beam="2">  1       -2 0.19181515E+00 0.39688748E+04</pdfrwt>
<totfact> 0.16433510E-01</totfact>
</mgrwt>
</event>
<event>
 6    1  0.2047711E-005  0.3358994E+04  0.7818608E-02  0.8148045E-01
          2   -1    0    0  501    0  0.00000000000E+00  0.00000000000E+00  0.13169354568E+04  0.13169354568E+04  0.00000000000E+00 0. -1.
         -2   -1    0    0    0  501 -0.00000000000E+00 -0.00000000000E+00 -0.21418738360E+04  0.21418738360E+04  0.00000000000E+00 0.  1.
         23    2    1    2    0    0 -0.84125573566E+03 -0.11593452614E+04  0.48768881905E+03  0.15159292632E+04  0.91697866343E+02 0.  0.
         13    1    3    3    0    0 -0.18499230422E+03 -0.30754732994E+03  0.95885096004E+02  0.37148548344E+03  0.00000000000E+00 0. -1.
        -13    1    3    3    0    0 -0.65626343144E+03 -0.85179793151E+03  0.39180372304E+03  0.11444437797E+04  0.00000000000E+00 0.  1.
         22    1    1    2    0    0  0.84125573566E+03  0.11593452614E+04 -0.13126271983E+04  0.19428800297E+04  0.00000000000E+00 0.  1.
<mgrwt>
<rscale>  0 0.33589937E+04</rscale>
<asrwt>0</asrwt>
<pdfrwt beam="1">  1        2 0.20260546E+00 0.33589937E+04</pdfrwt>
<pdfrwt beam="2">  1       -2 0.32951905E+00 0.33589937E+04</pdfrwt>
<totfact> 0.28068336E-01</totfact>
</mgrwt>
</event>
<event>
 6    1  0.2047711E-005  0.1644141E+04  0.7818608E-02  0.8793880E-01
         -1   -1    0    0    0  501 -0.00000000000E+00  0.00000000000E+00  0.72199809014E+03  0.72199809014E+03  0.00000000000E+00 0.  1.
          1   -1    0    0  501    0  0.00000000000E+00 -0.00000000000E+00 -0.93601310926E+03  0.93601310926E+03  0.00000000000E+00 0. -1.
         23    2    1    2    0    0 -0.91267357407E+02 -0.80485021803E+03  0.18234092524E+02  0.81536462233E+03  0.91506181406E+02 0.  0.
         13    1    3    3    0    0 -0.76958254265E+02 -0.52646755071E+03  0.51904041750E+02  0.53458833171E+03  0.00000000000E+00 0. -1.
        -13    1    3    3    0    0 -0.14309103142E+02 -0.27838266731E+03 -0.33669949226E+02  0.28077629062E+03  0.00000000000E+00 0.  1.
         22    1    1    2    0    0  0.91267357407E+02  0.80485021803E+03 -0.23224911165E+03  0.84264657707E+03  0.00000000000E+00 0. -1.
<mgrwt>
<rscale>  0 0.16441407E+04</rscale>
<asrwt>0</asrwt>
<pdfrwt beam="1">  1        1 0.14400202E+00 0.16441407E+04</pdfrwt>
<pdfrwt beam="2">  1       -1 0.11107663E+00 0.16441407E+04</pdfrwt>
<totfact> 0.12130158E+01</totfact>
</mgrwt>
</event>
<event>
 6    1  0.2047711E-005  0.1419091E+04  0.7818608E-02  0.8940114E-01
         -2   -1    0    0    0  501 -0.00000000000E+00  0.00000000000E+00  0.68137395837E+03  0.68137395837E+03  0.00000000000E+00 0.  1.
          2   -1    0    0  501    0  0.00000000000E+00 -0.00000000000E+00 -0.73888155230E+03  0.73888155230E+03  0.00000000000E+00 0. -1.
         23    2    1    2    0    0 -0.13978383929E+03 -0.17132647901E+03 -0.70038894566E+03  0.74041088390E+03  0.93655312975E+02 0.  0.
         13    1    3    3    0    0 -0.76566346726E+01 -0.72789303038E+02 -0.17240273400E+03  0.18729551351E+03  0.00000000000E+00 0.  1.
        -13    1    3    3    0    0 -0.13212720462E+03 -0.98537175976E+02 -0.52798621166E+03  0.55311537038E+03  0.00000000000E+00 0. -1.
         22    1    1    2    0    0  0.13978383929E+03  0.17132647901E+03  0.64288135173E+03  0.67984462677E+03  0.00000000000E+00 0.  1.
<mgrwt>
<rscale>  0 0.14190908E+04</rscale>
<asrwt>0</asrwt>
<pdfrwt beam="1">  1        2 0.11367409E+00 0.14190908E+04</pdfrwt>
<pdfrwt beam="2">  1       -2 0.10482676E+00 0.14190908E+04</pdfrwt>
<totfact> 0.27429473E+01</totfact>
</mgrwt>
</event>
<event>
 6    1  0.2047711E-005  0.6334753E+03  0.7818608E-02  0.9838290E-01
         -2   -1    0    0    0  501 -0.00000000000E+00  0.00000000000E+00  0.85436527694E+02  0.85436527694E+02  0.00000000000E+00 0.  1.
          2   -1    0    0  501    0  0.00000000000E+00 -0.00000000000E+00 -0.11742372093E+04  0.11742372093E+04  0.00000000000E+00 0. -1.
         23    2    1    2    0    0 -0.13541450719E+03 -0.13938757186E+02 -0.11095797134E+04  0.11219669983E+04  0.95453795677E+02 0.  0.
         13    1    3    3    0    0 -0.35261599568E+02  0.32038645267E+02 -0.51987590329E+03  0.52205441289E+03  0.00000000000E+00 0.  1.
        -13    1    3    3    0    0 -0.10015290762E+03 -0.45977402453E+02 -0.58970381016E+03  0.59991258543E+03  0.00000000000E+00 0. -1.
         22    1    1    2    0    0  0.13541450719E+03  0.13938757186E+02  0.20779031849E+02  0.13770673867E+03  0.00000000000E+00 0.  1.
<mgrwt>
<rscale>  0 0.63347533E+03</rscale>
<asrwt>0</asrwt>
<pdfrwt beam="1">  1        2 0.18065188E+00 0.63347533E+03</pdfrwt>
<pdfrwt beam="2">  1       -2 0.13144081E-01 0.63347533E+03</pdfrwt>
<totfact> 0.86786694E+02</totfact>
</mgrwt>
</event>
<event>
 6    1  0.2047711E-005  0.1897308E+04  0.7818608E-02  0.8656198E-01
         -2   -1    0    0    0  501 -0.00000000000E+00  0.00000000000E+00  0.36995494980E+03  0.36995494980E+03  0.00000000000E+00 0. -1.
          2   -1    0    0  501    0  0.00000000000E+00 -0.00000000000E+00 -0.24325782447E+04  0.24325782447E+04  0.00000000000E+00 0.  1.
         23    2    1    2    0    0  0.16251314016E+03 -0.85967607417E+03 -0.15674591794E+04  0.17972267862E+04  0.87420643907E+02 0.  0.
         13    1    3    3    0    0  0.13666730282E+03 -0.49096786718E+03 -0.90407018969E+03  0.10378199777E+04  0.00000000000E+00 0.  1.
        -13    1    3    3    0    0  0.25845837337E+02 -0.36870820698E+03 -0.66338898966E+03  0.75940680851E+03  0.00000000000E+00 0. -1.
         22    1    1    2    0    0 -0.16251314016E+03  0.85967607417E+03 -0.49516411557E+03  0.10053064083E+04  0.00000000000E+00 0. -1.
<mgrwt>
<rscale>  0 0.18973079E+04</rscale>
<asrwt>0</asrwt>
<pdfrwt beam="1">  1        2 0.37424280E+00 0.18973079E+04</pdfrwt>
<pdfrwt beam="2">  1       -2 0.56916147E-01 0.18973079E+04</pdfrwt>
<totfact> 0.10330818E+01</totfact>
</mgrwt>
</event>
<event>
 6    1  0.2047711E-005  0.7094873E+04  0.7818608E-02  0.7567730E-01
          2   -1    0    0  501    0  0.00000000000E+00  0.00000000000E+00  0.34707528696E+04  0.34707528696E+04  0.00000000000E+00 0. -1.
         -2   -1    0    0    0  501 -0.00000000000E+00 -0.00000000000E+00 -0.36258139248E+04  0.36258139248E+04  0.00000000000E+00 0.  1.
         23    2    1    2    0    0  0.26550375855E+04  0.78534586093E+03  0.21397772499E+04  0.35004194742E+04  0.91088498215E+02 0.  0.
         11    1    3    3    0    0  0.85539653649E+03  0.29400217564E+03  0.71992495600E+03  0.11560417191E+04  0.00000000000E+00 0. -1.
        -11    1    3    3    0    0  0.17996410490E+04  0.49134368528E+03  0.14198522939E+04  0.23443777552E+04  0.00000000000E+00 0.  1.
         22    1    1    2    0    0 -0.26550375855E+04 -0.78534586093E+03 -0.22948383051E+04  0.35961473201E+04  0.00000000000E+00 0.  1.
<mgrwt>
<rscale>  0 0.70948725E+04</rscale>
<asrwt>0</asrwt>
<pdfrwt beam="1">  1        2 0.53396198E+00 0.70948725E+04</pdfrwt>
<pdfrwt beam="2">  1       -2 0.55781753E+00 0.70948725E+04</pdfrwt>
<totfact> 0.42133415E-04</totfact>
</mgrwt>
</event>
<event>
 6    1  0.2047711E-005  0.2726609E+04  0.7818608E-02  0.8326423E-01
          2   -1    0    0  501    0  0.00000000000E+00  0.00000000000E+00  0.17685840590E+04  0.17685840590E+04  0.00000000000E+00 0. -1.
         -2   -1    0    0    0  501 -0.00000000000E+00 -0.00000000000E+00 -0.10508966057E+04  0.10508966057E+04  0.00000000000E+00 0.  1.
         23    2    1    2    0    0  0.46096033315E+02 -0.10129758046E+04  0.12991676437E+04  0.16505649120E+04  0.91011743620E+02 0.  0.
         13    1    3    3    0    0  0.73943841616E+02 -0.70885009150E+03  0.90690777930E+03  0.11534374123E+04  0.00000000000E+00 0. -1.
        -13    1    3    3    0    0 -0.27847808301E+02 -0.30412571306E+03  0.39225986440E+03  0.49712749973E+03  0.00000000000E+00 0.  1.
         22    1    1    2    0    0 -0.46096033315E+02  0.10129758046E+04 -0.58148019038E+03  0.11689157526E+04  0.00000000000E+00 0.  1.
<mgrwt>
<rscale>  0 0.27266089E+04</rscale>
<asrwt>0</asrwt>
<pdfrwt beam="1">  1        2 0.27208986E+00 0.27266089E+04</pdfrwt>
<pdfrwt beam="2">  1       -2 0.16167640E+00 0.27266089E+04</pdfrwt>
<totfact> 0.19253875E+00</totfact>
</mgrwt>
</event>
<event>
 6    1  0.2047711E-005  0.1888576E+04  0.7818608E-02  0.8660564E-01
          2   -1    0    0  501    0  0.00000000000E+00  0.00000000000E+00  0.42218851567E+03  0.42218851567E+03  0.00000000000E+00 0. -1.
         -2   -1    0    0    0  501 -0.00000000000E+00 -0.00000000000E+00 -0.21120416853E+04  0.21120416853E+04  0.00000000000E+00 0.  1.
         23    2    1    2    0    0 -0.32202203537E+03  0.88487724035E+03 -0.80716929296E+03  0.12435572184E+04  0.90588996471E+02 0.  0.
         11    1    3    3    0    0 -0.79494528944E+02  0.20505761658E+03 -0.14033905251E+03  0.26088897238E+03  0.00000000000E+00 0. -1.
        -11    1    3    3    0    0 -0.24252750642E+03  0.67981962377E+03 -0.66683024045E+03  0.98266824606E+03  0.00000000000E+00 0.  1.
         22    1    1    2    0    0  0.32202203537E+03 -0.88487724035E+03 -0.88268387670E+03  0.12906729826E+04  0.00000000000E+00 0. -1.
<mgrwt>
<rscale>  0 0.18885759E+04</rscale>
<asrwt>0</asrwt>
<pdfrwt beam="1">  1        2 0.64952081E-01 0.18885759E+04</pdfrwt>
<pdfrwt beam="2">  1       -2 0.32492948E+00 0.18885759E+04</pdfrwt>
<totfact> 0.15685241E+00</totfact>
</mgrwt>
</event>
<event>
 6    1  0.2047711E-005  0.3108108E+04  0.7818608E-02  0.8213516E-01
         -2   -1    0    0    0  501 -0.00000000000E+00  0.00000000000E+00  0.12890251368E+04  0.12890251368E+04  0.00000000000E+00 0.  1.
          2   -1    0    0  501    0  0.00000000000E+00 -0.00000000000E+00 -0.18735740646E+04  0.18735740646E+04  0.00000000000E+00 0. -1.
         23    2    1    2    0    0  0.22130319108E+02 -0.59205006040E+03  0.11679160223E+04  0.13126947643E+04  0.90148122130E+02 0.  0.
         13    1    3    3    0    0  0.14571333100E+02 -0.19915243774E+03  0.48983903519E+03  0.52897665128E+03  0.00000000000E+00 0.  1.
        -13    1    3    3    0    0  0.75589860084E+01 -0.39289762266E+03  0.67807698716E+03  0.78371811302E+03  0.00000000000E+00 0. -1.
         22    1    1    2    0    0 -0.22130319108E+02  0.59205006040E+03 -0.17524649501E+04  0.18499044371E+04  0.00000000000E+00 0. -1.
<mgrwt>
<rscale>  0 0.31081081E+04</rscale>
<asrwt>0</asrwt>
<pdfrwt beam="1">  1        2 0.28824216E+00 0.31081081E+04</pdfrwt>
<pdfrwt beam="2">  1       -2 0.19831156E+00 0.31081081E+04</pdfrwt>
<totfact> 0.90939083E-01</totfact>
</mgrwt>
</event>
<event>
 6    1  0.2047711E-005  0.2526207E+04  0.7818608E-02  0.8393708E-01
          1   -1    0    0  501    0  0.00000000000E+00  0.00000000000E+00  0.22499650671E+04  0.22499650671E+04  0.00000000000E+00 0. -1.
         -1   -1    0    0    0  501 -0.00000000000E+00 -0.00000000000E+00 -0.70909114491E+03  0.70909114491E+03  0.00000000000E+00 0.  1.
         23    2    1    2    0    0  0.77247347792E+03  0.83636572232E+03  0.14072723708E+04  0.18127262987E+04  0.96634429347E+02 0.  0.
         13    1    3    3    0    0  0.59091962252E+03  0.69556945713E+03  0.11367044450E+04  0.14577722268E+04  0.00000000000E+00 0.  1.
        -13    1    3    3    0    0  0.18155385540E+03  0.14079626519E+03  0.27056792572E+03  0.35495407186E+03  0.00000000000E+00 0. -1.
         22    1    1    2    0    0 -0.77247347792E+03 -0.83636572232E+03  0.13360155141E+03  0.11463299133E+04  0.00000000000E+00 0.  1.
<mgrwt>
<rscale>  0 0.25262069E+04</rscale>
<asrwt>0</asrwt>
<pdfrwt beam="1">  1        1 0.34614847E+00 0.25262069E+04</pdfrwt>
<pdfrwt beam="2">  1       -1 0.10909095E+00 0.25262069E+04</pdfrwt>
<totfact> 0.13889439E+00</totfact>
</mgrwt>
</event>
<event>
 6    1  0.2047711E-005  0.3072704E+04  0.7818608E-02  0.8223269E-01
          2   -1    0    0  501    0  0.00000000000E+00  0.00000000000E+00  0.23321830370E+04  0.23321830370E+04  0.00000000000E+00 0.  1.
         -2   -1    0    0    0  501 -0.00000000000E+00 -0.00000000000E+00 -0.10120895158E+04  0.10120895158E+04  0.00000000000E+00 0. -1.
         23    2    1    2    0    0 -0.12965755480E+03 -0.99902293232E+03  0.19212021047E+04  0.21711615478E+04  0.89816697179E+02 0.  0.
         13    1    3    3    0    0 -0.91564439586E+02 -0.37309821161E+03  0.71207359455E+03  0.80909525159E+03  0.00000000000E+00 0. -1.
        -13    1    3    3    0    0 -0.38093115209E+02 -0.62592472071E+03  0.12091285101E+04  0.13620662962E+04  0.00000000000E+00 0.  1.
         22    1    1    2    0    0  0.12965755480E+03  0.99902293232E+03 -0.60110858348E+03  0.11731110050E+04  0.00000000000E+00 0. -1.
<mgrwt>
<rscale>  0 0.30727043E+04</rscale>
<asrwt>0</asrwt>
<pdfrwt beam="1">  1        2 0.35879739E+00 0.30727043E+04</pdfrwt>
<pdfrwt beam="2">  1       -2 0.15570608E+00 0.30727043E+04</pdfrwt>
<totfact> 0.10028996E+00</totfact>
</mgrwt>
</event>
<event>
 6    1  0.2047711E-005  0.2844353E+04  0.7818608E-02  0.8289629E-01
          2   -1    0    0  501    0  0.00000000000E+00  0.00000000000E+00  0.39028125282E+04  0.39028125282E+04  0.00000000000E+00 0. -1.
         -2   -1    0    0    0  501 -0.00000000000E+00 -0.00000000000E+00 -0.51823815532E+03  0.51823815532E+03  0.00000000000E+00 0.  1.
         23    2    1    2    0    0  0.99430154310E+03 -0.65973702671E+03  0.49557956521E+03  0.12953220482E+04  0.91496448298E+02 0.  0.
         13    1    3    3    0    0  0.91764366048E+03 -0.60721863075E+03  0.48245521296E+03  0.12014771682E+04  0.00000000000E+00 0. -1.
        -13    1    3    3    0    0  0.76657882626E+02 -0.52518395955E+02  0.13124352252E+02  0.93844880011E+02  0.00000000000E+00 0.  1.
         22    1    1    2    0    0 -0.99430154310E+03  0.65973702671E+03  0.28889948076E+04  0.31257286353E+04  0.00000000000E+00 0. -1.
<mgrwt>
<rscale>  0 0.28443533E+04</rscale>
<asrwt>0</asrwt>
<pdfrwt beam="1">  1        2 0.60043268E+00 0.28443533E+04</pdfrwt>
<pdfrwt beam="2">  1       -2 0.79728950E-01 0.28443533E+04</pdfrwt>
<totfact> 0.49402160E-01</totfact>
</mgrwt>
</event>
<event>
 6    1  0.2047711E-005  0.3873257E+04  0.7818608E-02  0.8030614E-01
          2   -1    0    0  501    0  0.00000000000E+00  0.00000000000E+00  0.23705593516E+04  0.23705593516E+04  0.00000000000E+00 0. -1.
         -2   -1    0    0    0  501 -0.00000000000E+00 -0.00000000000E+00 -0.15821283422E+04  0.15821283422E+04  0.00000000000E+00 0.  1.
         23    2    1    2    0    0  0.49641518652E+03 -0.12384498616E+03 -0.15105296802E+04  0.15974836963E+04  0.92133745715E+02 0.  0.
         11    1    3    3    0    0  0.43471703436E+03 -0.96367543981E+02 -0.13866671958E+04  0.14564036238E+04  0.00000000000E+00 0. -1.
        -11    1    3    3    0    0  0.61698152157E+02 -0.27477442179E+02 -0.12386248435E+03  0.14108007243E+03  0.00000000000E+00 0.  1.
         22    1    1    2    0    0 -0.49641518652E+03  0.12384498616E+03  0.22989606896E+04  0.23552039976E+04  0.00000000000E+00 0. -1.
<mgrwt>
<rscale>  0 0.38732566E+04</rscale>
<asrwt>0</asrwt>
<pdfrwt beam="1">  1        2 0.36470144E+00 0.38732566E+04</pdfrwt>
<pdfrwt beam="2">  1       -2 0.24340436E+00 0.38732566E+04</pdfrwt>
<totfact> 0.23246116E-01</totfact>
</mgrwt>
</event>
<event>
 6    1  0.2047711E-005  0.2024781E+04  0.7818608E-02  0.8595122E-01
          2   -1    0    0  501    0  0.00000000000E+00  0.00000000000E+00  0.26851949333E+04  0.26851949333E+04  0.00000000000E+00 0. -1.
         -2   -1    0    0    0  501 -0.00000000000E+00 -0.00000000000E+00 -0.38169836672E+03  0.38169836672E+03  0.00000000000E+00 0.  1.
         23    2    1    2    0    0 -0.80167695849E+03 -0.32549427828E+03  0.19438305956E+04  0.21298809833E+04  0.96349094090E+02 0.  0.
         11    1    3    3    0    0 -0.77250378934E+03 -0.30930448226E+03  0.18126736173E+04  0.19945468182E+04  0.00000000000E+00 0. -1.
        -11    1    3    3    0    0 -0.29173169143E+02 -0.16189796025E+02  0.13115697825E+03  0.13533416508E+03  0.00000000000E+00 0.  1.
         22    1    1    2    0    0  0.80167695849E+03  0.32549427828E+03  0.35966597105E+03  0.93701231672E+03  0.00000000000E+00 0.  1.
<mgrwt>
<rscale>  0 0.20247810E+04</rscale>
<asrwt>0</asrwt>
<pdfrwt beam="1">  1        2 0.41310690E+00 0.20247810E+04</pdfrwt>
<pdfrwt beam="2">  1       -2 0.58722827E-01 0.20247810E+04</pdfrwt>
<totfact> 0.68171001E+00</totfact>
</mgrwt>
</event>
<event>
 6    1  0.2047711E-005  0.1168725E+04  0.7818608E-02  0.9140681E-01
          2   -1    0    0  501    0  0.00000000000E+00  0.00000000000E+00  0.45982875693E+03  0.45982875693E+03  0.00000000000E+00 0. -1.
         -2   -1    0    0    0  501 -0.00000000000E+00 -0.00000000000E+00 -0.74262313169E+03  0.74262313169E+03  0.00000000000E+00 0.  1.
         23    2    1    2    0    0  0.43632874598E+03 -0.46312821503E+02 -0.53387482159E+03  0.69691351937E+03  0.90213504245E+02 0.  0.
         13    1    3    3    0    0  0.28069711836E+03 -0.66581504210E+02 -0.30955474715E+03  0.42314076906E+03  0.00000000000E+00 0.  1.
        -13    1    3    3    0    0  0.15563162762E+03  0.20268682707E+02 -0.22432007444E+03  0.27377275031E+03  0.00000000000E+00 0. -1.
         22    1    1    2    0    0 -0.43632874598E+03  0.46312821503E+02  0.25108044684E+03  0.50553836925E+03  0.00000000000E+00 0. -1.
<mgrwt>
<rscale>  0 0.11687249E+04</rscale>
<asrwt>0</asrwt>
<pdfrwt beam="1">  1        2 0.70742886E-01 0.11687249E+04</pdfrwt>
<pdfrwt beam="2">  1       -2 0.11424971E+00 0.11687249E+04</pdfrwt>
<totfact> 0.40183821E+01</totfact>
</mgrwt>
</event>
<event>
 6    1  0.2047711E-005  0.1524863E+04  0.7818608E-02  0.8868085E-01
          2   -1    0    0  501    0  0.00000000000E+00  0.00000000000E+00  0.14878749703E+04  0.14878749703E+04  0.00000000000E+00 0. -1.
         -2   -1    0    0    0  501 -0.00000000000E+00 -0.00000000000E+00 -0.39069273625E+03  0.39069273625E+03  0.00000000000E+00 0.  1.
         23    2    1    2    0    0  0.69519544890E+03  0.24972679784E+03  0.76695365747E+03  0.10694255074E+04  0.98958664850E+02 0.  0.
         13    1    3    3    0    0  0.44486168277E+03  0.12568335925E+03  0.52823027834E+03  0.70194405086E+03  0.00000000000E+00 0.  1.
        -13    1    3    3    0    0  0.25033376613E+03  0.12404343860E+03  0.23872337913E+03  0.36748145650E+03  0.00000000000E+00 0. -1.
         22    1    1    2    0    0 -0.69519544890E+03 -0.24972679784E+03  0.33022857660E+03  0.80914219921E+03  0.00000000000E+00 0.  1.
<mgrwt>
<rscale>  0 0.15248632E+04</rscale>
<asrwt>0</asrwt>
<pdfrwt beam="1">  1        2 0.22890384E+00 0.15248632E+04</pdfrwt>
<pdfrwt beam="2">  1       -2 0.60106575E-01 0.15248632E+04</pdfrwt>
<totfact> 0.32085269E+01</totfact>
</mgrwt>
</event>
<event>
 6    1  0.2047711E-005  0.2087429E+04  0.7818608E-02  0.8566801E-01
          2   -1    0    0  501    0  0.00000000000E+00  0.00000000000E+00  0.24537326229E+04  0.24537326229E+04  0.00000000000E+00 0. -1.
         -2   -1    0    0    0  501 -0.00000000000E+00 -0.00000000000E+00 -0.44395209244E+03  0.44395209244E+03  0.00000000000E+00 0.  1.
         23    2    1    2    0    0  0.96160529729E+03  0.33871527151E+03  0.71029388249E+03  0.12459951770E+04  0.92594808701E+02 0.  0.
         13    1    3    3    0    0  0.86779245646E+03  0.32191029072E+03  0.66947126631E+03  0.11423142121E+04  0.00000000000E+00 0. -1.
        -13    1    3    3    0    0  0.93812840826E+02  0.16804980794E+02  0.40822616183E+02  0.10368096486E+03  0.00000000000E+00 0.  1.
         22    1    1    2    0    0 -0.96160529729E+03 -0.33871527151E+03  0.12994866480E+04  0.16516895384E+04  0.00000000000E+00 0. -1.
<mgrwt>
<rscale>  0 0.20874288E+04</rscale>
<asrwt>0</asrwt>
<pdfrwt beam="1">  1        2 0.37749732E+00 0.20874288E+04</pdfrwt>
<pdfrwt beam="2">  1       -2 0.68300323E-01 0.20874288E+04</pdfrwt>
<totfact> 0.67003701E+00</totfact>
</mgrwt>
</event>
<event>
 6    1  0.2419825E-005  0.2949397E+04  0.7818608E-02  0.8258330E-01
         -2   -1    0    0    0  501 -0.00000000000E+00  0.00000000000E+00  0.11922764888E+04  0.11922764888E+04  0.00000000000E+00 0.  1.
          2   -1    0    0  501    0  0.00000000000E+00 -0.00000000000E+00 -0.18240193523E+04  0.18240193523E+04  0.00000000000E+00 0. -1.
         23    2    1    2    0    0 -0.12536816240E+04  0.96927207722E+02  0.46921351458E+03  0.13450036929E+04  0.88097183221E+02 0.  0.
         13    1    3    3    0    0 -0.10203033575E+04  0.75957663898E+02  0.41759227999E+03  0.11050664325E+04  0.00000000000E+00 0.  1.
        -13    1    3    3    0    0 -0.23337826658E+03  0.20969543824E+02  0.51621234585E+02  0.23993726043E+03  0.00000000000E+00 0. -1.
         22    1    1    2    0    0  0.12536816240E+04 -0.96927207722E+02 -0.11009563781E+04  0.16712921482E+04  0.00000000000E+00 0. -1.
<mgrwt>
<rscale>  0 0.29493968E+04</rscale>
<asrwt>0</asrwt>
<pdfrwt beam="1">  1        2 0.28061836E+00 0.29493968E+04</pdfrwt>
<pdfrwt beam="2">  1       -2 0.18342715E+00 0.29493968E+04</pdfrwt>
<totfact> 0.12355006E+00</totfact>
</mgrwt>
</event>
<event>
 6    1  0.2047711E-005  0.5802620E+03  0.7818608E-02  0.9947224E-01
          2   -1    0    0  501    0  0.00000000000E+00  0.00000000000E+00  0.55952137329E+03  0.55952137329E+03  0.00000000000E+00 0. -1.
         -2   -1    0    0    0  501 -0.00000000000E+00 -0.00000000000E+00 -0.15044287143E+03  0.15044287143E+03  0.00000000000E+00 0.  1.
         23    2    1    2    0    0 -0.29365151548E+02 -0.23038314051E+03  0.40716406068E+03  0.47770927998E+03  0.92113410072E+02 0.  0.
         13    1    3    3    0    0 -0.42413312752E+02 -0.18196116787E+03  0.24591133735E+03  0.30883837448E+03  0.00000000000E+00 0.  1.
        -13    1    3    3    0    0  0.13048161204E+02 -0.48421972637E+02  0.16125272333E+03  0.16887090551E+03  0.00000000000E+00 0. -1.
         22    1    1    2    0    0  0.29365151548E+02  0.23038314051E+03  0.19144411790E+01  0.23225496473E+03  0.00000000000E+00 0.  1.
<mgrwt>
<rscale>  0 0.58026202E+03</rscale>
<asrwt>0</asrwt>
<pdfrwt beam="1">  1        2 0.86080210E-01 0.58026202E+03</pdfrwt>
<pdfrwt beam="2">  1       -2 0.23145057E-01 0.58026202E+03</pdfrwt>
<totfact> 0.89196768E+02</totfact>
</mgrwt>
</event>
<event>
 6    1  0.2047711E-005  0.2445574E+04  0.7818608E-02  0.8422636E-01
         -1   -1    0    0    0  501 -0.00000000000E+00  0.00000000000E+00  0.64361414389E+03  0.64361414389E+03  0.00000000000E+00 0.  1.
          1   -1    0    0  501    0  0.00000000000E+00 -0.00000000000E+00 -0.23231436435E+04  0.23231436435E+04  0.00000000000E+00 0. -1.
         23    2    1    2    0    0  0.10835044521E+04 -0.50505818810E+03 -0.11425085822E+04  0.16562398986E+04  0.93482994079E+02 0.  0.
         13    1    3    3    0    0  0.84912927520E+03 -0.35334974388E+03 -0.86425545666E+03  0.12620673761E+04  0.00000000000E+00 0.  1.
        -13    1    3    3    0    0  0.23437517691E+03 -0.15170844422E+03 -0.27825312553E+03  0.39417252246E+03  0.00000000000E+00 0. -1.
         22    1    1    2    0    0 -0.10835044521E+04  0.50505818810E+03 -0.53702091740E+03  0.13105178888E+04  0.00000000000E+00 0. -1.
<mgrwt>
<rscale>  0 0.24455740E+04</rscale>
<asrwt>0</asrwt>
<pdfrwt beam="1">  1        1 0.35740672E+00 0.24455740E+04</pdfrwt>
<pdfrwt beam="2">  1       -1 0.99017560E-01 0.24455740E+04</pdfrwt>
<totfact> 0.15609619E+00</totfact>
</mgrwt>
</event>
<event>
 6    1  0.2047711E-005  0.2538795E+04  0.7818608E-02  0.8389293E-01
          2   -1    0    0  501    0  0.00000000000E+00  0.00000000000E+00  0.19248774422E+04  0.19248774422E+04  0.00000000000E+00 0. -1.
         -2   -1    0    0    0  501 -0.00000000000E+00 -0.00000000000E+00 -0.83712880682E+03  0.83712880682E+03  0.00000000000E+00 0.  1.
         23    2    1    2    0    0 -0.57733217457E+03 -0.71034443837E+03  0.14988595756E+04  0.17585552706E+04  0.89637890365E+02 0.  0.
         11    1    3    3    0    0 -0.47052869137E+03 -0.60875029379E+03  0.12028353187E+04  0.14278609784E+04  0.00000000000E+00 0. -1.
        -11    1    3    3    0    0 -0.10680348320E+03 -0.10159414458E+03  0.29602425689E+03  0.33069429221E+03  0.00000000000E+00 0.  1.
         22    1    1    2    0    0  0.57733217457E+03  0.71034443837E+03 -0.41111094024E+03  0.10034509784E+04  0.00000000000E+00 0.  1.
<mgrwt>
<rscale>  0 0.25387953E+04</rscale>
<asrwt>0</asrwt>
<pdfrwt beam="1">  1        2 0.29613499E+00 0.25387953E+04</pdfrwt>
<pdfrwt beam="2">  1       -2 0.12878905E+00 0.25387953E+04</pdfrwt>
<totfact> 0.29083694E+00</totfact>
</mgrwt>
</event>
<event>
 6    1  0.3192071E-005  0.2921378E+04  0.7818608E-02  0.8266545E-01
          2   -1    0    0  501    0  0.00000000000E+00  0.00000000000E+00  0.18502778928E+04  0.18502778928E+04  0.00000000000E+00 0. -1.
         -2   -1    0    0    0  501 -0.00000000000E+00 -0.00000000000E+00 -0.11531305857E+04  0.11531305857E+04  0.00000000000E+00 0.  1.
         23    2    1    2    0    0 -0.96965597970E+03 -0.28818953900E+03 -0.73233085739E+03  0.12522106736E+04  0.91853998309E+02 0.  0.
         11    1    3    3    0    0 -0.45136431001E+03 -0.96729882557E+02 -0.36843849526E+03  0.59062114364E+03  0.00000000000E+00 0. -1.
        -11    1    3    3    0    0 -0.51829166969E+03 -0.19145965644E+03 -0.36389236213E+03  0.66158952994E+03  0.00000000000E+00 0.  1.
         22    1    1    2    0    0  0.96965597970E+03  0.28818953900E+03  0.14294781645E+04  0.17511978050E+04  0.00000000000E+00 0. -1.
<mgrwt>
<rscale>  0 0.29213778E+04</rscale>
<asrwt>0</asrwt>
<pdfrwt beam="1">  1        2 0.28465814E+00 0.29213778E+04</pdfrwt>
<pdfrwt beam="2">  1       -2 0.17740471E+00 0.29213778E+04</pdfrwt>
<totfact> 0.13178376E+00</totfact>
</mgrwt>
</event>
<event>
 6    1  0.2047711E-005  0.7964281E+03  0.7818608E-02  0.9565202E-01
          2   -1    0    0  501    0  0.00000000000E+00  0.00000000000E+00  0.10790009916E+04  0.10790009916E+04  0.00000000000E+00 0. -1.
         -2   -1    0    0    0  501 -0.00000000000E+00 -0.00000000000E+00 -0.14696412477E+03  0.14696412477E+03  0.00000000000E+00 0.  1.
         23    2    1    2    0    0 -0.37772567668E+03 -0.81831774630E+02  0.58120336588E+03  0.70399071895E+03  0.91828392645E+02 0.  0.
         11    1    3    3    0    0 -0.99861031576E+02  0.17386920138E+02  0.12927909795E+03  0.16427907897E+03  0.00000000000E+00 0.  1.
        -11    1    3    3    0    0 -0.27786464511E+03 -0.99218694769E+02  0.45192426793E+03  0.53971163999E+03  0.00000000000E+00 0. -1.
         22    1    1    2    0    0  0.37772567668E+03  0.81831774630E+02  0.35083350096E+03  0.52197439742E+03  0.00000000000E+00 0. -1.
<mgrwt>
<rscale>  0 0.79642812E+03</rscale>
<asrwt>0</asrwt>
<pdfrwt beam="1">  1        2 0.16600015E+00 0.79642812E+03</pdfrwt>
<pdfrwt beam="2">  1       -2 0.22609866E-01 0.79642812E+03</pdfrwt>
<totfact> 0.38754349E+02</totfact>
</mgrwt>
</event>
<event>
 6    1  0.2047711E-005  0.1979943E+04  0.7818608E-02  0.8616056E-01
          2   -1    0    0  501    0  0.00000000000E+00  0.00000000000E+00  0.10123440110E+04  0.10123440110E+04  0.00000000000E+00 0. -1.
         -2   -1    0    0    0  501 -0.00000000000E+00 -0.00000000000E+00 -0.96809298748E+03  0.96809298748E+03  0.00000000000E+00 0.  1.
         23    2    1    2    0    0  0.82526332553E+03  0.94623796724E+01 -0.52092184755E+03  0.98015230534E+03  0.90497941030E+02 0.  0.
         13    1    3    3    0    0  0.38463441255E+03 -0.11782703039E+02 -0.19313407554E+03  0.43056153397E+03  0.00000000000E+00 0.  1.
        -13    1    3    3    0    0  0.44062891298E+03  0.21245082712E+02 -0.32778777201E+03  0.54959077137E+03  0.00000000000E+00 0. -1.
         22    1    1    2    0    0 -0.82526332553E+03 -0.94623796724E+01  0.56517287103E+03  0.10002846931E+04  0.00000000000E+00 0. -1.
<mgrwt>
<rscale>  0 0.19799426E+04</rscale>
<asrwt>0</asrwt>
<pdfrwt beam="1">  1        2 0.15574523E+00 0.19799426E+04</pdfrwt>
<pdfrwt beam="2">  1       -2 0.14893738E+00 0.19799426E+04</pdfrwt>
<totfact> 0.70265402E+00</totfact>
</mgrwt>
</event>
<event>
 6    1  0.2047711E-005  0.9162056E+03  0.7818608E-02  0.9405547E-01
         -1   -1    0    0    0  501 -0.00000000000E+00  0.00000000000E+00  0.23057219444E+03  0.23057219444E+03  0.00000000000E+00 0.  1.
          1   -1    0    0  501    0  0.00000000000E+00 -0.00000000000E+00 -0.91016245530E+03  0.91016245530E+03  0.00000000000E+00 0. -1.
         23    2    1    2    0    0 -0.28995621287E+03  0.88310763425E+02  0.77543985827E+02  0.32518228243E+03  0.88640006478E+02 0.  0.
         11    1    3    3    0    0 -0.70661002670E+02  0.10432492141E+02 -0.17934109673E+02  0.73644052580E+02  0.00000000000E+00 0. -1.
        -11    1    3    3    0    0 -0.21929521020E+03  0.77878271284E+02  0.95478095500E+02  0.25153822985E+03  0.00000000000E+00 0.  1.
         22    1    1    2    0    0  0.28995621287E+03 -0.88310763425E+02 -0.75713424669E+03  0.81555236731E+03  0.00000000000E+00 0. -1.
<mgrwt>
<rscale>  0 0.91620555E+03</rscale>
<asrwt>0</asrwt>
<pdfrwt beam="1">  1        1 0.14002499E+00 0.91620555E+03</pdfrwt>
<pdfrwt beam="2">  1       -1 0.35472646E-01 0.91620555E+03</pdfrwt>
<totfact> 0.13598960E+02</totfact>
</mgrwt>
</event>
<event>
 6    1  0.2047711E-005  0.4246478E+04  0.7818608E-02  0.7956590E-01
         -2   -1    0    0    0  501 -0.00000000000E+00  0.00000000000E+00  0.15700934963E+04  0.15700934963E+04  0.00000000000E+00 0.  1.
          2   -1    0    0  501    0  0.00000000000E+00 -0.00000000000E+00 -0.28712581635E+04  0.28712581635E+04  0.00000000000E+00 0. -1.
         23    2    1    2    0    0 -0.13617349534E+04  0.14232962982E+04  0.17513909617E+03  0.19797328353E+04  0.92595681069E+02 0.  0.
         11    1    3    3    0    0 -0.63696676183E+03  0.68276101061E+03  0.12791847279E+03  0.94247142608E+03  0.00000000000E+00 0.  1.
        -11    1    3    3    0    0 -0.72476819161E+03  0.74053528756E+03  0.47220623375E+02  0.10372614092E+04  0.00000000000E+00 0. -1.
         22    1    1    2    0    0  0.13617349534E+04 -0.14232962982E+04 -0.14763037633E+04  0.24616188245E+04  0.00000000000E+00 0. -1.
<mgrwt>
<rscale>  0 0.42464780E+04</rscale>
<asrwt>0</asrwt>
<pdfrwt beam="1">  1        2 0.44173202E+00 0.42464780E+04</pdfrwt>
<pdfrwt beam="2">  1       -2 0.24155285E+00 0.42464780E+04</pdfrwt>
<totfact> 0.11720530E-01</totfact>
</mgrwt>
</event>
<event>
 6    1  0.2047711E-005  0.2510781E+04  0.7818608E-02  0.8399155E-01
         -2   -1    0    0    0  501 -0.00000000000E+00  0.00000000000E+00  0.40098041393E+03  0.40098041393E+03  0.00000000000E+00 0. -1.
          2   -1    0    0  501    0  0.00000000000E+00 -0.00000000000E+00 -0.39303802136E+04  0.39303802136E+04  0.00000000000E+00 0.  1.
         23    2    1    2    0    0 -0.55752229105E+03 -0.95806753538E+03 -0.75514976264E+03  0.13438553513E+04  0.83495712013E+02 0.  0.
         11    1    3    3    0    0 -0.36721222910E+03 -0.69876535482E+03 -0.55630993010E+03  0.96571143756E+03  0.00000000000E+00 0. -1.
        -11    1    3    3    0    0 -0.19031006195E+03 -0.25930218056E+03 -0.19883983253E+03  0.37814391377E+03  0.00000000000E+00 0.  1.
         22    1    1    2    0    0  0.55752229105E+03  0.95806753538E+03 -0.27742500371E+04  0.29875052762E+04  0.00000000000E+00 0.  1.
<mgrwt>
<rscale>  0 0.25107811E+04</rscale>
<asrwt>0</asrwt>
<pdfrwt beam="1">  1        2 0.60467386E+00 0.25107811E+04</pdfrwt>
<pdfrwt beam="2">  1       -2 0.61689296E-01 0.25107811E+04</pdfrwt>
<totfact> 0.84892476E-01</totfact>
</mgrwt>
</event>
<event>
 6    1  0.2047711E-005  0.4001260E+04  0.7818608E-02  0.8004292E-01
         -2   -1    0    0    0  501 -0.00000000000E+00  0.00000000000E+00  0.26233655145E+04  0.26233655145E+04  0.00000000000E+00 0.  1.
          2   -1    0    0  501    0  0.00000000000E+00 -0.00000000000E+00 -0.15257195187E+04  0.15257195187E+04  0.00000000000E+00 0. -1.
         23    2    1    2    0    0 -0.86816814079E+03  0.16967320820E+04  0.11763542495E+04  0.22415183454E+04  0.89328011565E+02 0.  0.
         11    1    3    3    0    0 -0.52597036729E+03  0.94117555981E+03  0.64137904447E+03  0.12545211598E+04  0.00000000000E+00 0. -1.
        -11    1    3    3    0    0 -0.34219777349E+03  0.75555652223E+03  0.53497520500E+03  0.98699718563E+03  0.00000000000E+00 0.  1.
         22    1    1    2    0    0  0.86816814079E+03 -0.16967320820E+04 -0.78708253673E+02  0.19075666877E+04  0.00000000000E+00 0. -1.
<mgrwt>
<rscale>  0 0.40012598E+04</rscale>
<asrwt>0</asrwt>
<pdfrwt beam="1">  1        2 0.23472608E+00 0.40012598E+04</pdfrwt>
<pdfrwt beam="2">  1       -2 0.40359469E+00 0.40012598E+04</pdfrwt>
<totfact> 0.68051446E-02</totfact>
</mgrwt>
</event>
<event>
 6    1  0.2047711E-005  0.1015772E+04  0.7818608E-02  0.9291414E-01
         -1   -1    0    0    0  501 -0.00000000000E+00  0.00000000000E+00  0.16658013458E+04  0.16658013458E+04  0.00000000000E+00 0.  1.
          1   -1    0    0  501    0  0.00000000000E+00 -0.00000000000E+00 -0.15484925416E+03  0.15484925416E+03  0.00000000000E+00 0. -1.
         23    2    1    2    0    0 -0.16841909612E+03 -0.31673585237E+03  0.12287100862E+03  0.38696455164E+03  0.77186056717E+02 0.  0.
         13    1    3    3    0    0 -0.32530207384E+02 -0.14089011585E+03  0.53054855618E+02  0.15402291012E+03  0.00000000000E+00 0.  1.
        -13    1    3    3    0    0 -0.13588888874E+03 -0.17584573652E+03  0.69816153002E+02  0.23294164152E+03  0.00000000000E+00 0. -1.
         22    1    1    2    0    0  0.16841909612E+03  0.31673585237E+03  0.13880810831E+04  0.14336860484E+04  0.00000000000E+00 0.  1.
<mgrwt>
<rscale>  0 0.10157718E+04</rscale>
<asrwt>0</asrwt>
<pdfrwt beam="1">  1        1 0.23822963E-01 0.10157718E+04</pdfrwt>
<pdfrwt beam="2">  1       -1 0.25627712E+00 0.10157718E+04</pdfrwt>
<totfact> 0.13313253E+01</totfact>
</mgrwt>
</event>
<event>
 6    1  0.2047711E-005  0.1942348E+04  0.7818608E-02  0.8634059E-01
          2   -1    0    0  501    0  0.00000000000E+00  0.00000000000E+00  0.13469174321E+04  0.13469174321E+04  0.00000000000E+00 0. -1.
         -2   -1    0    0    0  501 -0.00000000000E+00 -0.00000000000E+00 -0.70025026057E+03  0.70025026057E+03  0.00000000000E+00 0.  1.
         23    2    1    2    0    0 -0.54586911617E+03 -0.36767008342E+03 -0.42620561848E+03  0.78851348846E+03  0.83354124251E+02 0.  0.
         13    1    3    3    0    0 -0.25819835108E+03 -0.22406914483E+03 -0.21710876729E+03  0.40498097116E+03  0.00000000000E+00 0.  1.
        -13    1    3    3    0    0 -0.28767076509E+03 -0.14360093859E+03 -0.20909685118E+03  0.38353251730E+03  0.00000000000E+00 0. -1.
         22    1    1    2    0    0  0.54586911617E+03  0.36767008342E+03  0.10728727900E+04  0.12586542042E+04  0.00000000000E+00 0. -1.
<mgrwt>
<rscale>  0 0.19423484E+04</rscale>
<asrwt>0</asrwt>
<pdfrwt beam="1">  1        2 0.20721807E+00 0.19423484E+04</pdfrwt>
<pdfrwt beam="2">  1       -2 0.10773081E+00 0.19423484E+04</pdfrwt>
<totfact> 0.10015202E+01</totfact>
</mgrwt>
</event>
<event>
 6    1  0.2047711E-005  0.2059307E+04  0.7818608E-02  0.8579384E-01
         -1   -1    0    0    0  501 -0.00000000000E+00  0.00000000000E+00  0.96769277171E+03  0.96769277171E+03  0.00000000000E+00 0.  1.
          1   -1    0    0  501    0  0.00000000000E+00 -0.00000000000E+00 -0.10955817076E+04  0.10955817076E+04  0.00000000000E+00 0. -1.
         23    2    1    2    0    0 -0.89744293360E+03 -0.45340923382E+03  0.14911374832E+03  0.10203390837E+04  0.88730960792E+02 0.  0.
         11    1    3    3    0    0 -0.65813740950E+03 -0.28808353174E+03  0.11255496746E+03  0.72719020328E+03  0.00000000000E+00 0. -1.
        -11    1    3    3    0    0 -0.23930552410E+03 -0.16532570209E+03  0.36558780853E+02  0.29314888042E+03  0.00000000000E+00 0.  1.
         22    1    1    2    0    0  0.89744293360E+03  0.45340923382E+03 -0.27700268423E+03  0.10429353956E+04  0.00000000000E+00 0. -1.
<mgrwt>
<rscale>  0 0.20593072E+04</rscale>
<asrwt>0</asrwt>
<pdfrwt beam="1">  1        1 0.16855103E+00 0.20593072E+04</pdfrwt>
<pdfrwt beam="2">  1       -1 0.14887581E+00 0.20593072E+04</pdfrwt>
<totfact> 0.41987471E+00</totfact>
</mgrwt>
</event>
<event>
 6    1  0.2047711E-005  0.3263392E+04  0.7818608E-02  0.8172273E-01
          2   -1    0    0  501    0  0.00000000000E+00  0.00000000000E+00  0.18108709430E+04  0.18108709430E+04  0.00000000000E+00 0. -1.
         -2   -1    0    0    0  501 -0.00000000000E+00 -0.00000000000E+00 -0.14702494690E+04  0.14702494690E+04  0.00000000000E+00 0.  1.
         23    2    1    2    0    0 -0.51267277301E+03 -0.89472834961E+03 -0.10992720244E+04  0.15100570369E+04  0.92201297031E+02 0.  0.
         11    1    3    3    0    0 -0.40355933869E+03 -0.77088218788E+03 -0.91512085845E+03  0.12627611306E+04  0.00000000000E+00 0. -1.
        -11    1    3    3    0    0 -0.10911343432E+03 -0.12384616173E+03 -0.18415116596E+03  0.24729590625E+03  0.00000000000E+00 0.  1.
         22    1    1    2    0    0  0.51267277301E+03  0.89472834961E+03  0.14398934985E+04  0.17710633751E+04  0.00000000000E+00 0. -1.
<mgrwt>
<rscale>  0 0.32633921E+04</rscale>
<asrwt>0</asrwt>
<pdfrwt beam="1">  1        2 0.27859553E+00 0.32633921E+04</pdfrwt>
<pdfrwt beam="2">  1       -2 0.22619223E+00 0.32633921E+04</pdfrwt>
<totfact> 0.64398368E-01</totfact>
</mgrwt>
</event>
<event>
 6    1  0.2047711E-005  0.2059401E+04  0.7818608E-02  0.8579341E-01
         -2   -1    0    0    0  501 -0.00000000000E+00  0.00000000000E+00  0.95834885403E+03  0.95834885403E+03  0.00000000000E+00 0.  1.
          2   -1    0    0  501    0  0.00000000000E+00 -0.00000000000E+00 -0.11063649240E+04  0.11063649240E+04  0.00000000000E+00 0. -1.
         23    2    1    2    0    0 -0.37272339885E+03 -0.26689132635E+03  0.84796035489E+03  0.96830019228E+03  0.91732146948E+02 0.  0.
         11    1    3    3    0    0 -0.19421561968E+03 -0.10092153105E+03  0.33186405968E+03  0.39754071045E+03  0.00000000000E+00 0.  1.
        -11    1    3    3    0    0 -0.17850777917E+03 -0.16596979530E+03  0.51609629521E+03  0.57075948184E+03  0.00000000000E+00 0. -1.
         22    1    1    2    0    0  0.37272339885E+03  0.26689132635E+03 -0.99597642483E+03  0.10964135857E+04  0.00000000000E+00 0. -1.
<mgrwt>
<rscale>  0 0.20594014E+04</rscale>
<asrwt>0</asrwt>
<pdfrwt beam="1">  1        2 0.17020999E+00 0.20594014E+04</pdfrwt>
<pdfrwt beam="2">  1       -2 0.14743828E+00 0.20594014E+04</pdfrwt>
<totfact> 0.62601214E+00</totfact>
</mgrwt>
</event>
<event>
 6    1  0.2047711E-005  0.3084578E+04  0.7818608E-02  0.8219983E-01
         -2   -1    0    0    0  501 -0.00000000000E+00  0.00000000000E+00  0.63881914625E+03  0.63881914625E+03  0.00000000000E+00 0.  1.
          2   -1    0    0  501    0  0.00000000000E+00 -0.00000000000E+00 -0.37235187925E+04  0.37235187925E+04  0.00000000000E+00 0. -1.
         23    2    1    2    0    0 -0.26049893077E+03  0.11380088167E+04 -0.12051367642E+03  0.11765378472E+04  0.82425723334E+02 0.  0.
         13    1    3    3    0    0 -0.11666753366E+03  0.63121579903E+03 -0.35246960175E+02  0.64287405186E+03  0.00000000000E+00 0.  1.
        -13    1    3    3    0    0 -0.14383139711E+03  0.50679301764E+03 -0.85266716243E+02  0.53366379531E+03  0.00000000000E+00 0. -1.
         22    1    1    2    0    0  0.26049893077E+03 -0.11380088167E+04 -0.29641859699E+04  0.31858000916E+04  0.00000000000E+00 0. -1.
<mgrwt>
<rscale>  0 0.30845778E+04</rscale>
<asrwt>0</asrwt>
<pdfrwt beam="1">  1        2 0.57284904E+00 0.30845778E+04</pdfrwt>
<pdfrwt beam="2">  1       -2 0.98279869E-01 0.30845778E+04</pdfrwt>
<totfact> 0.40977166E-01</totfact>
</mgrwt>
</event>
<event>
 6    1  0.2047711E-005  0.6833389E+04  0.7818608E-02  0.7594866E-01
         -2   -1    0    0    0  501 -0.00000000000E+00  0.00000000000E+00  0.29024091216E+04  0.29024091216E+04  0.00000000000E+00 0.  1.
          2   -1    0    0  501    0  0.00000000000E+00 -0.00000000000E+00 -0.40221075952E+04  0.40221075952E+04  0.00000000000E+00 0. -1.
         23    2    1    2    0    0  0.22735068952E+04 -0.71811685628E+03 -0.30389826612E+04  0.38637688973E+04  0.93643231531E+02 0.  0.
         13    1    3    3    0    0  0.20148776365E+04 -0.63423718253E+03 -0.26424932475E+04  0.33830103838E+04  0.00000000000E+00 0. -1.
        -13    1    3    3    0    0  0.25862925871E+03 -0.83879673750E+02 -0.39648941375E+03  0.48075851354E+03  0.00000000000E+00 0.  1.
         22    1    1    2    0    0 -0.22735068952E+04  0.71811685628E+03  0.19192841877E+04  0.30607478195E+04  0.00000000000E+00 0.  1.
<mgrwt>
<rscale>  0 0.68333891E+04</rscale>
<asrwt>0</asrwt>
<pdfrwt beam="1">  1        2 0.61878579E+00 0.68333891E+04</pdfrwt>
<pdfrwt beam="2">  1       -2 0.44652448E+00 0.68333891E+04</pdfrwt>
<totfact> 0.75813674E-04</totfact>
</mgrwt>
</event>
<event>
 6    1  0.2047711E-005  0.6937110E+03  0.7818608E-02  0.9728048E-01
          2   -1    0    0  501    0  0.00000000000E+00  0.00000000000E+00  0.75861116760E+03  0.75861116760E+03  0.00000000000E+00 0. -1.
         -2   -1    0    0    0  501 -0.00000000000E+00 -0.00000000000E+00 -0.15859078276E+03  0.15859078276E+03  0.00000000000E+00 0.  1.
         23    2    1    2    0    0  0.16053141892E+03  0.17894998880E+03 -0.14153373794E+02  0.25765449889E+03  0.91608339443E+02 0.  0.
         11    1    3    3    0    0  0.13915635175E+03  0.18544983784E+03 -0.12551171496E+01  0.23185708509E+03  0.00000000000E+00 0.  1.
        -11    1    3    3    0    0  0.21375067177E+02 -0.64998490414E+01 -0.12898256644E+02  0.25797413802E+02  0.00000000000E+00 0. -1.
         22    1    1    2    0    0 -0.16053141892E+03 -0.17894998880E+03  0.61417375863E+03  0.65954745147E+03  0.00000000000E+00 0. -1.
<mgrwt>
<rscale>  0 0.69371100E+03</rscale>
<asrwt>0</asrwt>
<pdfrwt beam="1">  1        2 0.11670941E+00 0.69371100E+03</pdfrwt>
<pdfrwt beam="2">  1       -2 0.24398583E-01 0.69371100E+03</pdfrwt>
<totfact> 0.55668033E+02</totfact>
</mgrwt>
</event>
<event>
 6    1  0.2047711E-005  0.4499494E+04  0.7818608E-02  0.7910725E-01
          2   -1    0    0  501    0  0.00000000000E+00  0.00000000000E+00  0.20299261942E+04  0.20299261942E+04  0.00000000000E+00 0. -1.
         -2   -1    0    0    0  501 -0.00000000000E+00 -0.00000000000E+00 -0.24933721554E+04  0.24933721554E+04  0.00000000000E+00 0.  1.
         23    2    1    2    0    0 -0.12499860979E+04  0.17455218009E+04 -0.90465670825E+03  0.23315003375E+04  0.90434847890E+02 0.  0.
         11    1    3    3    0    0 -0.70790114823E+03  0.10632349226E+04 -0.54747988185E+03  0.13897218273E+04  0.00000000000E+00 0.  1.
        -11    1    3    3    0    0 -0.54208494962E+03  0.68228687830E+03 -0.35717682640E+03  0.94177851017E+03  0.00000000000E+00 0. -1.
         22    1    1    2    0    0  0.12499860979E+04 -0.17455218009E+04  0.44121074709E+03  0.21917980121E+04  0.00000000000E+00 0.  1.
<mgrwt>
<rscale>  0 0.44994939E+04</rscale>
<asrwt>0</asrwt>
<pdfrwt beam="1">  1        2 0.31229634E+00 0.44994939E+04</pdfrwt>
<pdfrwt beam="2">  1       -2 0.38359572E+00 0.44994939E+04</pdfrwt>
<totfact> 0.46238562E-02</totfact>
</mgrwt>
</event>
<event>
 6    1  0.2047711E-005  0.1540431E+04  0.7818608E-02  0.8858003E-01
         -2   -1    0    0    0  501 -0.00000000000E+00  0.00000000000E+00  0.34758933960E+03  0.34758933960E+03  0.00000000000E+00 0.  1.
          2   -1    0    0  501    0  0.00000000000E+00 -0.00000000000E+00 -0.17067029868E+04  0.17067029868E+04  0.00000000000E+00 0. -1.
         23    2    1    2    0    0  0.38953463364E+03 -0.31974724939E+03 -0.14538653839E+04  0.15415024807E+04  0.92356965229E+02 0.  0.
         13    1    3    3    0    0  0.29773200875E+03 -0.21446252734E+03 -0.11488007159E+04  0.12059774498E+04  0.00000000000E+00 0.  1.
        -13    1    3    3    0    0  0.91802624888E+02 -0.10528472205E+03 -0.30506466800E+03  0.33552503080E+03  0.00000000000E+00 0. -1.
         22    1    1    2    0    0 -0.38953463364E+03  0.31974724939E+03  0.94751736707E+02  0.51278984576E+03  0.00000000000E+00 0.  1.
<mgrwt>
<rscale>  0 0.15404308E+04</rscale>
<asrwt>0</asrwt>
<pdfrwt beam="1">  1        2 0.26256969E+00 0.15404308E+04</pdfrwt>
<pdfrwt beam="2">  1       -2 0.53475284E-01 0.15404308E+04</pdfrwt>
<totfact> 0.30864374E+01</totfact>
</mgrwt>
</event>
<event>
 6    1  0.2047711E-005  0.2722043E+04  0.7818608E-02  0.8327888E-01
          2   -1    0    0  501    0  0.00000000000E+00  0.00000000000E+00  0.32941362974E+04  0.32941362974E+04  0.00000000000E+00 0. -1.
         -2   -1    0    0    0  501 -0.00000000000E+00 -0.00000000000E+00 -0.56232629409E+03  0.56232629409E+03  0.00000000000E+00 0.  1.
         23    2    1    2    0    0  0.51721071705E+03  0.35629266190E+03 -0.34070501433E+03  0.72041413518E+03  0.92006698763E+02 0.  0.
         11    1    3    3    0    0  0.43617009887E+03  0.26767345397E+03 -0.24785060018E+03  0.56861529448E+03  0.00000000000E+00 0.  1.
        -11    1    3    3    0    0  0.81040618182E+02  0.88619207934E+02 -0.92854414152E+02  0.15179884070E+03  0.00000000000E+00 0. -1.
         22    1    1    2    0    0 -0.51721071705E+03 -0.35629266190E+03  0.30725150176E+04  0.31360484563E+04  0.00000000000E+00 0. -1.
<mgrwt>
<rscale>  0 0.27220430E+04</rscale>
<asrwt>0</asrwt>
<pdfrwt beam="1">  1        2 0.50679019E+00 0.27220430E+04</pdfrwt>
<pdfrwt beam="2">  1       -2 0.86511739E-01 0.27220430E+04</pdfrwt>
<totfact> 0.11389740E+00</totfact>
</mgrwt>
</event>
<event>
 6    1  0.2047711E-005  0.3167195E+04  0.7818608E-02  0.8197535E-01
          2   -1    0    0  501    0  0.00000000000E+00  0.00000000000E+00  0.30863945692E+04  0.30863945692E+04  0.00000000000E+00 0. -1.
         -2   -1    0    0    0  501 -0.00000000000E+00 -0.00000000000E+00 -0.81252768098E+03  0.81252768098E+03  0.00000000000E+00 0.  1.
         23    2    1    2    0    0  0.93692997120E+03 -0.24269409534E+03  0.26789532653E+04  0.28497162800E+04  0.85755956336E+02 0.  0.
         11    1    3    3    0    0  0.24939852305E+03 -0.26073350218E+02  0.68058818699E+03  0.72531353438E+03  0.00000000000E+00 0.  1.
        -11    1    3    3    0    0  0.68753144815E+03 -0.21662074512E+03  0.19983650783E+04  0.21244027456E+04  0.00000000000E+00 0. -1.
         22    1    1    2    0    0 -0.93692997120E+03  0.24269409534E+03 -0.40508637712E+03  0.10492059701E+04  0.00000000000E+00 0.  1.
<mgrwt>
<rscale>  0 0.31671950E+04</rscale>
<asrwt>0</asrwt>
<pdfrwt beam="1">  1        2 0.47482993E+00 0.31671950E+04</pdfrwt>
<pdfrwt beam="2">  1       -2 0.12500426E+00 0.31671950E+04</pdfrwt>
<totfact> 0.62099983E-01</totfact>
</mgrwt>
</event>
<event>
 6    1  0.2047711E-005  0.1535711E+04  0.7818608E-02  0.8861047E-01
         -2   -1    0    0    0  501 -0.00000000000E+00  0.00000000000E+00  0.59763076014E+03  0.59763076014E+03  0.00000000000E+00 0.  1.
          2   -1    0    0  501    0  0.00000000000E+00 -0.00000000000E+00 -0.98656579591E+03  0.98656579591E+03  0.00000000000E+00 0. -1.
         23    2    1    2    0    0 -0.19019188050E+03 -0.72889928528E+03 -0.33413908491E+03  0.82890209974E+03  0.89233645049E+02 0.  0.
         13    1    3    3    0    0 -0.17172804211E+03 -0.66647205072E+03 -0.33106932686E+03  0.76372928059E+03  0.00000000000E+00 0. -1.
        -13    1    3    3    0    0 -0.18463838393E+02 -0.62427234554E+02 -0.30697580536E+01  0.65172819156E+02  0.00000000000E+00 0.  1.
         22    1    1    2    0    0  0.19019188050E+03  0.72889928528E+03 -0.54795950861E+02  0.75529445630E+03  0.00000000000E+00 0.  1.
<mgrwt>
<rscale>  0 0.15357110E+04</rscale>
<asrwt>0</asrwt>
<pdfrwt beam="1">  1        2 0.15177935E+00 0.15357110E+04</pdfrwt>
<pdfrwt beam="2">  1       -2 0.91943194E-01 0.15357110E+04</pdfrwt>
<totfact> 0.24911199E+01</totfact>
</mgrwt>
</event>
<event>
 6    1  0.2047711E-005  0.1802317E+04  0.7818608E-02  0.8705068E-01
          2   -1    0    0  501    0  0.00000000000E+00  0.00000000000E+00  0.10214260502E+04  0.10214260502E+04  0.00000000000E+00 0. -1.
         -2   -1    0    0    0  501 -0.00000000000E+00 -0.00000000000E+00 -0.79505172456E+03  0.79505172456E+03  0.00000000000E+00 0.  1.
         23    2    1    2    0    0  0.27248281118E+03  0.70068926151E+03  0.60992270528E+03  0.97248625631E+03  0.92257729908E+02 0.  0.
         13    1    3    3    0    0  0.97932337400E+02  0.18072186592E+03  0.20861417194E+03  0.29286687806E+03  0.00000000000E+00 0. -1.
        -13    1    3    3    0    0  0.17455047378E+03  0.51996739558E+03  0.40130853334E+03  0.67961937825E+03  0.00000000000E+00 0.  1.
         22    1    1    2    0    0 -0.27248281118E+03 -0.70068926151E+03 -0.38354837969E+03  0.84399151840E+03  0.00000000000E+00 0.  1.
<mgrwt>
<rscale>  0 0.18023169E+04</rscale>
<asrwt>0</asrwt>
<pdfrwt beam="1">  1        2 0.15714247E+00 0.18023169E+04</pdfrwt>
<pdfrwt beam="2">  1       -2 0.12231565E+00 0.18023169E+04</pdfrwt>
<totfact> 0.11663415E+01</totfact>
</mgrwt>
</event>
<event>
 6    1  0.2047711E-005  0.8258054E+03  0.7818608E-02  0.9523398E-01
          2   -1    0    0  501    0  0.00000000000E+00  0.00000000000E+00  0.18732637417E+04  0.18732637417E+04  0.00000000000E+00 0. -1.
         -2   -1    0    0    0  501 -0.00000000000E+00 -0.00000000000E+00 -0.91011552203E+02  0.91011552203E+02  0.00000000000E+00 0.  1.
         23    2    1    2    0    0  0.13553077860E+03  0.25405051456E+03  0.21549137554E+03  0.37127507292E+03  0.92186717820E+02 0.  0.
         13    1    3    3    0    0  0.11704407863E+03  0.17356233178E+03  0.19521626669E+03  0.28623869434E+03  0.00000000000E+00 0. -1.
        -13    1    3    3    0    0  0.18486699970E+02  0.80488182785E+02  0.20275108849E+02  0.85036378584E+02  0.00000000000E+00 0.  1.
         22    1    1    2    0    0 -0.13553077860E+03 -0.25405051456E+03  0.15667608140E+04  0.15930002210E+04  0.00000000000E+00 0. -1.
<mgrwt>
<rscale>  0 0.82580540E+03</rscale>
<asrwt>0</asrwt>
<pdfrwt beam="1">  1        2 0.28819439E+00 0.82580540E+03</pdfrwt>
<pdfrwt beam="2">  1       -2 0.14001779E-01 0.82580540E+03</pdfrwt>
<totfact> 0.31382597E+02</totfact>
</mgrwt>
</event>
<event>
 6    1  0.2047711E-005  0.1751681E+04  0.7818608E-02  0.8732426E-01
         -2   -1    0    0    0  501 -0.00000000000E+00  0.00000000000E+00  0.60892607187E+03  0.60892607187E+03  0.00000000000E+00 0.  1.
          2   -1    0    0  501    0  0.00000000000E+00 -0.00000000000E+00 -0.12597529470E+04  0.12597529470E+04  0.00000000000E+00 0. -1.
         23    2    1    2    0    0  0.13364349695E+03  0.47258908221E+03 -0.10974200531E+04  0.12048669284E+04  0.78565370474E+02 0.  0.
         11    1    3    3    0    0  0.52354983247E+02  0.31266867992E+03 -0.73602764254E+03  0.80139842666E+03  0.00000000000E+00 0. -1.
        -11    1    3    3    0    0  0.81288513703E+02  0.15992040229E+03 -0.36139241056E+03  0.40346850179E+03  0.00000000000E+00 0.  1.
         22    1    1    2    0    0 -0.13364349695E+03 -0.47258908221E+03  0.44659317791E+03  0.66381209048E+03  0.00000000000E+00 0.  1.
<mgrwt>
<rscale>  0 0.17516808E+04</rscale>
<asrwt>0</asrwt>
<pdfrwt beam="1">  1        2 0.19380814E+00 0.17516808E+04</pdfrwt>
<pdfrwt beam="2">  1       -2 0.93680935E-01 0.17516808E+04</pdfrwt>
<totfact> 0.15931275E+01</totfact>
</mgrwt>
</event>
<event>
 6    1  0.2047711E-005  0.3028635E+04  0.7818608E-02  0.8235601E-01
          2   -1    0    0  501    0  0.00000000000E+00  0.00000000000E+00  0.14631276773E+04  0.14631276773E+04  0.00000000000E+00 0. -1.
         -2   -1    0    0    0  501 -0.00000000000E+00 -0.00000000000E+00 -0.15672987388E+04  0.15672987388E+04  0.00000000000E+00 0.  1.
         23    2    1    2    0    0 -0.62791429041E+03  0.13703389442E+04  0.77696868032E+02  0.15121441229E+04  0.91857863435E+02 0.  0.
         11    1    3    3    0    0 -0.52020008415E+03  0.10985500984E+04  0.29550388507E+02  0.12158510072E+04  0.00000000000E+00 0.  1.
        -11    1    3    3    0    0 -0.10771420626E+03  0.27178884575E+03  0.48146479525E+02  0.29629311567E+03  0.00000000000E+00 0. -1.
         22    1    1    2    0    0  0.62791429041E+03 -0.13703389442E+04 -0.18186792956E+03  0.15182822932E+04  0.00000000000E+00 0.  1.
<mgrwt>
<rscale>  0 0.30286354E+04</rscale>
<asrwt>0</asrwt>
<pdfrwt beam="1">  1        2 0.22509657E+00 0.30286354E+04</pdfrwt>
<pdfrwt beam="2">  1       -2 0.24112288E+00 0.30286354E+04</pdfrwt>
<totfact> 0.82923904E-01</totfact>
</mgrwt>
</event>
<event>
 6    1  0.2047711E-005  0.1883108E+04  0.7818608E-02  0.8663311E-01
         -2   -1    0    0    0  501 -0.00000000000E+00  0.00000000000E+00  0.38742908989E+03  0.38742908989E+03  0.00000000000E+00 0.  1.
          2   -1    0    0  501    0  0.00000000000E+00 -0.00000000000E+00 -0.22882213440E+04  0.22882213440E+04  0.00000000000E+00 0. -1.
         23    2    1    2    0    0 -0.37524502827E+03  0.51465189474E+03 -0.19337815197E+04  0.20378701460E+04  0.87911102226E+02 0.  0.
         13    1    3    3    0    0 -0.22043629229E+03  0.34588554720E+03 -0.11316527984E+04  0.12036889245E+04  0.00000000000E+00 0.  1.
        -13    1    3    3    0    0 -0.15480873599E+03  0.16876634755E+03 -0.80212872132E+03  0.83418122154E+03  0.00000000000E+00 0. -1.
         22    1    1    2    0    0  0.37524502827E+03 -0.51465189474E+03  0.32989265605E+02  0.63778028791E+03  0.00000000000E+00 0.  1.
<mgrwt>
<rscale>  0 0.18831076E+04</rscale>
<asrwt>0</asrwt>
<pdfrwt beam="1">  1        2 0.35203406E+00 0.18831076E+04</pdfrwt>
<pdfrwt beam="2">  1       -2 0.59604475E-01 0.18831076E+04</pdfrwt>
<totfact> 0.11343754E+01</totfact>
</mgrwt>
</event>
<event>
 6    1  0.2047711E-005  0.7158642E+03  0.7818608E-02  0.9690480E-01
          2   -1    0    0  501    0  0.00000000000E+00  0.00000000000E+00  0.18363285997E+03  0.18363285997E+03  0.00000000000E+00 0. -1.
         -2   -1    0    0    0  501 -0.00000000000E+00 -0.00000000000E+00 -0.69767145321E+03  0.69767145321E+03  0.00000000000E+00 0.  1.
         23    2    1    2    0    0  0.27522121976E+03  0.11662733408E+03 -0.49289240590E+03  0.58164481292E+03  0.77582921696E+02 0.  0.
         13    1    3    3    0    0  0.84660319538E+02  0.62476204062E+02 -0.12155268204E+03  0.16076597989E+03  0.00000000000E+00 0.  1.
        -13    1    3    3    0    0  0.19056090022E+03  0.54151130018E+02 -0.37133972386E+03  0.42087883303E+03  0.00000000000E+00 0. -1.
         22    1    1    2    0    0 -0.27522121976E+03 -0.11662733408E+03 -0.21146187343E+02  0.29965950026E+03  0.00000000000E+00 0. -1.
<mgrwt>
<rscale>  0 0.71586424E+03</rscale>
<asrwt>0</asrwt>
<pdfrwt beam="1">  1        2 0.28251208E-01 0.71586424E+03</pdfrwt>
<pdfrwt beam="2">  1       -2 0.10733407E+00 0.71586424E+03</pdfrwt>
<totfact> 0.13417587E+02</totfact>
</mgrwt>
</event>
<event>
 6    1  0.2047711E-005  0.1751135E+04  0.7818608E-02  0.8732726E-01
         -2   -1    0    0    0  501 -0.00000000000E+00  0.00000000000E+00  0.49843395880E+03  0.49843395880E+03  0.00000000000E+00 0.  1.
          2   -1    0    0  501    0  0.00000000000E+00 -0.00000000000E+00 -0.15380544544E+04  0.15380544544E+04  0.00000000000E+00 0. -1.
         23    2    1    2    0    0 -0.78377406762E+03 -0.30495972735E+03 -0.24811010203E+03  0.88158974773E+03  0.91321608572E+02 0.  0.
         13    1    3    3    0    0 -0.47295121001E+03 -0.22815470778E+03 -0.17119637510E+03  0.55230934863E+03  0.00000000000E+00 0. -1.
        -13    1    3    3    0    0 -0.31082285760E+03 -0.76805019576E+02 -0.76913726930E+02  0.32928039910E+03  0.00000000000E+00 0.  1.
         22    1    1    2    0    0  0.78377406762E+03  0.30495972735E+03 -0.79151039354E+03  0.11548986654E+04  0.00000000000E+00 0. -1.
<mgrwt>
<rscale>  0 0.17511351E+04</rscale>
<asrwt>0</asrwt>
<pdfrwt beam="1">  1        2 0.23662376E+00 0.17511351E+04</pdfrwt>
<pdfrwt beam="2">  1       -2 0.76682149E-01 0.17511351E+04</pdfrwt>
<totfact> 0.17402635E+01</totfact>
</mgrwt>
</event>
<event>
 6    1  0.2047711E-005  0.1537511E+04  0.7818608E-02  0.8859884E-01
         -2   -1    0    0    0  501 -0.00000000000E+00  0.00000000000E+00  0.66401948785E+03  0.66401948785E+03  0.00000000000E+00 0.  1.
          2   -1    0    0  501    0  0.00000000000E+00 -0.00000000000E+00 -0.89001194121E+03  0.89001194121E+03  0.00000000000E+00 0. -1.
         23    2    1    2    0    0 -0.61455751723E+03  0.28616733628E+03 -0.47376870391E+03  0.83225185283E+03  0.92809888477E+02 0.  0.
         11    1    3    3    0    0 -0.46908886015E+03  0.18764959833E+03 -0.38631124477E+03  0.63599772665E+03  0.00000000000E+00 0. -1.
        -11    1    3    3    0    0 -0.14546865708E+03  0.98517737951E+02 -0.87457459143E+02  0.19625412618E+03  0.00000000000E+00 0.  1.
         22    1    1    2    0    0  0.61455751723E+03 -0.28616733628E+03  0.24777625055E+03  0.72177957624E+03  0.00000000000E+00 0.  1.
<mgrwt>
<rscale>  0 0.15375113E+04</rscale>
<asrwt>0</asrwt>
<pdfrwt beam="1">  1        2 0.13692491E+00 0.15375113E+04</pdfrwt>
<pdfrwt beam="2">  1       -2 0.10215684E+00 0.15375113E+04</pdfrwt>
<totfact> 0.22532107E+01</totfact>
</mgrwt>
</event>
<event>
 6    1  0.2047711E-005  0.4241915E+04  0.7818608E-02  0.7957447E-01
          2   -1    0    0  501    0  0.00000000000E+00  0.00000000000E+00  0.18725751669E+04  0.18725751669E+04  0.00000000000E+00 0. -1.
         -2   -1    0    0    0  501 -0.00000000000E+00 -0.00000000000E+00 -0.24022855072E+04  0.24022855072E+04  0.00000000000E+00 0.  1.
         23    2    1    2    0    0 -0.17983660204E+04 -0.43504977825E+03  0.77789037343E+03  0.20092022093E+04  0.91604759414E+02 0.  0.
         13    1    3    3    0    0 -0.73068631001E+03 -0.15272645039E+03  0.27223344871E+03  0.79456837521E+03  0.00000000000E+00 0. -1.
        -13    1    3    3    0    0 -0.10676797104E+04 -0.28232332786E+03  0.50565692473E+03  0.12146338341E+04  0.00000000000E+00 0.  1.
         22    1    1    2    0    0  0.17983660204E+04  0.43504977825E+03 -0.13076007137E+04  0.22656584648E+04  0.00000000000E+00 0.  1.
<mgrwt>
<rscale>  0 0.42419147E+04</rscale>
<asrwt>0</asrwt>
<pdfrwt beam="1">  1        2 0.28808849E+00 0.42419147E+04</pdfrwt>
<pdfrwt beam="2">  1       -2 0.36958239E+00 0.42419147E+04</pdfrwt>
<totfact> 0.71059237E-02</totfact>
</mgrwt>
</event>
<event>
 6    1  0.2047711E-005  0.3443738E+04  0.7818608E-02  0.8127254E-01
          2   -1    0    0  501    0  0.00000000000E+00  0.00000000000E+00  0.28510288238E+04  0.28510288238E+04  0.00000000000E+00 0. -1.
         -2   -1    0    0    0  501 -0.00000000000E+00 -0.00000000000E+00 -0.10399170404E+04  0.10399170404E+04  0.00000000000E+00 0.  1.
         23    2    1    2    0    0 -0.77387530375E+03 -0.64482783442E+03  0.24822475507E+04  0.26805289360E+04  0.94850155439E+02 0.  0.
         11    1    3    3    0    0 -0.62421658496E+03 -0.52296458051E+03  0.19009667385E+04  0.20680456567E+04  0.00000000000E+00 0.  1.
        -11    1    3    3    0    0 -0.14965871879E+03 -0.12186325391E+03  0.58128081221E+03  0.61248327928E+03  0.00000000000E+00 0. -1.
         22    1    1    2    0    0  0.77387530375E+03  0.64482783442E+03 -0.67113576729E+03  0.12104169281E+04  0.00000000000E+00 0.  1.
<mgrwt>
<rscale>  0 0.34437384E+04</rscale>
<asrwt>0</asrwt>
<pdfrwt beam="1">  1        2 0.43861982E+00 0.34437384E+04</pdfrwt>
<pdfrwt beam="2">  1       -2 0.15998724E+00 0.34437384E+04</pdfrwt>
<totfact> 0.44753901E-01</totfact>
</mgrwt>
</event>
<event>
 6    1  0.2047711E-005  0.1779985E+04  0.7818608E-02  0.8717016E-01
         -3   -1    0    0    0  501 -0.00000000000E+00  0.00000000000E+00  0.15163655814E+04  0.15163655814E+04  0.00000000000E+00 0.  1.
          3   -1    0    0  501    0  0.00000000000E+00 -0.00000000000E+00 -0.52235877877E+03  0.52235877877E+03  0.00000000000E+00 0. -1.
         23    2    1    2    0    0  0.38848970088E+03 -0.61079371305E+03  0.10866695716E+04  0.13089438477E+04  0.92141364510E+02 0.  0.
         11    1    3    3    0    0  0.21144089683E+03 -0.24742502937E+03  0.49188496053E+03  0.58981116674E+03  0.00000000000E+00 0. -1.
        -11    1    3    3    0    0  0.17704880405E+03 -0.36336868368E+03  0.59478461106E+03  0.71913268098E+03  0.00000000000E+00 0.  1.
         22    1    1    2    0    0 -0.38848970088E+03  0.61079371305E+03 -0.92662768981E+02  0.72978051245E+03  0.00000000000E+00 0. -1.
<mgrwt>
<rscale>  0 0.17799853E+04</rscale>
<asrwt>0</asrwt>
<pdfrwt beam="1">  1        3 0.80362890E-01 0.17799853E+04</pdfrwt>
<pdfrwt beam="2">  1       -3 0.23328701E+00 0.17799853E+04</pdfrwt>
<totfact> 0.32663292E-01</totfact>
</mgrwt>
</event>
<event>
 6    1  0.2047711E-005  0.1826875E+04  0.7818608E-02  0.8692137E-01
          4   -1    0    0  501    0  0.00000000000E+00  0.00000000000E+00  0.12118036602E+04  0.12118036602E+04  0.00000000000E+00 0. -1.
         -4   -1    0    0    0  501 -0.00000000000E+00 -0.00000000000E+00 -0.68853416610E+03  0.68853416610E+03  0.00000000000E+00 0.  1.
         23    2    1    2    0    0 -0.78543711607E+03  0.20131724883E+03 -0.17003317835E+03  0.83351605413E+03  0.91638598753E+02 0.  0.
         11    1    3    3    0    0 -0.40783626718E+03  0.10762182900E+03 -0.41740966943E+02  0.42385750816E+03  0.00000000000E+00 0.  1.
        -11    1    3    3    0    0 -0.37760084889E+03  0.93695419840E+02 -0.12829221140E+03  0.40965854597E+03  0.00000000000E+00 0. -1.
         22    1    1    2    0    0  0.78543711607E+03 -0.20131724883E+03  0.69330267248E+03  0.10668217722E+04  0.00000000000E+00 0. -1.
<mgrwt>
<rscale>  0 0.18268752E+04</rscale>
<asrwt>0</asrwt>
<pdfrwt beam="1">  1        4 0.18643133E+00 0.18268752E+04</pdfrwt>
<pdfrwt beam="2">  1       -4 0.10592833E+00 0.18268752E+04</pdfrwt>
<totfact> 0.21989254E-01</totfact>
</mgrwt>
</event>
<event>
 6    1  0.2047711E-005  0.2356535E+04  0.7818608E-02  0.8455958E-01
          1   -1    0    0  501    0  0.00000000000E+00  0.00000000000E+00  0.47379293190E+03  0.47379293190E+03  0.00000000000E+00 0. -1.
         -1   -1    0    0    0  501 -0.00000000000E+00 -0.00000000000E+00 -0.29302127370E+04  0.29302127370E+04  0.00000000000E+00 0.  1.
         23    2    1    2    0    0 -0.46305847769E+03  0.45305133403E+03  0.18846793780E+03  0.68093574001E+03  0.92057880814E+02 0.  0.
         13    1    3    3    0    0 -0.20413676470E+03  0.23893109902E+03  0.53158858728E+02  0.31872519988E+03  0.00000000000E+00 0. -1.
        -13    1    3    3    0    0 -0.25892171300E+03  0.21412023501E+03  0.13530907907E+03  0.36221054013E+03  0.00000000000E+00 0.  1.
         22    1    1    2    0    0  0.46305847769E+03 -0.45305133403E+03 -0.26448877429E+04  0.27230699289E+04  0.00000000000E+00 0.  1.
<mgrwt>
<rscale>  0 0.23565348E+04</rscale>
<asrwt>0</asrwt>
<pdfrwt beam="1">  1        1 0.72891219E-01 0.23565348E+04</pdfrwt>
<pdfrwt beam="2">  1       -1 0.45080197E+00 0.23565348E+04</pdfrwt>
<totfact> 0.13708364E-01</totfact>
</mgrwt>
</event>
<event>
 6    1  0.2047711E-005  0.3657046E+04  0.7818608E-02  0.8077548E-01
          2   -1    0    0  501    0  0.00000000000E+00  0.00000000000E+00  0.30844257383E+04  0.30844257383E+04  0.00000000000E+00 0.  1.
         -2   -1    0    0    0  501 -0.00000000000E+00 -0.00000000000E+00 -0.10839929195E+04  0.10839929195E+04  0.00000000000E+00 0. -1.
         23    2    1    2    0    0 -0.12964901506E+03  0.86538822314E+03 -0.82773104060E+03  0.12079767212E+04  0.91451842854E+02 0.  0.
         11    1    3    3    0    0 -0.11900457504E+03  0.59963817771E+03 -0.53388406146E+03  0.81164045249E+03  0.00000000000E+00 0. -1.
        -11    1    3    3    0    0 -0.10644440019E+02  0.26575004543E+03 -0.29384697914E+03  0.39633626872E+03  0.00000000000E+00 0.  1.
         22    1    1    2    0    0  0.12964901506E+03 -0.86538822314E+03  0.28281638595E+04  0.29604419366E+04  0.00000000000E+00 0.  1.
<mgrwt>
<rscale>  0 0.36570456E+04</rscale>
<asrwt>0</asrwt>
<pdfrwt beam="1">  1        2 0.47452703E+00 0.36570456E+04</pdfrwt>
<pdfrwt beam="2">  1       -2 0.16676814E+00 0.36570456E+04</pdfrwt>
<totfact> 0.28056440E-01</totfact>
</mgrwt>
</event>
<event>
 6    1  0.2047711E-005  0.1454985E+04  0.7818608E-02  0.8914952E-01
         -1   -1    0    0    0  501 -0.00000000000E+00  0.00000000000E+00  0.15576767035E+03  0.15576767035E+03  0.00000000000E+00 0.  1.
          1   -1    0    0  501    0  0.00000000000E+00 -0.00000000000E+00 -0.33976563493E+04  0.33976563493E+04  0.00000000000E+00 0. -1.
         23    2    1    2    0    0  0.39017782965E+03 -0.44034791036E+03 -0.59227827120E+03  0.83927952575E+03  0.86322366131E+02 0.  0.
         13    1    3    3    0    0  0.31627318001E+03 -0.31067318377E+03 -0.47233445387E+03  0.64780119467E+03  0.00000000000E+00 0.  1.
        -13    1    3    3    0    0  0.73904649639E+02 -0.12967472660E+03 -0.11994381732E+03  0.19147833107E+03  0.00000000000E+00 0. -1.
         22    1    1    2    0    0 -0.39017782965E+03  0.44034791036E+03 -0.26496104078E+04  0.27141444939E+04  0.00000000000E+00 0. -1.
<mgrwt>
<rscale>  0 0.14549846E+04</rscale>
<asrwt>0</asrwt>
<pdfrwt beam="1">  1        1 0.52271632E+00 0.14549846E+04</pdfrwt>
<pdfrwt beam="2">  1       -1 0.23964259E-01 0.14549846E+04</pdfrwt>
<totfact> 0.44439053E+00</totfact>
</mgrwt>
</event>
<event>
 6    1  0.2047711E-005  0.8000342E+03  0.7818608E-02  0.9559968E-01
         -2   -1    0    0    0  501 -0.00000000000E+00  0.00000000000E+00  0.33823987481E+03  0.33823987481E+03  0.00000000000E+00 0.  1.
          2   -1    0    0  501    0  0.00000000000E+00 -0.00000000000E+00 -0.47307745903E+03  0.47307745903E+03  0.00000000000E+00 0. -1.
         23    2    1    2    0    0  0.31120247640E+03  0.17365698263E+03 -0.24062161519E+03  0.43957281116E+03  0.91223712307E+02 0.  0.
         11    1    3    3    0    0  0.54781426500E+02  0.37014749662E+02 -0.91775683422E+02  0.11311000155E+03  0.00000000000E+00 0.  1.
        -11    1    3    3    0    0  0.25642104990E+03  0.13664223297E+03 -0.14884593176E+03  0.32646280962E+03  0.00000000000E+00 0. -1.
         22    1    1    2    0    0 -0.31120247640E+03 -0.17365698263E+03  0.10578403097E+03  0.37174452268E+03  0.00000000000E+00 0.  1.
<mgrwt>
<rscale>  0 0.80003415E+03</rscale>
<asrwt>0</asrwt>
<pdfrwt beam="1">  1        2 0.72781147E-01 0.80003415E+03</pdfrwt>
<pdfrwt beam="2">  1       -2 0.52036904E-01 0.80003415E+03</pdfrwt>
<totfact> 0.23059635E+02</totfact>
</mgrwt>
</event>
<event>
 6    1  0.2047711E-005  0.7867505E+03  0.7818608E-02  0.9579396E-01
         -2   -1    0    0    0  501 -0.00000000000E+00  0.00000000000E+00  0.91211275613E+03  0.91211275613E+03  0.00000000000E+00 0.  1.
          2   -1    0    0  501    0  0.00000000000E+00 -0.00000000000E+00 -0.16965457056E+03  0.16965457056E+03  0.00000000000E+00 0. -1.
         23    2    1    2    0    0 -0.24338560623E+03  0.13383993390E+03  0.24141876517E+01  0.29131505103E+03  0.87800623165E+02 0.  0.
         11    1    3    3    0    0 -0.17495242199E+03  0.12519291378E+03  0.29630379550E+02  0.21716255435E+03  0.00000000000E+00 0.  1.
        -11    1    3    3    0    0 -0.68433184239E+02  0.86470201245E+01 -0.27216191898E+02  0.74152496678E+02  0.00000000000E+00 0. -1.
         22    1    1    2    0    0  0.24338560623E+03 -0.13383993390E+03  0.74004399792E+03  0.79045227565E+03  0.00000000000E+00 0.  1.
<mgrwt>
<rscale>  0 0.78675053E+03</rscale>
<asrwt>0</asrwt>
<pdfrwt beam="1">  1        2 0.26100704E-01 0.78675053E+03</pdfrwt>
<pdfrwt beam="2">  1       -2 0.14032504E+00 0.78675053E+03</pdfrwt>
<totfact> 0.75091119E+01</totfact>
</mgrwt>
</event>
<event>
 6    1  0.2047711E-005  0.6696429E+03  0.7818608E-02  0.9770603E-01
          2   -1    0    0  501    0  0.00000000000E+00  0.00000000000E+00  0.97495750036E+03  0.97495750036E+03  0.00000000000E+00 0. -1.
         -2   -1    0    0    0  501 -0.00000000000E+00 -0.00000000000E+00 -0.11498490825E+03  0.11498490825E+03  0.00000000000E+00 0.  1.
         23    2    1    2    0    0  0.12947591998E+03 -0.10495140496E+03  0.89896189202E+03  0.91877296984E+03  0.90732990391E+02 0.  0.
         13    1    3    3    0    0  0.47671477560E+02 -0.14692783605E+02  0.47636895767E+03  0.47897372735E+03  0.00000000000E+00 0.  1.
        -13    1    3    3    0    0  0.81804442422E+02 -0.90258621360E+02  0.42259293436E+03  0.43979924249E+03  0.00000000000E+00 0. -1.
         22    1    1    2    0    0 -0.12947591998E+03  0.10495140496E+03 -0.38989299922E+02  0.17116943877E+03  0.00000000000E+00 0.  1.
<mgrwt>
<rscale>  0 0.66964289E+03</rscale>
<asrwt>0</asrwt>
<pdfrwt beam="1">  1        2 0.14999346E+00 0.66964289E+03</pdfrwt>
<pdfrwt beam="2">  1       -2 0.17689987E-01 0.66964289E+03</pdfrwt>
<totfact> 0.69588535E+02</totfact>
</mgrwt>
</event>
<event>
 6    1  0.2047711E-005  0.2805282E+04  0.7818608E-02  0.8301630E-01
         -2   -1    0    0    0  501 -0.00000000000E+00  0.00000000000E+00  0.19486797032E+04  0.19486797032E+04  0.00000000000E+00 0.  1.
          2   -1    0    0  501    0  0.00000000000E+00 -0.00000000000E+00 -0.10096076610E+04  0.10096076610E+04  0.00000000000E+00 0. -1.
         23    2    1    2    0    0  0.66825471800E+03 -0.61414358519E+03  0.15958181225E+04  0.18379962747E+04  0.88646005550E+02 0.  0.
         13    1    3    3    0    0  0.21335573579E+03 -0.14722299350E+03  0.48975880418E+03  0.55412901573E+03  0.00000000000E+00 0. -1.
        -13    1    3    3    0    0  0.45489898221E+03 -0.46692059169E+03  0.11060593183E+04  0.12838672590E+04  0.00000000000E+00 0.  1.
         22    1    1    2    0    0 -0.66825471800E+03  0.61414358519E+03 -0.65674608027E+03  0.11202910895E+04  0.00000000000E+00 0. -1.
<mgrwt>
<rscale>  0 0.28052821E+04</rscale>
<asrwt>0</asrwt>
<pdfrwt beam="1">  1        2 0.15532426E+00 0.28052821E+04</pdfrwt>
<pdfrwt beam="2">  1       -2 0.29979688E+00 0.28052821E+04</pdfrwt>
<totfact> 0.68846490E-01</totfact>
</mgrwt>
</event>
<event>
 6    1  0.2047711E-005  0.2104555E+04  0.7818608E-02  0.8559239E-01
          2   -1    0    0  501    0  0.00000000000E+00  0.00000000000E+00  0.17420615061E+04  0.17420615061E+04  0.00000000000E+00 0. -1.
         -2   -1    0    0    0  501 -0.00000000000E+00 -0.00000000000E+00 -0.63561957354E+03  0.63561957354E+03  0.00000000000E+00 0.  1.
         23    2    1    2    0    0 -0.10259230597E+04  0.11283799948E+03  0.77368608848E+03  0.12932563518E+04  0.93119757852E+02 0.  0.
         13    1    3    3    0    0 -0.38243114343E+03  0.57480890414E+02  0.23754786417E+03  0.45385748865E+03  0.00000000000E+00 0.  1.
        -13    1    3    3    0    0 -0.64349191630E+03  0.55357109066E+02  0.53613822431E+03  0.83939886314E+03  0.00000000000E+00 0. -1.
         22    1    1    2    0    0  0.10259230597E+04 -0.11283799948E+03  0.33275584410E+03  0.10844247279E+04  0.00000000000E+00 0.  1.
<mgrwt>
<rscale>  0 0.21045554E+04</rscale>
<asrwt>0</asrwt>
<pdfrwt beam="1">  1        2 0.26800946E+00 0.21045554E+04</pdfrwt>
<pdfrwt beam="2">  1       -2 0.97787627E-01 0.21045554E+04</pdfrwt>
<totfact> 0.74548208E+00</totfact>
</mgrwt>
</event>
<event>
 6    1  0.2047711E-005  0.2950606E+04  0.7818608E-02  0.8257978E-01
          2   -1    0    0  501    0  0.00000000000E+00  0.00000000000E+00  0.19777724918E+04  0.19777724918E+04  0.00000000000E+00 0. -1.
         -2   -1    0    0    0  501 -0.00000000000E+00 -0.00000000000E+00 -0.11004897065E+04  0.11004897065E+04  0.00000000000E+00 0.  1.
         23    2    1    2    0    0  0.12296868372E+03 -0.14662771520E+04  0.34938353136E+03  0.15150067470E+04  0.89925566689E+02 0.  0.
         11    1    3    3    0    0  0.15202972310E+02 -0.71885824345E+03  0.17189388212E+03  0.73928060387E+03  0.00000000000E+00 0. -1.
        -11    1    3    3    0    0  0.10776571141E+03 -0.74741890859E+03  0.17748964924E+03  0.77572614309E+03  0.00000000000E+00 0.  1.
         22    1    1    2    0    0 -0.12296868372E+03  0.14662771520E+04  0.52789925400E+03  0.15632554513E+04  0.00000000000E+00 0.  1.
<mgrwt>
<rscale>  0 0.29506055E+04</rscale>
<asrwt>0</asrwt>
<pdfrwt beam="1">  1        2 0.30427269E+00 0.29506055E+04</pdfrwt>
<pdfrwt beam="2">  1       -2 0.16930611E+00 0.29506055E+04</pdfrwt>
<totfact> 0.12738041E+00</totfact>
</mgrwt>
</event>
<event>
 6    1  0.2047711E-005  0.2924530E+04  0.7818608E-02  0.8265616E-01
         -2   -1    0    0    0  501 -0.00000000000E+00  0.00000000000E+00  0.70810699565E+03  0.70810699565E+03  0.00000000000E+00 0.  1.
          2   -1    0    0  501    0  0.00000000000E+00 -0.00000000000E+00 -0.30196271495E+04  0.30196271495E+04  0.00000000000E+00 0. -1.
         23    2    1    2    0    0 -0.10236970283E+04  0.18827993587E+03 -0.24630879206E+04  0.26758892288E+04  0.10087675701E+03 0.  0.
         11    1    3    3    0    0 -0.18852148039E+03  0.34016358051E+02 -0.36023200536E+03  0.40800068489E+03  0.00000000000E+00 0.  1.
        -11    1    3    3    0    0 -0.83517554794E+03  0.15426357782E+03 -0.21028559152E+04  0.22678885439E+04  0.00000000000E+00 0. -1.
         22    1    1    2    0    0  0.10236970283E+04 -0.18827993587E+03  0.15156776679E+03  0.10518449163E+04  0.00000000000E+00 0.  1.
<mgrwt>
<rscale>  0 0.29245301E+04</rscale>
<asrwt>0</asrwt>
<pdfrwt beam="1">  1        2 0.46455801E+00 0.29245301E+04</pdfrwt>
<pdfrwt beam="2">  1       -2 0.10893954E+00 0.29245301E+04</pdfrwt>
<totfact> 0.97993202E-01</totfact>
</mgrwt>
</event>
<event>
 6    1  0.2047711E-005  0.3074739E+04  0.7818608E-02  0.8222705E-01
         -2   -1    0    0    0  501 -0.00000000000E+00  0.00000000000E+00  0.10071836585E+04  0.10071836585E+04  0.00000000000E+00 0.  1.
          2   -1    0    0  501    0  0.00000000000E+00 -0.00000000000E+00 -0.23466471010E+04  0.23466471010E+04  0.00000000000E+00 0. -1.
         23    2    1    2    0    0  0.11417040164E+04 -0.79703924382E+03 -0.13781947153E+04  0.19608986978E+04  0.83327141721E+02 0.  0.
         13    1    3    3    0    0  0.93263830678E+03 -0.67272884806E+03 -0.11733207061E+04  0.16428815519E+04  0.00000000000E+00 0.  1.
        -13    1    3    3    0    0  0.20906570959E+03 -0.12431039575E+03 -0.20487400914E+03  0.31801714582E+03  0.00000000000E+00 0. -1.
         22    1    1    2    0    0 -0.11417040164E+04  0.79703924382E+03  0.38731272806E+02  0.13929320618E+04  0.00000000000E+00 0.  1.
<mgrwt>
<rscale>  0 0.30747388E+04</rscale>
<asrwt>0</asrwt>
<pdfrwt beam="1">  1        2 0.36102263E+00 0.30747388E+04</pdfrwt>
<pdfrwt beam="2">  1       -2 0.15495133E+00 0.30747388E+04</pdfrwt>
<totfact> 0.99683666E-01</totfact>
</mgrwt>
</event>
<event>
 6    1  0.2047711E-005  0.2264107E+04  0.7818608E-02  0.8492209E-01
         -2   -1    0    0    0  501 -0.00000000000E+00  0.00000000000E+00  0.12861198971E+04  0.12861198971E+04  0.00000000000E+00 0.  1.
          2   -1    0    0  501    0  0.00000000000E+00 -0.00000000000E+00 -0.99644276288E+03  0.99644276288E+03  0.00000000000E+00 0. -1.
         23    2    1    2    0    0  0.19137325130E+02 -0.90652627555E+03 -0.53496400418E+03  0.10569244048E+04  0.93523185224E+02 0.  0.
         13    1    3    3    0    0  0.35274550611E+02 -0.46971758341E+03 -0.32291666898E+03  0.57109900822E+03  0.00000000000E+00 0.  1.
        -13    1    3    3    0    0 -0.16137225481E+02 -0.43680869214E+03 -0.21204733519E+03  0.48582539656E+03  0.00000000000E+00 0. -1.
         22    1    1    2    0    0 -0.19137325130E+02  0.90652627555E+03  0.82464113836E+03  0.12256382552E+04  0.00000000000E+00 0.  1.
<mgrwt>
<rscale>  0 0.22641068E+04</rscale>
<asrwt>0</asrwt>
<pdfrwt beam="1">  1        2 0.15329889E+00 0.22641068E+04</pdfrwt>
<pdfrwt beam="2">  1       -2 0.19786460E+00 0.22641068E+04</pdfrwt>
<totfact> 0.31623201E+00</totfact>
</mgrwt>
</event>
<event>
 6    1  0.2047711E-005  0.2543965E+04  0.7818608E-02  0.8387488E-01
         -4   -1    0    0    0  501 -0.00000000000E+00  0.00000000000E+00  0.17731086647E+04  0.17731086647E+04  0.00000000000E+00 0.  1.
          4   -1    0    0  501    0  0.00000000000E+00 -0.00000000000E+00 -0.91248782952E+03  0.91248782952E+03  0.00000000000E+00 0. -1.
         23    2    1    2    0    0 -0.11011457904E+04  0.15972730790E+03  0.10778298427E+04  0.15519234295E+04  0.93350397536E+02 0.  0.
         11    1    3    3    0    0 -0.38761846700E+03  0.41922064683E+02  0.31984654021E+03  0.50428894966E+03  0.00000000000E+00 0.  1.
        -11    1    3    3    0    0 -0.71352732340E+03  0.11780524321E+03  0.75798330246E+03  0.10476344798E+04  0.00000000000E+00 0. -1.
         22    1    1    2    0    0  0.11011457904E+04 -0.15972730790E+03 -0.21720900754E+03  0.11336730647E+04  0.00000000000E+00 0. -1.
<mgrwt>
<rscale>  0 0.25439655E+04</rscale>
<asrwt>0</asrwt>
<pdfrwt beam="1">  1        4 0.14038274E+00 0.25439655E+04</pdfrwt>
<pdfrwt beam="2">  1       -4 0.27278595E+00 0.25439655E+04</pdfrwt>
<totfact> 0.28675865E-02</totfact>
</mgrwt>
</event>
<event>
 6    1  0.2047711E-005  0.1490034E+04  0.7818608E-02  0.8891107E-01
         -2   -1    0    0    0  501 -0.00000000000E+00  0.00000000000E+00  0.61837277637E+03  0.61837277637E+03  0.00000000000E+00 0. -1.
          2   -1    0    0  501    0  0.00000000000E+00 -0.00000000000E+00 -0.89759828360E+03  0.89759828360E+03  0.00000000000E+00 0.  1.
         23    2    1    2    0    0 -0.50752795125E+02 -0.45389920976E+03  0.45508022519E+03  0.65121372551E+03  0.91547616590E+02 0.  0.
         11    1    3    3    0    0 -0.66572513260E+02 -0.35815001854E+03  0.31992339736E+03  0.48482400464E+03  0.00000000000E+00 0. -1.
        -11    1    3    3    0    0  0.15819718135E+02 -0.95749191220E+02  0.13515682783E+03  0.16638972087E+03  0.00000000000E+00 0.  1.
         22    1    1    2    0    0  0.50752795125E+02  0.45389920976E+03 -0.73430573242E+03  0.86475733445E+03  0.00000000000E+00 0.  1.
<mgrwt>
<rscale>  0 0.14900340E+04</rscale>
<asrwt>0</asrwt>
<pdfrwt beam="1">  1        2 0.13809204E+00 0.14900340E+04</pdfrwt>
<pdfrwt beam="2">  1       -2 0.95134274E-01 0.14900340E+04</pdfrwt>
<totfact> 0.26442042E+01</totfact>
</mgrwt>
</event>
<event>
 6    1  0.2047711E-005  0.3514777E+04  0.7818608E-02  0.8110297E-01
         -2   -1    0    0    0  501 -0.00000000000E+00  0.00000000000E+00  0.27287332960E+04  0.27287332960E+04  0.00000000000E+00 0.  1.
          2   -1    0    0  501    0  0.00000000000E+00 -0.00000000000E+00 -0.11318123385E+04  0.11318123385E+04  0.00000000000E+00 0. -1.
         23    2    1    2    0    0 -0.84609494019E+03 -0.65397214042E+03  0.23291889594E+04  0.25644852057E+04  0.88921050258E+02 0.  0.
         11    1    3    3    0    0 -0.26498158926E+03 -0.15523222678E+03  0.68746450473E+03  0.75294072286E+03  0.00000000000E+00 0.  1.
        -11    1    3    3    0    0 -0.58111335093E+03 -0.49873991365E+03  0.16417244547E+04  0.18115444828E+04  0.00000000000E+00 0. -1.
         22    1    1    2    0    0  0.84609494019E+03  0.65397214042E+03 -0.73226800194E+03  0.12960604287E+04  0.00000000000E+00 0. -1.
<mgrwt>
<rscale>  0 0.35147768E+04</rscale>
<asrwt>0</asrwt>
<pdfrwt beam="1">  1        2 0.17412498E+00 0.35147768E+04</pdfrwt>
<pdfrwt beam="2">  1       -2 0.41980512E+00 0.35147768E+04</pdfrwt>
<totfact> 0.93908648E-02</totfact>
</mgrwt>
</event>
<event>
 6    1  0.2047711E-005  0.4553538E+04  0.7818608E-02  0.7901330E-01
          2   -1    0    0  501    0  0.00000000000E+00  0.00000000000E+00  0.25201517192E+04  0.25201517192E+04  0.00000000000E+00 0. -1.
         -2   -1    0    0    0  501 -0.00000000000E+00 -0.00000000000E+00 -0.20568908121E+04  0.20568908121E+04  0.00000000000E+00 0.  1.
         23    2    1    2    0    0 -0.20624744401E+04  0.85003182619E+03 -0.22132312838E+03  0.22435879628E+04  0.91367926402E+02 0.  0.
         13    1    3    3    0    0 -0.19004159377E+04  0.77981817577E+03 -0.22828243322E+03  0.20668357441E+04  0.00000000000E+00 0.  1.
        -13    1    3    3    0    0 -0.16205850240E+03  0.70213650428E+02  0.69593048437E+01  0.17675221874E+03  0.00000000000E+00 0. -1.
         22    1    1    2    0    0  0.20624744401E+04 -0.85003182619E+03  0.68458403548E+03  0.23334545685E+04  0.00000000000E+00 0. -1.
<mgrwt>
<rscale>  0 0.45535379E+04</rscale>
<asrwt>0</asrwt>
<pdfrwt beam="1">  1        2 0.38771565E+00 0.45535379E+04</pdfrwt>
<pdfrwt beam="2">  1       -2 0.31644474E+00 0.45535379E+04</pdfrwt>
<totfact> 0.64384775E-02</totfact>
</mgrwt>
</event>
<event>
 6    1  0.2047711E-005  0.2959601E+04  0.7818608E-02  0.8255362E-01
          2   -1    0    0  501    0  0.00000000000E+00  0.00000000000E+00  0.22134905498E+04  0.22134905498E+04  0.00000000000E+00 0. -1.
         -2   -1    0    0    0  501 -0.00000000000E+00 -0.00000000000E+00 -0.98930156755E+03  0.98930156755E+03  0.00000000000E+00 0.  1.
         23    2    1    2    0    0 -0.10754840491E+04 -0.10116685447E+04  0.52964930922E+03  0.15710677100E+04  0.87098648170E+02 0.  0.
         13    1    3    3    0    0 -0.89382586315E+03 -0.83262817962E+03  0.47202058582E+03  0.13095792426E+04  0.00000000000E+00 0. -1.
        -13    1    3    3    0    0 -0.18165818598E+03 -0.17904036504E+03  0.57628723403E+02  0.26148846745E+03  0.00000000000E+00 0.  1.
         22    1    1    2    0    0  0.10754840491E+04  0.10116685447E+04  0.69453967308E+03  0.16317244074E+04  0.00000000000E+00 0.  1.
<mgrwt>
<rscale>  0 0.29596011E+04</rscale>
<asrwt>0</asrwt>
<pdfrwt beam="1">  1        2 0.34053701E+00 0.29596011E+04</pdfrwt>
<pdfrwt beam="2">  1       -2 0.15220024E+00 0.29596011E+04</pdfrwt>
<totfact> 0.12561086E+00</totfact>
</mgrwt>
</event>
<event>
 6    1  0.2047711E-005  0.1488255E+04  0.7818608E-02  0.8892301E-01
         -2   -1    0    0    0  501 -0.00000000000E+00  0.00000000000E+00  0.30624218965E+03  0.30624218965E+03  0.00000000000E+00 0.  1.
          2   -1    0    0  501    0  0.00000000000E+00 -0.00000000000E+00 -0.18081297792E+04  0.18081297792E+04  0.00000000000E+00 0. -1.
         23    2    1    2    0    0 -0.67521140908E+03  0.27724543769E+03 -0.93446960479E+03  0.11898512016E+04  0.98676035772E+02 0.  0.
         11    1    3    3    0    0 -0.15988077669E+03  0.69107804983E+02 -0.15936263425E+03  0.23608091973E+03  0.00000000000E+00 0. -1.
        -11    1    3    3    0    0 -0.51533063238E+03  0.20813763271E+03 -0.77510697054E+03  0.95377028188E+03  0.00000000000E+00 0.  1.
         22    1    1    2    0    0  0.67521140908E+03 -0.27724543769E+03 -0.56741798480E+03  0.92452076728E+03  0.00000000000E+00 0.  1.
<mgrwt>
<rscale>  0 0.14882548E+04</rscale>
<asrwt>0</asrwt>
<pdfrwt beam="1">  1        2 0.27817381E+00 0.14882548E+04</pdfrwt>
<pdfrwt beam="2">  1       -2 0.47114184E-01 0.14882548E+04</pdfrwt>
<totfact> 0.35262330E+01</totfact>
</mgrwt>
</event>
<event>
 6    1  0.2047711E-005  0.4340090E+03  0.7818608E-02  0.1032601E+00
         -2   -1    0    0    0  501 -0.00000000000E+00  0.00000000000E+00  0.86400692587E+02  0.86400692587E+02  0.00000000000E+00 0.  1.
          2   -1    0    0  501    0  0.00000000000E+00 -0.00000000000E+00 -0.54502990390E+03  0.54502990390E+03  0.00000000000E+00 0. -1.
         23    2    1    2    0    0 -0.11587316059E+03  0.50407820259E+01 -0.48985225023E+03  0.51131866124E+03  0.89663523511E+02 0.  0.
         13    1    3    3    0    0 -0.95088402487E+02 -0.15921384420E+02 -0.22446348747E+03  0.24429316809E+03  0.00000000000E+00 0. -1.
        -13    1    3    3    0    0 -0.20784758103E+02  0.20962166446E+02 -0.26538876276E+03  0.26702549315E+03  0.00000000000E+00 0.  1.
         22    1    1    2    0    0  0.11587316059E+03 -0.50407820259E+01  0.31223038920E+02  0.12011193524E+03  0.00000000000E+00 0.  1.
<mgrwt>
<rscale>  0 0.43400904E+03</rscale>
<asrwt>0</asrwt>
<pdfrwt beam="1">  1        2 0.83850754E-01 0.43400904E+03</pdfrwt>
<pdfrwt beam="2">  1       -2 0.13292414E-01 0.43400904E+03</pdfrwt>
<totfact> 0.23734092E+03</totfact>
</mgrwt>
</event>
<event>
 6    1  0.2047711E-005  0.2633081E+04  0.7818608E-02  0.8357050E-01
         -2   -1    0    0    0  501 -0.00000000000E+00  0.00000000000E+00  0.16142091592E+04  0.16142091592E+04  0.00000000000E+00 0. -1.
          2   -1    0    0  501    0  0.00000000000E+00 -0.00000000000E+00 -0.10737637708E+04  0.10737637708E+04  0.00000000000E+00 0.  1.
         23    2    1    2    0    0 -0.20572020510E+03  0.44453657370E+03  0.15166032874E+04  0.15958109402E+04  0.81200108005E+02 0.  0.
         13    1    3    3    0    0 -0.12448220595E+03  0.29328664231E+03  0.11001242098E+04  0.11453323322E+04  0.00000000000E+00 0.  1.
        -13    1    3    3    0    0 -0.81237999147E+02  0.15124993138E+03  0.41647907757E+03  0.45047860804E+03  0.00000000000E+00 0. -1.
         22    1    1    2    0    0  0.20572020510E+03 -0.44453657370E+03 -0.97615789902E+03  0.10921619898E+04  0.00000000000E+00 0.  1.
<mgrwt>
<rscale>  0 0.26330813E+04</rscale>
<asrwt>0</asrwt>
<pdfrwt beam="1">  1        2 0.16519443E+00 0.26330813E+04</pdfrwt>
<pdfrwt beam="2">  1       -2 0.24833987E+00 0.26330813E+04</pdfrwt>
<totfact> 0.13126834E+00</totfact>
</mgrwt>
</event>
<event>
 6    1  0.2047711E-005  0.1291505E+04  0.7818608E-02  0.9036329E-01
         -1   -1    0    0    0  501 -0.00000000000E+00  0.00000000000E+00  0.19670835408E+03  0.19670835408E+03  0.00000000000E+00 0. -1.
          1   -1    0    0  501    0  0.00000000000E+00 -0.00000000000E+00 -0.21198692226E+04  0.21198692226E+04  0.00000000000E+00 0.  1.
         23    2    1    2    0    0  0.44367436475E+03  0.29048974861E+03 -0.16172485540E+04  0.17043573711E+04  0.90055132608E+02 0.  0.
         11    1    3    3    0    0  0.35220254271E+03  0.19900004838E+03 -0.11300934766E+04  0.12003161734E+04  0.00000000000E+00 0. -1.
        -11    1    3    3    0    0  0.91471822038E+02  0.91489700229E+02 -0.48715507746E+03  0.50404119769E+03  0.00000000000E+00 0.  1.
         22    1    1    2    0    0 -0.44367436475E+03 -0.29048974861E+03 -0.30591231450E+03  0.61222020560E+03  0.00000000000E+00 0. -1.
<mgrwt>
<rscale>  0 0.12915045E+04</rscale>
<asrwt>0</asrwt>
<pdfrwt beam="1">  1        1 0.32613374E+00 0.12915045E+04</pdfrwt>
<pdfrwt beam="2">  1       -1 0.30262822E-01 0.12915045E+04</pdfrwt>
<totfact> 0.24453229E+01</totfact>
</mgrwt>
</event>
<event>
 6    1  0.2047711E-005  0.1954052E+04  0.7818608E-02  0.8628409E-01
          2   -1    0    0  501    0  0.00000000000E+00  0.00000000000E+00  0.10493899755E+04  0.10493899755E+04  0.00000000000E+00 0. -1.
         -2   -1    0    0    0  501 -0.00000000000E+00 -0.00000000000E+00 -0.90965177748E+03  0.90965177748E+03  0.00000000000E+00 0.  1.
         23    2    1    2    0    0 -0.27298307626E+03  0.49834973425E+03 -0.72419205273E+03  0.92499741365E+03  0.91070678397E+02 0.  0.
         11    1    3    3    0    0 -0.14789350600E+03  0.23646183733E+03 -0.42349295932E+03  0.50708281002E+03  0.00000000000E+00 0.  1.
        -11    1    3    3    0    0 -0.12508957026E+03  0.26188789693E+03 -0.30069909341E+03  0.41791460363E+03  0.00000000000E+00 0. -1.
         22    1    1    2    0    0  0.27298307626E+03 -0.49834973425E+03  0.86393025074E+03  0.10340443393E+04  0.00000000000E+00 0. -1.
<mgrwt>
<rscale>  0 0.19540516E+04</rscale>
<asrwt>0</asrwt>
<pdfrwt beam="1">  1        2 0.16144461E+00 0.19540516E+04</pdfrwt>
<pdfrwt beam="2">  1       -2 0.13994643E+00 0.19540516E+04</pdfrwt>
<totfact> 0.78546730E+00</totfact>
</mgrwt>
</event>
<event>
 6    1  0.2047711E-005  0.2691953E+04  0.7818608E-02  0.8337621E-01
         -2   -1    0    0    0  501 -0.00000000000E+00  0.00000000000E+00  0.79474122425E+03  0.79474122425E+03  0.00000000000E+00 0. -1.
          2   -1    0    0  501    0  0.00000000000E+00 -0.00000000000E+00 -0.22795496831E+04  0.22795496831E+04  0.00000000000E+00 0.  1.
         23    2    1    2    0    0  0.60997714375E+02 -0.13237604814E+04 -0.48422856071E+03  0.14138022245E+04  0.91087309400E+02 0.  0.
         13    1    3    3    0    0  0.35574916393E+02 -0.45800556955E+03 -0.21163556419E+03  0.50579075559E+03  0.00000000000E+00 0. -1.
        -13    1    3    3    0    0  0.25422797982E+02 -0.86575491181E+03 -0.27259299651E+03  0.90801146895E+03  0.00000000000E+00 0.  1.
         22    1    1    2    0    0 -0.60997714375E+02  0.13237604814E+04 -0.10005798981E+04  0.16604886828E+04  0.00000000000E+00 0. -1.
<mgrwt>
<rscale>  0 0.26919525E+04</rscale>
<asrwt>0</asrwt>
<pdfrwt beam="1">  1        2 0.35069995E+00 0.26919525E+04</pdfrwt>
<pdfrwt beam="2">  1       -2 0.12226788E+00 0.26919525E+04</pdfrwt>
<totfact> 0.20712935E+00</totfact>
</mgrwt>
</event>
<event>
 6    1  0.2047711E-005  0.4517616E+04  0.7818608E-02  0.7907560E-01
          2   -1    0    0  501    0  0.00000000000E+00  0.00000000000E+00  0.15326592123E+04  0.15326592123E+04  0.00000000000E+00 0. -1.
         -2   -1    0    0    0  501 -0.00000000000E+00 -0.00000000000E+00 -0.33289946676E+04  0.33289946676E+04  0.00000000000E+00 0.  1.
         23    2    1    2    0    0 -0.50274194558E+03  0.42446408135E+03 -0.32228870586E+04  0.32906768918E+04  0.92920359986E+02 0.  0.
         13    1    3    3    0    0 -0.47550334197E+03  0.37248733571E+03 -0.28615332706E+04  0.29245893562E+04  0.00000000000E+00 0. -1.
        -13    1    3    3    0    0 -0.27238603614E+02  0.51976745639E+02 -0.36135378798E+03  0.36608753558E+03  0.00000000000E+00 0.  1.
         22    1    1    2    0    0  0.50274194558E+03 -0.42446408135E+03  0.14265516034E+04  0.15709769881E+04  0.00000000000E+00 0. -1.
<mgrwt>
<rscale>  0 0.45176163E+04</rscale>
<asrwt>0</asrwt>
<pdfrwt beam="1">  1        2 0.23579373E+00 0.45176163E+04</pdfrwt>
<pdfrwt beam="2">  1       -2 0.51215302E+00 0.45176163E+04</pdfrwt>
<totfact> 0.12859729E-02</totfact>
</mgrwt>
</event>
<event>
 6    1  0.2047711E-005  0.7228348E+03  0.7818608E-02  0.9678959E-01
         -2   -1    0    0    0  501 -0.00000000000E+00  0.00000000000E+00  0.24810437643E+03  0.24810437643E+03  0.00000000000E+00 0.  1.
          2   -1    0    0  501    0  0.00000000000E+00 -0.00000000000E+00 -0.52648218498E+03  0.52648218498E+03  0.00000000000E+00 0. -1.
         23    2    1    2    0    0 -0.78794351258E+02 -0.10986148335E+03  0.21159079107E+03  0.26630777578E+03  0.88719069333E+02 0.  0.
         11    1    3    3    0    0 -0.84446716977E+02 -0.92081804270E+02  0.12139983518E+03  0.17420742426E+03  0.00000000000E+00 0. -1.
        -11    1    3    3    0    0  0.56523657193E+01 -0.17779679079E+02  0.90190955887E+02  0.92100351521E+02  0.00000000000E+00 0.  1.
         22    1    1    2    0    0  0.78794351258E+02  0.10986148335E+03 -0.48996859962E+03  0.50827878563E+03  0.00000000000E+00 0. -1.
<mgrwt>
<rscale>  0 0.72283479E+03</rscale>
<asrwt>0</asrwt>
<pdfrwt beam="1">  1        2 0.80997259E-01 0.72283479E+03</pdfrwt>
<pdfrwt beam="2">  1       -2 0.38169904E-01 0.72283479E+03</pdfrwt>
<totfact> 0.37844407E+02</totfact>
</mgrwt>
</event>
<event>
 6    1  0.2047711E-005  0.3203205E+04  0.7818608E-02  0.8187971E-01
         -2   -1    0    0    0  501 -0.00000000000E+00  0.00000000000E+00  0.18393694809E+04  0.18393694809E+04  0.00000000000E+00 0.  1.
          2   -1    0    0  501    0  0.00000000000E+00 -0.00000000000E+00 -0.13945708580E+04  0.13945708580E+04  0.00000000000E+00 0. -1.
         23    2    1    2    0    0  0.11941009393E+04  0.17582589331E+03  0.12837140933E+04  0.17640522601E+04  0.84656393638E+02 0.  0.
         11    1    3    3    0    0  0.40441774832E+03  0.91761846829E+02  0.40505785751E+03  0.57969459167E+03  0.00000000000E+00 0.  1.
        -11    1    3    3    0    0  0.78968319099E+03  0.84064046481E+02  0.87865623577E+03  0.11843576684E+04  0.00000000000E+00 0. -1.
         22    1    1    2    0    0 -0.11941009393E+04 -0.17582589331E+03 -0.83891547035E+03  0.14698880789E+04  0.00000000000E+00 0. -1.
<mgrwt>
<rscale>  0 0.32032053E+04</rscale>
<asrwt>0</asrwt>
<pdfrwt beam="1">  1        2 0.21454936E+00 0.32032053E+04</pdfrwt>
<pdfrwt beam="2">  1       -2 0.28297992E+00 0.32032053E+04</pdfrwt>
<totfact> 0.49549557E-01</totfact>
</mgrwt>
</event>
<event>
 6    1  0.2047711E-005  0.2684049E+04  0.7818608E-02  0.8340199E-01
         -2   -1    0    0    0  501 -0.00000000000E+00  0.00000000000E+00  0.78022404679E+03  0.78022404679E+03  0.00000000000E+00 0. -1.
          2   -1    0    0  501    0  0.00000000000E+00 -0.00000000000E+00 -0.23083499041E+04  0.23083499041E+04  0.00000000000E+00 0.  1.
         23    2    1    2    0    0 -0.17236067841E+03 -0.37544581657E+03  0.70200548631E+03  0.82050129455E+03  0.98706164509E+02 0.  0.
         13    1    3    3    0    0 -0.11238870500E+03 -0.26523417831E+03  0.56832627501E+03  0.63716178889E+03  0.00000000000E+00 0.  1.
        -13    1    3    3    0    0 -0.59971973411E+02 -0.11021163826E+03  0.13367921130E+03  0.18333950567E+03  0.00000000000E+00 0. -1.
         22    1    1    2    0    0  0.17236067841E+03  0.37544581657E+03 -0.22301313436E+04  0.22680726563E+04  0.00000000000E+00 0.  1.
<mgrwt>
<rscale>  0 0.26840493E+04</rscale>
<asrwt>0</asrwt>
<pdfrwt beam="1">  1        2 0.35513075E+00 0.26840493E+04</pdfrwt>
<pdfrwt beam="2">  1       -2 0.12003447E+00 0.26840493E+04</pdfrwt>
<totfact> 0.20899593E+00</totfact>
</mgrwt>
</event>
<event>
 6    1  0.2047711E-005  0.5981148E+04  0.7818608E-02  0.7692744E-01
         -2   -1    0    0    0  501 -0.00000000000E+00  0.00000000000E+00  0.26356291877E+04  0.26356291877E+04  0.00000000000E+00 0.  1.
          2   -1    0    0  501    0  0.00000000000E+00 -0.00000000000E+00 -0.33933199545E+04  0.33933199545E+04  0.00000000000E+00 0. -1.
         23    2    1    2    0    0 -0.28652934679E+03 -0.50139591188E+03 -0.33359483846E+04  0.33868081030E+04  0.91763689943E+02 0.  0.
         13    1    3    3    0    0 -0.12194270788E+03 -0.29713227166E+03 -0.17261053665E+04  0.17557327095E+04  0.00000000000E+00 0.  1.
        -13    1    3    3    0    0 -0.16458663891E+03 -0.20426364023E+03 -0.16098430181E+04  0.16310753935E+04  0.00000000000E+00 0. -1.
         22    1    1    2    0    0  0.28652934679E+03  0.50139591188E+03  0.25782576179E+04  0.26421410392E+04  0.00000000000E+00 0.  1.
<mgrwt>
<rscale>  0 0.59811481E+04</rscale>
<asrwt>0</asrwt>
<pdfrwt beam="1">  1        2 0.52204922E+00 0.59811481E+04</pdfrwt>
<pdfrwt beam="2">  1       -2 0.40548141E+00 0.59811481E+04</pdfrwt>
<totfact> 0.44373611E-03</totfact>
</mgrwt>
</event>
<event>
 6    1  0.2047711E-005  0.1718569E+04  0.7818608E-02  0.8750844E-01
         -2   -1    0    0    0  501 -0.00000000000E+00  0.00000000000E+00  0.60140072332E+03  0.60140072332E+03  0.00000000000E+00 0.  1.
          2   -1    0    0  501    0  0.00000000000E+00 -0.00000000000E+00 -0.12277507459E+04  0.12277507459E+04  0.00000000000E+00 0. -1.
         23    2    1    2    0    0  0.61942715857E+02 -0.81391256019E+03 -0.59252712856E+03  0.10121847968E+04  0.84493249390E+02 0.  0.
         13    1    3    3    0    0 -0.16516699406E+02 -0.31213844154E+03 -0.23610497562E+03  0.39172537262E+03  0.00000000000E+00 0. -1.
        -13    1    3    3    0    0  0.78459415263E+02 -0.50177411865E+03 -0.35642215294E+03  0.62045942422E+03  0.00000000000E+00 0.  1.
         22    1    1    2    0    0 -0.61942715857E+02  0.81391256019E+03 -0.33822894059E+02  0.81696667242E+03  0.00000000000E+00 0.  1.
<mgrwt>
<rscale>  0 0.17185694E+04</rscale>
<asrwt>0</asrwt>
<pdfrwt beam="1">  1        2 0.18888473E+00 0.17185694E+04</pdfrwt>
<pdfrwt beam="2">  1       -2 0.92523190E-01 0.17185694E+04</pdfrwt>
<totfact> 0.17174826E+01</totfact>
</mgrwt>
</event>
<event>
 6    1  0.2047711E-005  0.1915835E+04  0.7818608E-02  0.8647014E-01
          2   -1    0    0  501    0  0.00000000000E+00  0.00000000000E+00  0.23169229495E+04  0.23169229495E+04  0.00000000000E+00 0. -1.
         -2   -1    0    0    0  501 -0.00000000000E+00 -0.00000000000E+00 -0.39604505407E+03  0.39604505407E+03  0.00000000000E+00 0.  1.
         23    2    1    2    0    0  0.34818088294E+03 -0.85600846378E+03  0.61721740885E+03  0.11149970772E+04  0.90998544161E+02 0.  0.
         11    1    3    3    0    0  0.27774952619E+03 -0.57626858586E+03  0.41016386594E+03  0.75991096799E+03  0.00000000000E+00 0. -1.
        -11    1    3    3    0    0  0.70431356744E+02 -0.27973987792E+03  0.20705354292E+03  0.35508610920E+03  0.00000000000E+00 0.  1.
         22    1    1    2    0    0 -0.34818088294E+03  0.85600846378E+03  0.13036604866E+04  0.15979709264E+04  0.00000000000E+00 0.  1.
<mgrwt>
<rscale>  0 0.19158349E+04</rscale>
<asrwt>0</asrwt>
<pdfrwt beam="1">  1        2 0.35644968E+00 0.19158349E+04</pdfrwt>
<pdfrwt beam="2">  1       -2 0.60930010E-01 0.19158349E+04</pdfrwt>
<totfact> 0.10401093E+01</totfact>
</mgrwt>
</event>
<event>
 6    1  0.2381184E-005  0.2956892E+04  0.7818608E-02  0.8256149E-01
          2   -1    0    0  501    0  0.00000000000E+00  0.00000000000E+00  0.19880442605E+04  0.19880442605E+04  0.00000000000E+00 0. -1.
         -2   -1    0    0    0  501 -0.00000000000E+00 -0.00000000000E+00 -0.10994735101E+04  0.10994735101E+04  0.00000000000E+00 0.  1.
         23    2    1    2    0    0  0.11595972350E+04  0.82884189271E+03  0.85025368184E+03  0.16616451156E+04  0.80551450647E+02 0.  0.
         13    1    3    3    0    0  0.68243160360E+03  0.53409742892E+03  0.52930440415E+03  0.10154487232E+04  0.00000000000E+00 0.  1.
        -13    1    3    3    0    0  0.47716563138E+03  0.29474446379E+03  0.32094927769E+03  0.64619639240E+03  0.00000000000E+00 0. -1.
         22    1    1    2    0    0 -0.11595972350E+04 -0.82884189271E+03  0.38317068535E+02  0.14258726550E+04  0.00000000000E+00 0.  1.
<mgrwt>
<rscale>  0 0.29568916E+04</rscale>
<asrwt>0</asrwt>
<pdfrwt beam="1">  1        2 0.30585296E+00 0.29568916E+04</pdfrwt>
<pdfrwt beam="2">  1       -2 0.16914977E+00 0.29568916E+04</pdfrwt>
<totfact> 0.12597359E+00</totfact>
</mgrwt>
</event>
<event>
 6    1  0.2047711E-005  0.3776040E+04  0.7818608E-02  0.8051316E-01
          2   -1    0    0  501    0  0.00000000000E+00  0.00000000000E+00  0.28571516569E+04  0.28571516569E+04  0.00000000000E+00 0. -1.
         -2   -1    0    0    0  501 -0.00000000000E+00 -0.00000000000E+00 -0.12476133020E+04  0.12476133020E+04  0.00000000000E+00 0.  1.
         23    2    1    2    0    0 -0.15947909490E+04 -0.42328011283E+02  0.19006400184E+04  0.24830713966E+04  0.89784460388E+02 0.  0.
         11    1    3    3    0    0 -0.54135947173E+03 -0.10639559430E+02  0.71184971600E+03  0.89437872070E+03  0.00000000000E+00 0.  1.
        -11    1    3    3    0    0 -0.10534314773E+04 -0.31688451853E+02  0.11887903024E+04  0.15886926759E+04  0.00000000000E+00 0. -1.
         22    1    1    2    0    0  0.15947909490E+04  0.42328011283E+02 -0.29110166350E+03  0.16216935623E+04  0.00000000000E+00 0. -1.
<mgrwt>
<rscale>  0 0.37760405E+04</rscale>
<asrwt>0</asrwt>
<pdfrwt beam="1">  1        2 0.43956179E+00 0.37760405E+04</pdfrwt>
<pdfrwt beam="2">  1       -2 0.19194051E+00 0.37760405E+04</pdfrwt>
<totfact> 0.25784815E-01</totfact>
</mgrwt>
</event>
<event>
 6    1  0.2047711E-005  0.1591476E+04  0.7818608E-02  0.8825802E-01
         -2   -1    0    0    0  501 -0.00000000000E+00  0.00000000000E+00  0.62974239415E+03  0.62974239415E+03  0.00000000000E+00 0.  1.
          2   -1    0    0  501    0  0.00000000000E+00 -0.00000000000E+00 -0.10054888999E+04  0.10054888999E+04  0.00000000000E+00 0. -1.
         23    2    1    2    0    0 -0.38014751374E+03  0.40738907410E+03 -0.76857828866E+03  0.95347268610E+03  0.88992063911E+02 0.  0.
         13    1    3    3    0    0 -0.19546501037E+03  0.14568848390E+03 -0.34401770263E+03  0.42163951943E+03  0.00000000000E+00 0.  1.
        -13    1    3    3    0    0 -0.18468250337E+03  0.26170059020E+03 -0.42456058603E+03  0.53183316667E+03  0.00000000000E+00 0. -1.
         22    1    1    2    0    0  0.38014751374E+03 -0.40738907410E+03  0.39283178289E+03  0.68175860798E+03  0.00000000000E+00 0.  1.
<mgrwt>
<rscale>  0 0.15914760E+04</rscale>
<asrwt>0</asrwt>
<pdfrwt beam="1">  1        2 0.15469060E+00 0.15914760E+04</pdfrwt>
<pdfrwt beam="2">  1       -2 0.96883447E-01 0.15914760E+04</pdfrwt>
<totfact> 0.21343300E+01</totfact>
</mgrwt>
</event>
<event>
 6    1  0.2047711E-005  0.1369432E+04  0.7818608E-02  0.8976248E-01
          2   -1    0    0  501    0  0.00000000000E+00  0.00000000000E+00  0.61070394773E+03  0.61070394773E+03  0.00000000000E+00 0. -1.
         -2   -1    0    0    0  501 -0.00000000000E+00 -0.00000000000E+00 -0.76769731660E+03  0.76769731660E+03  0.00000000000E+00 0.  1.
         23    2    1    2    0    0 -0.37524874773E+03 -0.16093541291E+03  0.47039252598E+03  0.62985274161E+03  0.93453292144E+02 0.  0.
         11    1    3    3    0    0 -0.86256960850E+02 -0.48249989119E+01  0.65098605754E+02  0.10817288191E+03  0.00000000000E+00 0. -1.
        -11    1    3    3    0    0 -0.28899178688E+03 -0.15611041400E+03  0.40529392023E+03  0.52167985970E+03  0.00000000000E+00 0.  1.
         22    1    1    2    0    0  0.37524874773E+03  0.16093541291E+03 -0.62738589486E+03  0.74854852272E+03  0.00000000000E+00 0.  1.
<mgrwt>
<rscale>  0 0.13694317E+04</rscale>
<asrwt>0</asrwt>
<pdfrwt beam="1">  1        2 0.93954453E-01 0.13694317E+04</pdfrwt>
<pdfrwt beam="2">  1       -2 0.11810728E+00 0.13694317E+04</pdfrwt>
<totfact> 0.26149717E+01</totfact>
</mgrwt>
</event>
<event>
 6    1  0.2047711E-005  0.2631098E+04  0.7818608E-02  0.8357714E-01
         -2   -1    0    0    0  501 -0.00000000000E+00  0.00000000000E+00  0.61279561729E+03  0.61279561729E+03  0.00000000000E+00 0.  1.
          2   -1    0    0  501    0  0.00000000000E+00 -0.00000000000E+00 -0.28242198707E+04  0.28242198707E+04  0.00000000000E+00 0. -1.
         23    2    1    2    0    0  0.31869284180E+03 -0.10065490108E+04 -0.21288389333E+04  0.23779940653E+04  0.90523654847E+02 0.  0.
         11    1    3    3    0    0  0.95713838500E+02 -0.42601511270E+03 -0.93310459803E+03  0.10302107580E+04  0.00000000000E+00 0.  1.
        -11    1    3    3    0    0  0.22297900330E+03 -0.58053389810E+03 -0.11957343353E+04  0.13477833073E+04  0.00000000000E+00 0. -1.
         22    1    1    2    0    0 -0.31869284180E+03  0.10065490108E+04 -0.82585320073E+02  0.10590214227E+04  0.00000000000E+00 0.  1.
<mgrwt>
<rscale>  0 0.26310983E+04</rscale>
<asrwt>0</asrwt>
<pdfrwt beam="1">  1        2 0.43449536E+00 0.26310983E+04</pdfrwt>
<pdfrwt beam="2">  1       -2 0.94276250E-01 0.26310983E+04</pdfrwt>
<totfact> 0.18709444E+00</totfact>
</mgrwt>
</event>
<event>
 6    1  0.2047711E-005  0.1194596E+04  0.7818608E-02  0.9117600E-01
          2   -1    0    0  501    0  0.00000000000E+00  0.00000000000E+00  0.14243728390E+04  0.14243728390E+04  0.00000000000E+00 0. -1.
         -2   -1    0    0    0  501 -0.00000000000E+00 -0.00000000000E+00 -0.25047167270E+03  0.25047167270E+03  0.00000000000E+00 0.  1.
         23    2    1    2    0    0  0.25788657601E+03 -0.19149155183E+03  0.12894257225E+04  0.13334936313E+04  0.11140947107E+03 0.  0.
         11    1    3    3    0    0  0.14118092347E+03 -0.17053198817E+03  0.84624395704E+03  0.87472398330E+03  0.00000000000E+00 0.  1.
        -11    1    3    3    0    0  0.11670565254E+03 -0.20959563651E+02  0.44318176547E+03  0.45876964796E+03  0.00000000000E+00 0. -1.
         22    1    1    2    0    0 -0.25788657601E+03  0.19149155183E+03 -0.11552455619E+03  0.34135088046E+03  0.00000000000E+00 0.  1.
<mgrwt>
<rscale>  0 0.11945962E+04</rscale>
<asrwt>0</asrwt>
<pdfrwt beam="1">  1        2 0.21913428E+00 0.11945962E+04</pdfrwt>
<pdfrwt beam="2">  1       -2 0.38534104E-01 0.11945962E+04</pdfrwt>
<totfact> 0.87945796E+01</totfact>
</mgrwt>
</event>
<event>
 6    1  0.2047711E-005  0.7716563E+03  0.7818608E-02  0.9601974E-01
          2   -1    0    0  501    0  0.00000000000E+00  0.00000000000E+00  0.12574404294E+04  0.12574404294E+04  0.00000000000E+00 0. -1.
         -2   -1    0    0    0  501 -0.00000000000E+00 -0.00000000000E+00 -0.11838602650E+03  0.11838602650E+03  0.00000000000E+00 0.  1.
         23    2    1    2    0    0  0.36028901234E+03  0.83978507506E+02  0.41933939301E+03  0.56659826954E+03  0.91255193708E+02 0.  0.
         13    1    3    3    0    0  0.22190686810E+03  0.96629603782E+02  0.26226614285E+03  0.35688018735E+03  0.00000000000E+00 0. -1.
        -13    1    3    3    0    0  0.13838214424E+03 -0.12651096277E+02  0.15707325015E+03  0.20971808218E+03  0.00000000000E+00 0.  1.
         22    1    1    2    0    0 -0.36028901234E+03 -0.83978507506E+02  0.71971500990E+03  0.80922818637E+03  0.00000000000E+00 0. -1.
<mgrwt>
<rscale>  0 0.77165634E+03</rscale>
<asrwt>0</asrwt>
<pdfrwt beam="1">  1        2 0.19345236E+00 0.77165634E+03</pdfrwt>
<pdfrwt beam="2">  1       -2 0.18213236E-01 0.77165634E+03</pdfrwt>
<totfact> 0.44331650E+02</totfact>
</mgrwt>
</event>
<event>
 6    1  0.2047711E-005  0.1537522E+04  0.7818608E-02  0.8859878E-01
          2   -1    0    0  501    0  0.00000000000E+00  0.00000000000E+00  0.67822226967E+03  0.67822226967E+03  0.00000000000E+00 0. -1.
         -2   -1    0    0    0  501 -0.00000000000E+00 -0.00000000000E+00 -0.87138613258E+03  0.87138613258E+03  0.00000000000E+00 0.  1.
         23    2    1    2    0    0  0.23707413126E+03  0.22685758536E+03  0.60072956183E+03  0.69057680935E+03  0.91388267264E+02 0.  0.
         11    1    3    3    0    0  0.13876251413E+02  0.25959788468E+02  0.16639515413E+02  0.33813228828E+02  0.00000000000E+00 0. -1.
        -11    1    3    3    0    0  0.22319787985E+03  0.20089779690E+03  0.58409004642E+03  0.65676358052E+03  0.00000000000E+00 0.  1.
         22    1    1    2    0    0 -0.23707413126E+03 -0.22685758536E+03 -0.79389342475E+03  0.85903159290E+03  0.00000000000E+00 0.  1.
<mgrwt>
<rscale>  0 0.15375220E+04</rscale>
<asrwt>0</asrwt>
<pdfrwt beam="1">  1        2 0.10434189E+00 0.15375220E+04</pdfrwt>
<pdfrwt beam="2">  1       -2 0.13405941E+00 0.15375220E+04</pdfrwt>
<totfact> 0.16493734E+01</totfact>
</mgrwt>
</event>
<event>
 6    1  0.2047711E-005  0.2172032E+04  0.7818608E-02  0.8530160E-01
          2   -1    0    0  501    0  0.00000000000E+00  0.00000000000E+00  0.43381613826E+04  0.43381613826E+04  0.00000000000E+00 0. -1.
         -2   -1    0    0    0  501 -0.00000000000E+00 -0.00000000000E+00 -0.27187330086E+03  0.27187330086E+03  0.00000000000E+00 0.  1.
         23    2    1    2    0    0 -0.25864577698E+03  0.88262751556E+03  0.32547299991E+04  0.33834314507E+04  0.91717202611E+02 0.  0.
         11    1    3    3    0    0 -0.10703946308E+03  0.40954839423E+03  0.13375897943E+04  0.14029731970E+04  0.00000000000E+00 0. -1.
        -11    1    3    3    0    0 -0.15160631389E+03  0.47307912133E+03  0.19171402048E+04  0.19804582537E+04  0.00000000000E+00 0.  1.
         22    1    1    2    0    0  0.25864577698E+03 -0.88262751556E+03  0.81155808263E+03  0.12266032328E+04  0.00000000000E+00 0.  1.
<mgrwt>
<rscale>  0 0.21720315E+04</rscale>
<asrwt>0</asrwt>
<pdfrwt beam="1">  1        2 0.66740939E+00 0.21720315E+04</pdfrwt>
<pdfrwt beam="2">  1       -2 0.41826665E-01 0.21720315E+04</pdfrwt>
<totfact> 0.87835874E-01</totfact>
</mgrwt>
</event>
<event>
 6    1  0.2059362E-005  0.2338003E+04  0.7818608E-02  0.8463086E-01
         -2   -1    0    0    0  501 -0.00000000000E+00  0.00000000000E+00  0.63463385796E+03  0.63463385796E+03  0.00000000000E+00 0.  1.
          2   -1    0    0  501    0  0.00000000000E+00 -0.00000000000E+00 -0.21533122032E+04  0.21533122032E+04  0.00000000000E+00 0. -1.
         23    2    1    2    0    0 -0.86788738383E+03 -0.31373842795E+03  0.91607934324E+02  0.93196055089E+03  0.92185370771E+02 0.  0.
         11    1    3    3    0    0 -0.33501187768E+03 -0.16373197857E+03  0.15900642509E+02  0.37322104633E+03  0.00000000000E+00 0.  1.
        -11    1    3    3    0    0 -0.53287550616E+03 -0.15000644938E+03  0.75707291815E+02  0.55873950456E+03  0.00000000000E+00 0. -1.
         22    1    1    2    0    0  0.86788738383E+03  0.31373842795E+03 -0.16102862796E+04  0.18559855103E+04  0.00000000000E+00 0.  1.
<mgrwt>
<rscale>  0 0.23380033E+04</rscale>
<asrwt>0</asrwt>
<pdfrwt beam="1">  1        2 0.33127880E+00 0.23380033E+04</pdfrwt>
<pdfrwt beam="2">  1       -2 0.97635979E-01 0.23380033E+04</pdfrwt>
<totfact> 0.43326996E+00</totfact>
</mgrwt>
</event>
<event>
 6    1  0.2047711E-005  0.2828215E+04  0.7818608E-02  0.8294562E-01
         -1   -1    0    0    0  501 -0.00000000000E+00  0.00000000000E+00  0.20875083662E+04  0.20875083662E+04  0.00000000000E+00 0.  1.
          1   -1    0    0  501    0  0.00000000000E+00 -0.00000000000E+00 -0.95793606635E+03  0.95793606635E+03  0.00000000000E+00 0. -1.
         23    2    1    2    0    0  0.76540301486E+03  0.54942136389E+03 -0.56805541983E+03  0.11038869431E+04  0.90409141571E+02 0.  0.
         13    1    3    3    0    0  0.58492018625E+03  0.42812721417E+03 -0.39180662466E+03  0.82397631454E+03  0.00000000000E+00 0. -1.
        -13    1    3    3    0    0  0.18048282861E+03  0.12129414973E+03 -0.17624879517E+03  0.27991062856E+03  0.00000000000E+00 0.  1.
         22    1    1    2    0    0 -0.76540301486E+03 -0.54942136389E+03  0.16976277196E+04  0.19415574894E+04  0.00000000000E+00 0.  1.
<mgrwt>
<rscale>  0 0.28282147E+04</rscale>
<asrwt>0</asrwt>
<pdfrwt beam="1">  1        1 0.14737478E+00 0.28282147E+04</pdfrwt>
<pdfrwt beam="2">  1       -1 0.32115513E+00 0.28282147E+04</pdfrwt>
<totfact> 0.33929993E-01</totfact>
</mgrwt>
</event>
<event>
 6    1  0.2047711E-005  0.2381256E+03  0.7818608E-02  0.1121048E+00
         -2   -1    0    0    0  501 -0.00000000000E+00  0.00000000000E+00  0.27843608721E+02  0.27843608721E+02  0.00000000000E+00 0.  1.
          2   -1    0    0  501    0  0.00000000000E+00 -0.00000000000E+00 -0.50912769794E+03  0.50912769794E+03  0.00000000000E+00 0. -1.
         23    2    1    2    0    0 -0.12444704073E+02  0.64409620269E+02 -0.89282509748E+02  0.13951853192E+03  0.84797313398E+02 0.  0.
         11    1    3    3    0    0 -0.26547595933E+02 -0.33563530006E+01 -0.26956383788E+00  0.26760280640E+02  0.00000000000E+00 0.  1.
        -11    1    3    3    0    0  0.14102891860E+02  0.67765973269E+02 -0.89012945910E+02  0.11275825128E+03  0.00000000000E+00 0. -1.
         22    1    1    2    0    0  0.12444704073E+02 -0.64409620269E+02 -0.39200157947E+03  0.39745277474E+03  0.00000000000E+00 0.  1.
<mgrwt>
<rscale>  0 0.23812562E+03</rscale>
<asrwt>0</asrwt>
<pdfrwt beam="1">  1        2 0.78327331E-01 0.23812562E+03</pdfrwt>
<pdfrwt beam="2">  1       -2 0.42836325E-02 0.23812562E+03</pdfrwt>
<totfact> 0.14884926E+04</totfact>
</mgrwt>
</event>
<event>
 6    1  0.2047711E-005  0.2937240E+04  0.7818608E-02  0.8261883E-01
          1   -1    0    0  501    0  0.00000000000E+00  0.00000000000E+00  0.16585930290E+04  0.16585930290E+04  0.00000000000E+00 0. -1.
         -1   -1    0    0    0  501 -0.00000000000E+00 -0.00000000000E+00 -0.13004066571E+04  0.13004066571E+04  0.00000000000E+00 0.  1.
         23    2    1    2    0    0 -0.13465754469E+03  0.75943943310E+03 -0.10781328438E+04  0.13286948692E+04  0.90436273585E+02 0.  0.
         13    1    3    3    0    0 -0.12893138978E+03  0.56697617749E+03 -0.85487672604E+03  0.10338759625E+04  0.00000000000E+00 0.  1.
        -13    1    3    3    0    0 -0.57261549037E+01  0.19246325561E+03 -0.22325611776E+03  0.29481890666E+03  0.00000000000E+00 0. -1.
         22    1    1    2    0    0  0.13465754469E+03 -0.75943943310E+03  0.14363192156E+04  0.16303048169E+04  0.00000000000E+00 0. -1.
<mgrwt>
<rscale>  0 0.29372405E+04</rscale>
<asrwt>0</asrwt>
<pdfrwt beam="1">  1        1 0.25516816E+00 0.29372405E+04</pdfrwt>
<pdfrwt beam="2">  1       -1 0.20006256E+00 0.29372405E+04</pdfrwt>
<totfact> 0.65446605E-01</totfact>
</mgrwt>
</event>
<event>
 6    1  0.2047711E-005  0.2082679E+04  0.7818608E-02  0.8568912E-01
         -2   -1    0    0    0  501 -0.00000000000E+00  0.00000000000E+00  0.10864052388E+04  0.10864052388E+04  0.00000000000E+00 0.  1.
          2   -1    0    0  501    0  0.00000000000E+00 -0.00000000000E+00 -0.99814285570E+03  0.99814285570E+03  0.00000000000E+00 0. -1.
         23    2    1    2    0    0 -0.15620140869E+02 -0.81993418682E+03 -0.59487500234E+03  0.10172089980E+04  0.91114310938E+02 0.  0.
         11    1    3    3    0    0 -0.20245615540E+02 -0.12754945343E+03 -0.12987790541E+03  0.18315845144E+03  0.00000000000E+00 0. -1.
        -11    1    3    3    0    0  0.46254746714E+01 -0.69238473339E+03 -0.46499709693E+03  0.83405054655E+03  0.00000000000E+00 0.  1.
         22    1    1    2    0    0  0.15620140869E+02  0.81993418682E+03  0.68313738541E+03  0.10673390965E+04  0.00000000000E+00 0.  1.
<mgrwt>
<rscale>  0 0.20826787E+04</rscale>
<asrwt>0</asrwt>
<pdfrwt beam="1">  1        2 0.15356044E+00 0.20826787E+04</pdfrwt>
<pdfrwt beam="2">  1       -2 0.16713927E+00 0.20826787E+04</pdfrwt>
<totfact> 0.52069009E+00</totfact>
</mgrwt>
</event>
<event>
 6    1  0.2047711E-005  0.2906571E+04  0.7818608E-02  0.8270925E-01
          2   -1    0    0  501    0  0.00000000000E+00  0.00000000000E+00  0.36929763058E+04  0.36929763058E+04  0.00000000000E+00 0. -1.
         -2   -1    0    0    0  501 -0.00000000000E+00 -0.00000000000E+00 -0.57190678370E+03  0.57190678370E+03  0.00000000000E+00 0.  1.
         23    2    1    2    0    0 -0.12686812714E+04  0.49421964108E+03  0.23015156120E+04  0.26757091426E+04  0.92952037223E+02 0.  0.
         13    1    3    3    0    0 -0.57408878015E+03  0.17688406760E+03  0.10432162678E+04  0.12038131426E+04  0.00000000000E+00 0.  1.
        -13    1    3    3    0    0 -0.69459249129E+03  0.31733557347E+03  0.12582993442E+04  0.14718960000E+04  0.00000000000E+00 0. -1.
         22    1    1    2    0    0  0.12686812714E+04 -0.49421964108E+03  0.81955391015E+03  0.15891739470E+04  0.00000000000E+00 0.  1.
<mgrwt>
<rscale>  0 0.29065706E+04</rscale>
<asrwt>0</asrwt>
<pdfrwt beam="1">  1        2 0.56815019E+00 0.29065706E+04</pdfrwt>
<pdfrwt beam="2">  1       -2 0.87985661E-01 0.29065706E+04</pdfrwt>
<totfact> 0.56710067E-01</totfact>
</mgrwt>
</event>
<event>
 6    1  0.2047711E-005  0.2228245E+04  0.7818608E-02  0.8506763E-01
          1   -1    0    0  501    0  0.00000000000E+00  0.00000000000E+00  0.10701816699E+04  0.10701816699E+04  0.00000000000E+00 0. -1.
         -1   -1    0    0    0  501 -0.00000000000E+00 -0.00000000000E+00 -0.11598671755E+04  0.11598671755E+04  0.00000000000E+00 0.  1.
         23    2    1    2    0    0 -0.42593784051E+03  0.96017631368E+03  0.32104269442E+03  0.11021928033E+04  0.91645876875E+02 0.  0.
         11    1    3    3    0    0 -0.22040029385E+03  0.38551825434E+03  0.13199816256E+03  0.46327543522E+03  0.00000000000E+00 0.  1.
        -11    1    3    3    0    0 -0.20553754666E+03  0.57465805934E+03  0.18904453186E+03  0.63891736811E+03  0.00000000000E+00 0. -1.
         22    1    1    2    0    0  0.42593784051E+03 -0.96017631368E+03 -0.41072820010E+03  0.11278560421E+04  0.00000000000E+00 0.  1.
<mgrwt>
<rscale>  0 0.22282447E+04</rscale>
<asrwt>0</asrwt>
<pdfrwt beam="1">  1        1 0.16464333E+00 0.22282447E+04</pdfrwt>
<pdfrwt beam="2">  1       -1 0.17844110E+00 0.22282447E+04</pdfrwt>
<totfact> 0.25942543E+00</totfact>
</mgrwt>
</event>
<event>
 6    1  0.2047711E-005  0.2629404E+04  0.7818608E-02  0.8358281E-01
         -2   -1    0    0    0  501 -0.00000000000E+00  0.00000000000E+00  0.56061325964E+03  0.56061325964E+03  0.00000000000E+00 0.  1.
          2   -1    0    0  501    0  0.00000000000E+00 -0.00000000000E+00 -0.30831260206E+04  0.30831260206E+04  0.00000000000E+00 0. -1.
         23    2    1    2    0    0 -0.12843596830E+04  0.21028776805E+03 -0.15075195733E+04  0.19932811888E+04  0.82182071639E+02 0.  0.
         13    1    3    3    0    0 -0.77480053191E+03  0.94482060882E+02 -0.94025466760E+03  0.12220153698E+04  0.00000000000E+00 0. -1.
        -13    1    3    3    0    0 -0.50955915111E+03  0.11580570716E+03 -0.56726490574E+03  0.77126581901E+03  0.00000000000E+00 0.  1.
         22    1    1    2    0    0  0.12843596830E+04 -0.21028776805E+03 -0.10149931876E+04  0.16504580915E+04  0.00000000000E+00 0.  1.
<mgrwt>
<rscale>  0 0.26294040E+04</rscale>
<asrwt>0</asrwt>
<pdfrwt beam="1">  1        2 0.47432708E+00 0.26294040E+04</pdfrwt>
<pdfrwt beam="2">  1       -2 0.86248195E-01 0.26294040E+04</pdfrwt>
<totfact> 0.15863751E+00</totfact>
</mgrwt>
</event>
<event>
 6    1  0.2047711E-005  0.3371914E+04  0.7818608E-02  0.8144834E-01
         -2   -1    0    0    0  501 -0.00000000000E+00  0.00000000000E+00  0.25287966472E+04  0.25287966472E+04  0.00000000000E+00 0.  1.
          2   -1    0    0  501    0  0.00000000000E+00 -0.00000000000E+00 -0.11240333231E+04  0.11240333231E+04  0.00000000000E+00 0. -1.
         23    2    1    2    0    0  0.75255926467E+03  0.91092248414E+02  0.23327857027E+04  0.24545525485E+04  0.91081471193E+02 0.  0.
         13    1    3    3    0    0  0.53613995825E+03  0.10613518117E+03  0.16621744461E+04  0.17497241556E+04  0.00000000000E+00 0.  1.
        -13    1    3    3    0    0  0.21641930643E+03 -0.15042932755E+02  0.67061125657E+03  0.70482839292E+03  0.00000000000E+00 0. -1.
         22    1    1    2    0    0 -0.75255926467E+03 -0.91092248414E+02 -0.92802237858E+03  0.11982774218E+04  0.00000000000E+00 0. -1.
<mgrwt>
<rscale>  0 0.33719144E+04</rscale>
<asrwt>0</asrwt>
<pdfrwt beam="1">  1        2 0.17292820E+00 0.33719144E+04</pdfrwt>
<pdfrwt beam="2">  1       -2 0.38904564E+00 0.33719144E+04</pdfrwt>
<totfact> 0.15284704E-01</totfact>
</mgrwt>
</event>
<event>
 6    1  0.2047711E-005  0.1323221E+04  0.7818608E-02  0.9011351E-01
         -2   -1    0    0    0  501 -0.00000000000E+00  0.00000000000E+00  0.75440220568E+03  0.75440220568E+03  0.00000000000E+00 0.  1.
          2   -1    0    0  501    0  0.00000000000E+00 -0.00000000000E+00 -0.58023244896E+03  0.58023244896E+03  0.00000000000E+00 0. -1.
         23    2    1    2    0    0  0.22059333443E+03 -0.17266598021E+03  0.68849010601E+03  0.74897231027E+03  0.92010518763E+02 0.  0.
         11    1    3    3    0    0  0.33224257430E+02 -0.56513836027E+02  0.24631980143E+03  0.25489431049E+03  0.00000000000E+00 0.  1.
        -11    1    3    3    0    0  0.18736907700E+03 -0.11615214418E+03  0.44217030458E+03  0.49407799978E+03  0.00000000000E+00 0. -1.
         22    1    1    2    0    0 -0.22059333443E+03  0.17266598021E+03 -0.51432034929E+03  0.58566234437E+03  0.00000000000E+00 0. -1.
<mgrwt>
<rscale>  0 0.13232213E+04</rscale>
<asrwt>0</asrwt>
<pdfrwt beam="1">  1        2 0.89266531E-01 0.13232213E+04</pdfrwt>
<pdfrwt beam="2">  1       -2 0.11606188E+00 0.13232213E+04</pdfrwt>
<totfact> 0.29133372E+01</totfact>
</mgrwt>
</event>
<event>
 6    1  0.2047711E-005  0.5313821E+04  0.7818608E-02  0.7781840E-01
         -2   -1    0    0    0  501 -0.00000000000E+00  0.00000000000E+00  0.24701548433E+04  0.24701548433E+04  0.00000000000E+00 0.  1.
          2   -1    0    0  501    0  0.00000000000E+00 -0.00000000000E+00 -0.28577860470E+04  0.28577860470E+04  0.00000000000E+00 0. -1.
         23    2    1    2    0    0  0.26253388429E+04 -0.25221795024E+03  0.12147327650E+03  0.26418274701E+04  0.92079803024E+02 0.  0.
         11    1    3    3    0    0  0.61292245034E+03 -0.80483446885E+02 -0.40876012745E+01  0.61819756052E+03  0.00000000000E+00 0. -1.
        -11    1    3    3    0    0  0.20124163926E+04 -0.17173450336E+03  0.12556087778E+03  0.20236299095E+04  0.00000000000E+00 0.  1.
         22    1    1    2    0    0 -0.26253388429E+04  0.25221795024E+03 -0.50910448021E+03  0.26861134202E+04  0.00000000000E+00 0.  1.
<mgrwt>
<rscale>  0 0.53138212E+04</rscale>
<asrwt>0</asrwt>
<pdfrwt beam="1">  1        2 0.43965939E+00 0.53138212E+04</pdfrwt>
<pdfrwt beam="2">  1       -2 0.38002382E+00 0.53138212E+04</pdfrwt>
<totfact> 0.15161382E-02</totfact>
</mgrwt>
</event>
<event>
 6    1  0.2047711E-005  0.1814059E+04  0.7818608E-02  0.8698858E-01
         -2   -1    0    0    0  501 -0.00000000000E+00  0.00000000000E+00  0.28292692563E+03  0.28292692563E+03  0.00000000000E+00 0. -1.
          2   -1    0    0  501    0  0.00000000000E+00 -0.00000000000E+00 -0.29078275126E+04  0.29078275126E+04  0.00000000000E+00 0.  1.
         23    2    1    2    0    0 -0.79111190121E+03  0.40260516700E+03 -0.10087784500E+04  0.13468998555E+04  0.92500263574E+02 0.  0.
         11    1    3    3    0    0 -0.69708071729E+03  0.32135034974E+03 -0.88498551254E+03  0.11714891938E+04  0.00000000000E+00 0. -1.
        -11    1    3    3    0    0 -0.94031183921E+02  0.81254817258E+02 -0.12379293745E+03  0.17541066171E+03  0.00000000000E+00 0.  1.
         22    1    1    2    0    0  0.79111190121E+03 -0.40260516700E+03 -0.16161221370E+04  0.18438545828E+04  0.00000000000E+00 0.  1.
<mgrwt>
<rscale>  0 0.18140592E+04</rscale>
<asrwt>0</asrwt>
<pdfrwt beam="1">  1        2 0.44735810E+00 0.18140592E+04</pdfrwt>
<pdfrwt beam="2">  1       -2 0.43527217E-01 0.18140592E+04</pdfrwt>
<totfact> 0.94068360E+00</totfact>
</mgrwt>
</event>
<event>
 6    1  0.2047711E-005  0.4322875E+04  0.7818608E-02  0.7942402E-01
         -2   -1    0    0    0  501 -0.00000000000E+00  0.00000000000E+00  0.19083111590E+04  0.19083111590E+04  0.00000000000E+00 0.  1.
          2   -1    0    0  501    0  0.00000000000E+00 -0.00000000000E+00 -0.24481392328E+04  0.24481392328E+04  0.00000000000E+00 0. -1.
         23    2    1    2    0    0 -0.32197917765E+03  0.10149066274E+04  0.16243866303E+04  0.19444944764E+04  0.93385175718E+02 0.  0.
         13    1    3    3    0    0 -0.19478015740E+03  0.65481193458E+03  0.96197176100E+03  0.11798761157E+04  0.00000000000E+00 0. -1.
        -13    1    3    3    0    0 -0.12719902025E+03  0.36009469277E+03  0.66241486926E+03  0.76461836071E+03  0.00000000000E+00 0.  1.
         22    1    1    2    0    0  0.32197917765E+03 -0.10149066274E+04 -0.21642147041E+04  0.24119559155E+04  0.00000000000E+00 0. -1.
<mgrwt>
<rscale>  0 0.43228747E+04</rscale>
<asrwt>0</asrwt>
<pdfrwt beam="1">  1        2 0.37663680E+00 0.43228747E+04</pdfrwt>
<pdfrwt beam="2">  1       -2 0.29358633E+00 0.43228747E+04</pdfrwt>
<totfact> 0.99740019E-02</totfact>
</mgrwt>
</event>
<event>
 6    1  0.2047711E-005  0.2874946E+04  0.7818608E-02  0.8280371E-01
         -2   -1    0    0    0  501 -0.00000000000E+00  0.00000000000E+00  0.71017091222E+03  0.71017091222E+03  0.00000000000E+00 0.  1.
          2   -1    0    0  501    0  0.00000000000E+00 -0.00000000000E+00 -0.29096207510E+04  0.29096207510E+04  0.00000000000E+00 0. -1.
         23    2    1    2    0    0 -0.95588329408E+03 -0.13545113740E+03  0.23727878143E+03  0.99877921551E+03  0.95910472322E+02 0.  0.
         11    1    3    3    0    0 -0.30329796004E+03  0.15755325591E+01  0.79613709736E+02  0.31357690866E+03  0.00000000000E+00 0. -1.
        -11    1    3    3    0    0 -0.65258533404E+03 -0.13702666996E+03  0.15766507169E+03  0.68520230685E+03  0.00000000000E+00 0.  1.
         22    1    1    2    0    0  0.95588329408E+03  0.13545113740E+03 -0.24367286202E+04  0.26210124477E+04  0.00000000000E+00 0. -1.
<mgrwt>
<rscale>  0 0.28749456E+04</rscale>
<asrwt>0</asrwt>
<pdfrwt beam="1">  1        2 0.44763397E+00 0.28749456E+04</pdfrwt>
<pdfrwt beam="2">  1       -2 0.10925706E+00 0.28749456E+04</pdfrwt>
<totfact> 0.11441957E+00</totfact>
</mgrwt>
</event>
<event>
 6    1  0.2047711E-005  0.1519716E+04  0.7818608E-02  0.8871447E-01
         -2   -1    0    0    0  501 -0.00000000000E+00  0.00000000000E+00  0.42944140850E+03  0.42944140850E+03  0.00000000000E+00 0.  1.
          2   -1    0    0  501    0  0.00000000000E+00 -0.00000000000E+00 -0.13444998004E+04  0.13444998004E+04  0.00000000000E+00 0. -1.
         23    2    1    2    0    0  0.30615096986E+03 -0.53803393827E+03 -0.96784447410E+03  0.11526560042E+04  0.93187997715E+02 0.  0.
         13    1    3    3    0    0  0.19990653403E+03 -0.26103310704E+03 -0.53282928169E+03  0.62610538150E+03  0.00000000000E+00 0. -1.
        -13    1    3    3    0    0  0.10624443583E+03 -0.27700083123E+03 -0.43501519241E+03  0.52655062271E+03  0.00000000000E+00 0.  1.
         22    1    1    2    0    0 -0.30615096986E+03  0.53803393827E+03  0.52786082205E+02  0.62128520468E+03  0.00000000000E+00 0.  1.
<mgrwt>
<rscale>  0 0.15197156E+04</rscale>
<asrwt>0</asrwt>
<pdfrwt beam="1">  1        2 0.20684612E+00 0.15197156E+04</pdfrwt>
<pdfrwt beam="2">  1       -2 0.66067909E-01 0.15197156E+04</pdfrwt>
<totfact> 0.31672086E+01</totfact>
</mgrwt>
</event>
<event>
 6    1  0.2047711E-005  0.2902990E+04  0.7818608E-02  0.8271988E-01
         -2   -1    0    0    0  501 -0.00000000000E+00  0.00000000000E+00  0.94639704653E+03  0.94639704653E+03  0.00000000000E+00 0.  1.
          2   -1    0    0  501    0  0.00000000000E+00 -0.00000000000E+00 -0.22261670192E+04  0.22261670192E+04  0.00000000000E+00 0. -1.
         23    2    1    2    0    0  0.40743091346E+03 -0.12206445112E+04 -0.13708493864E+04  0.18824987838E+04  0.92739737934E+02 0.  0.
         11    1    3    3    0    0  0.60997556270E+02 -0.30657031607E+03 -0.34132083740E+03  0.46282391317E+03  0.00000000000E+00 0.  1.
        -11    1    3    3    0    0  0.34643335719E+03 -0.91407419514E+03 -0.10295285490E+04  0.14196748706E+04  0.00000000000E+00 0. -1.
         22    1    1    2    0    0 -0.40743091346E+03  0.12206445112E+04  0.91079413691E+02  0.12900652819E+04  0.00000000000E+00 0.  1.
<mgrwt>
<rscale>  0 0.29029901E+04</rscale>
<asrwt>0</asrwt>
<pdfrwt beam="1">  1        2 0.34248723E+00 0.29029901E+04</pdfrwt>
<pdfrwt beam="2">  1       -2 0.14559955E+00 0.29029901E+04</pdfrwt>
<totfact> 0.13959667E+00</totfact>
</mgrwt>
</event>
<event>
 6    1  0.2047711E-005  0.4617162E+04  0.7818608E-02  0.7890440E-01
          2   -1    0    0  501    0  0.00000000000E+00  0.00000000000E+00  0.17570641975E+04  0.17570641975E+04  0.00000000000E+00 0. -1.
         -2   -1    0    0    0  501 -0.00000000000E+00 -0.00000000000E+00 -0.30332114164E+04  0.30332114164E+04  0.00000000000E+00 0.  1.
         23    2    1    2    0    0 -0.95208187367E+01  0.16917232723E+04  0.99002518860E+03  0.19622806252E+04  0.91526508706E+02 0.  0.
         11    1    3    3    0    0 -0.40799397776E+02  0.39956691947E+03  0.22865722908E+03  0.46217144265E+03  0.00000000000E+00 0. -1.
        -11    1    3    3    0    0  0.31278579039E+02  0.12921563528E+04  0.76136795953E+03  0.15001091825E+04  0.00000000000E+00 0.  1.
         22    1    1    2    0    0  0.95208187367E+01 -0.16917232723E+04 -0.22661724075E+04  0.28279949888E+04  0.00000000000E+00 0.  1.
<mgrwt>
<rscale>  0 0.46171624E+04</rscale>
<asrwt>0</asrwt>
<pdfrwt beam="1">  1        2 0.27031757E+00 0.46171624E+04</pdfrwt>
<pdfrwt beam="2">  1       -2 0.46664790E+00 0.46171624E+04</pdfrwt>
<totfact> 0.18497698E-02</totfact>
</mgrwt>
</event>
<event>
 6    1  0.2047711E-005  0.3282033E+04  0.7818608E-02  0.8167482E-01
          2   -1    0    0  501    0  0.00000000000E+00  0.00000000000E+00  0.16761236510E+04  0.16761236510E+04  0.00000000000E+00 0. -1.
         -2   -1    0    0    0  501 -0.00000000000E+00 -0.00000000000E+00 -0.16066447169E+04  0.16066447169E+04  0.00000000000E+00 0.  1.
         23    2    1    2    0    0 -0.13022692890E+04  0.81756646746E+03 -0.53475561303E+03  0.16306728447E+04  0.93862297681E+02 0.  0.
         11    1    3    3    0    0 -0.10731876218E+04  0.71428272272E+03 -0.44270485297E+03  0.13630550489E+04  0.00000000000E+00 0.  1.
        -11    1    3    3    0    0 -0.22908166727E+03  0.10328374474E+03 -0.92050760057E+02  0.26761779581E+03  0.00000000000E+00 0. -1.
         22    1    1    2    0    0  0.13022692890E+04 -0.81756646746E+03  0.60423454710E+03  0.16520955232E+04  0.00000000000E+00 0. -1.
<mgrwt>
<rscale>  0 0.32820330E+04</rscale>
<asrwt>0</asrwt>
<pdfrwt beam="1">  1        2 0.25786518E+00 0.32820330E+04</pdfrwt>
<pdfrwt beam="2">  1       -2 0.24717611E+00 0.32820330E+04</pdfrwt>
<totfact> 0.56576060E-01</totfact>
</mgrwt>
</event>
<event>
 6    1  0.3562956E-005  0.2348048E+04  0.7818608E-02  0.8459214E-01
         -1   -1    0    0    0  501 -0.00000000000E+00  0.00000000000E+00  0.89086520067E+03  0.89086520067E+03  0.00000000000E+00 0.  1.
          1   -1    0    0  501    0  0.00000000000E+00 -0.00000000000E+00 -0.15471844622E+04  0.15471844622E+04  0.00000000000E+00 0. -1.
         23    2    1    2    0    0 -0.63274615602E+03  0.74660373287E+02  0.69305525951E+03  0.94581862601E+03  0.91134029140E+02 0.  0.
         11    1    3    3    0    0 -0.42902716614E+03  0.82439367962E+01  0.47437253013E+03  0.63965738417E+03  0.00000000000E+00 0. -1.
        -11    1    3    3    0    0 -0.20371898988E+03  0.66416436491E+02  0.21868272938E+03  0.30616124184E+03  0.00000000000E+00 0.  1.
         22    1    1    2    0    0  0.63274615602E+03 -0.74660373287E+02 -0.13493745210E+04  0.14922310368E+04  0.00000000000E+00 0. -1.
<mgrwt>
<rscale>  0 0.23480484E+04</rscale>
<asrwt>0</asrwt>
<pdfrwt beam="1">  1        1 0.23802838E+00 0.23480484E+04</pdfrwt>
<pdfrwt beam="2">  1       -1 0.13705619E+00 0.23480484E+04</pdfrwt>
<totfact> 0.24198604E+00</totfact>
</mgrwt>
</event>
<event>
 6    1  0.2047711E-005  0.1225364E+04  0.7818608E-02  0.9090940E-01
          2   -1    0    0  501    0  0.00000000000E+00  0.00000000000E+00  0.52566183167E+03  0.52566183167E+03  0.00000000000E+00 0.  1.
         -2   -1    0    0    0  501 -0.00000000000E+00 -0.00000000000E+00 -0.71410835548E+03  0.71410835548E+03  0.00000000000E+00 0. -1.
         23    2    1    2    0    0 -0.59309444021E+03  0.38164401935E+02 -0.23093575654E+03  0.64393222976E+03  0.89999201603E+02 0.  0.
         13    1    3    3    0    0 -0.28248041897E+03 -0.45523245640E+01 -0.15111851581E+03  0.32039462633E+03  0.00000000000E+00 0.  1.
        -13    1    3    3    0    0 -0.31061402124E+03  0.42716726499E+02 -0.79817240725E+02  0.32353760343E+03  0.00000000000E+00 0. -1.
         22    1    1    2    0    0  0.59309444021E+03 -0.38164401935E+02  0.42489232727E+02  0.59583795740E+03  0.00000000000E+00 0.  1.
<mgrwt>
<rscale>  0 0.12253644E+04</rscale>
<asrwt>0</asrwt>
<pdfrwt beam="1">  1        2 0.80871051E-01 0.12253644E+04</pdfrwt>
<pdfrwt beam="2">  1       -2 0.10986282E+00 0.12253644E+04</pdfrwt>
<totfact> 0.37702590E+01</totfact>
</mgrwt>
</event>
<event>
 6    1  0.2047711E-005  0.2322375E+04  0.7818608E-02  0.8469151E-01
          2   -1    0    0  501    0  0.00000000000E+00  0.00000000000E+00  0.13690955123E+04  0.13690955123E+04  0.00000000000E+00 0. -1.
         -2   -1    0    0    0  501 -0.00000000000E+00 -0.00000000000E+00 -0.98485171697E+03  0.98485171697E+03  0.00000000000E+00 0.  1.
         23    2    1    2    0    0  0.16855123399E+02  0.39875660405E+03 -0.91091259957E+03  0.99869042271E+03  0.91268131917E+02 0.  0.
         13    1    3    3    0    0  0.24824476448E+02  0.26243097463E+03 -0.69395085527E+03  0.74233015606E+03  0.00000000000E+00 0. -1.
        -13    1    3    3    0    0 -0.79693530484E+01  0.13632562942E+03 -0.21696174431E+03  0.25636026665E+03  0.00000000000E+00 0.  1.
         22    1    1    2    0    0 -0.16855123399E+02 -0.39875660405E+03  0.12951563949E+04  0.13552568065E+04  0.00000000000E+00 0. -1.
<mgrwt>
<rscale>  0 0.23223747E+04</rscale>
<asrwt>0</asrwt>
<pdfrwt beam="1">  1        2 0.21063008E+00 0.23223747E+04</pdfrwt>
<pdfrwt beam="2">  1       -2 0.15151565E+00 0.23223747E+04</pdfrwt>
<totfact> 0.39801574E+00</totfact>
</mgrwt>
</event>
<event>
 6    1  0.2047711E-005  0.1091184E+04  0.7818608E-02  0.9213828E-01
          2   -1    0    0  501    0  0.00000000000E+00  0.00000000000E+00  0.12442263742E+03  0.12442263742E+03  0.00000000000E+00 0. -1.
         -2   -1    0    0    0  501 -0.00000000000E+00 -0.00000000000E+00 -0.23924136661E+04  0.23924136661E+04  0.00000000000E+00 0.  1.
         23    2    1    2    0    0  0.46226913369E+03 -0.26216126754E+03 -0.13848389615E+04  0.14861186623E+04  0.91369836153E+02 0.  0.
         13    1    3    3    0    0  0.30124317988E+03 -0.17205802510E+03 -0.77791033404E+03  0.85176047410E+03  0.00000000000E+00 0.  1.
        -13    1    3    3    0    0  0.16102595382E+03 -0.90103242440E+02 -0.60692862749E+03  0.63435818822E+03  0.00000000000E+00 0. -1.
         22    1    1    2    0    0 -0.46226913369E+03  0.26216126754E+03 -0.88315206712E+03  0.10307176412E+04  0.00000000000E+00 0. -1.
<mgrwt>
<rscale>  0 0.10911836E+04</rscale>
<asrwt>0</asrwt>
<pdfrwt beam="1">  1        2 0.19141947E-01 0.10911836E+04</pdfrwt>
<pdfrwt beam="2">  1       -2 0.36806358E+00 0.10911836E+04</pdfrwt>
<totfact> 0.36333031E+00</totfact>
</mgrwt>
</event>
<event>
 6    1  0.2047711E-005  0.2045811E+04  0.7818608E-02  0.8585497E-01
         -1   -1    0    0    0  501 -0.00000000000E+00  0.00000000000E+00  0.46264614742E+03  0.46264614742E+03  0.00000000000E+00 0.  1.
          1   -1    0    0  501    0  0.00000000000E+00 -0.00000000000E+00 -0.22616327927E+04  0.22616327927E+04  0.00000000000E+00 0. -1.
         23    2    1    2    0    0 -0.89669188843E+03  0.34668283253E+03 -0.13576927511E+04  0.16664577690E+04  0.97501590248E+02 0.  0.
         13    1    3    3    0    0 -0.20778948108E+03  0.94922399465E+02 -0.39339110394E+03  0.45491020106E+03  0.00000000000E+00 0. -1.
        -13    1    3    3    0    0 -0.68890240735E+03  0.25176043307E+03 -0.96430164720E+03  0.12115475679E+04  0.00000000000E+00 0.  1.
         22    1    1    2    0    0  0.89669188843E+03 -0.34668283253E+03 -0.44129389415E+03  0.10578211712E+04  0.00000000000E+00 0.  1.
<mgrwt>
<rscale>  0 0.20458110E+04</rscale>
<asrwt>0</asrwt>
<pdfrwt beam="1">  1        1 0.34794350E+00 0.20458110E+04</pdfrwt>
<pdfrwt beam="2">  1       -1 0.71176331E-01 0.20458110E+04</pdfrwt>
<totfact> 0.36423301E+00</totfact>
</mgrwt>
</event>
<event>
 6    1  0.2047711E-005  0.5912144E+04  0.7818608E-02  0.7701391E-01
          2   -1    0    0  501    0  0.00000000000E+00  0.00000000000E+00  0.36702338866E+04  0.36702338866E+04  0.00000000000E+00 0. -1.
         -2   -1    0    0    0  501 -0.00000000000E+00 -0.00000000000E+00 -0.23808730207E+04  0.23808730207E+04  0.00000000000E+00 0.  1.
         23    2    1    2    0    0  0.67809006787E+03  0.26380261589E+04  0.18186993149E+04  0.32763659557E+04  0.88986080100E+02 0.  0.
         13    1    3    3    0    0  0.47724714718E+03  0.20070687856E+04  0.13679369664E+04  0.24753467422E+04  0.00000000000E+00 0.  1.
        -13    1    3    3    0    0  0.20084292069E+03  0.63095737325E+03  0.45076234847E+03  0.80101921353E+03  0.00000000000E+00 0. -1.
         22    1    1    2    0    0 -0.67809006787E+03 -0.26380261589E+04 -0.52933844894E+03  0.27747409516E+04  0.00000000000E+00 0.  1.
<mgrwt>
<rscale>  0 0.59121437E+04</rscale>
<asrwt>0</asrwt>
<pdfrwt beam="1">  1        2 0.56465137E+00 0.59121437E+04</pdfrwt>
<pdfrwt beam="2">  1       -2 0.36628816E+00 0.59121437E+04</pdfrwt>
<totfact> 0.50878224E-03</totfact>
</mgrwt>
</event>
<event>
 6    1  0.2047711E-005  0.4298393E+04  0.7818608E-02  0.7946915E-01
         -2   -1    0    0    0  501 -0.00000000000E+00  0.00000000000E+00  0.21359039467E+04  0.21359039467E+04  0.00000000000E+00 0.  1.
          2   -1    0    0  501    0  0.00000000000E+00 -0.00000000000E+00 -0.21625719248E+04  0.21625719248E+04  0.00000000000E+00 0. -1.
         23    2    1    2    0    0  0.12927569711E+04 -0.61781911582E+03  0.15871509895E+04  0.21403904453E+04  0.96446611463E+02 0.  0.
         13    1    3    3    0    0  0.69265883320E+03 -0.35092474664E+03  0.79316035645E+03  0.11099674716E+04  0.00000000000E+00 0. -1.
        -13    1    3    3    0    0  0.60009813790E+03 -0.26689436918E+03  0.79399063303E+03  0.10304229737E+04  0.00000000000E+00 0.  1.
         22    1    1    2    0    0 -0.12927569711E+04  0.61781911582E+03 -0.16138189676E+04  0.21580854261E+04  0.00000000000E+00 0. -1.
<mgrwt>
<rscale>  0 0.42983931E+04</rscale>
<asrwt>0</asrwt>
<pdfrwt beam="1">  1        2 0.33270337E+00 0.42983931E+04</pdfrwt>
<pdfrwt beam="2">  1       -2 0.32860061E+00 0.42983931E+04</pdfrwt>
<totfact> 0.88402022E-02</totfact>
</mgrwt>
</event>
<event>
 6    1  0.2047711E-005  0.8792307E+03  0.7818608E-02  0.9451923E-01
          2   -1    0    0  501    0  0.00000000000E+00  0.00000000000E+00  0.16391650817E+04  0.16391650817E+04  0.00000000000E+00 0. -1.
         -2   -1    0    0    0  501 -0.00000000000E+00 -0.00000000000E+00 -0.11790248608E+03  0.11790248608E+03  0.00000000000E+00 0.  1.
         23    2    1    2    0    0  0.15096229337E+03 -0.34189915405E+03  0.12128236375E+04  0.12724860613E+04  0.92708979572E+02 0.  0.
         13    1    3    3    0    0  0.15108314555E+02 -0.13485295289E+03  0.37317186349E+03  0.39707785102E+03  0.00000000000E+00 0. -1.
        -13    1    3    3    0    0  0.13585397881E+03 -0.20704620116E+03  0.83965177402E+03  0.87540821026E+03  0.00000000000E+00 0.  1.
         22    1    1    2    0    0 -0.15096229337E+03  0.34189915405E+03  0.30843895809E+03  0.48458150649E+03  0.00000000000E+00 0.  1.
<mgrwt>
<rscale>  0 0.87923066E+03</rscale>
<asrwt>0</asrwt>
<pdfrwt beam="1">  1        2 0.25217923E+00 0.87923066E+03</pdfrwt>
<pdfrwt beam="2">  1       -2 0.18138845E-01 0.87923066E+03</pdfrwt>
<totfact> 0.27022438E+02</totfact>
</mgrwt>
</event>
<event>
 6    1  0.2047711E-005  0.5946352E+04  0.7818608E-02  0.7697089E-01
          2   -1    0    0  501    0  0.00000000000E+00  0.00000000000E+00  0.44297269140E+04  0.44297269140E+04  0.00000000000E+00 0. -1.
         -2   -1    0    0    0  501 -0.00000000000E+00 -0.00000000000E+00 -0.19955578151E+04  0.19955578151E+04  0.00000000000E+00 0.  1.
         23    2    1    2    0    0  0.11191852119E+04 -0.91075278808E+03 -0.15908489772E+04  0.21494436783E+04  0.85214308979E+02 0.  0.
         13    1    3    3    0    0  0.60592187292E+03 -0.54002666988E+03 -0.86166068544E+03  0.11837352986E+04  0.00000000000E+00 0.  1.
        -13    1    3    3    0    0  0.51326333897E+03 -0.37072611821E+03 -0.72918829172E+03  0.96570837971E+03  0.00000000000E+00 0. -1.
         22    1    1    2    0    0 -0.11191852119E+04  0.91075278808E+03  0.40250180761E+04  0.42758410509E+04  0.00000000000E+00 0. -1.
<mgrwt>
<rscale>  0 0.59463522E+04</rscale>
<asrwt>0</asrwt>
<pdfrwt beam="1">  1        2 0.68149645E+00 0.59463522E+04</pdfrwt>
<pdfrwt beam="2">  1       -2 0.30700890E+00 0.59463522E+04</pdfrwt>
<totfact> 0.27698202E-03</totfact>
</mgrwt>
</event>
<event>
 6    1  0.2047711E-005  0.2126440E+04  0.7818608E-02  0.8549685E-01
         -2   -1    0    0    0  501 -0.00000000000E+00  0.00000000000E+00  0.45074011553E+03  0.45074011553E+03  0.00000000000E+00 0.  1.
          2   -1    0    0  501    0  0.00000000000E+00 -0.00000000000E+00 -0.25079572505E+04  0.25079572505E+04  0.00000000000E+00 0. -1.
         23    2    1    2    0    0 -0.39664728550E+03 -0.58168826421E+03  0.73751043347E+02  0.71443452875E+03  0.96369983198E+02 0.  0.
         13    1    3    3    0    0 -0.80184254319E+02 -0.19018468988E+03  0.36955072592E+02  0.20967929868E+03  0.00000000000E+00 0.  1.
        -13    1    3    3    0    0 -0.31646303118E+03 -0.39150357433E+03  0.36795970755E+02  0.50475523006E+03  0.00000000000E+00 0. -1.
         22    1    1    2    0    0  0.39664728550E+03  0.58168826421E+03 -0.21309681783E+04  0.22442628373E+04  0.00000000000E+00 0. -1.
<mgrwt>
<rscale>  0 0.21264402E+04</rscale>
<asrwt>0</asrwt>
<pdfrwt beam="1">  1        2 0.38583958E+00 0.21264402E+04</pdfrwt>
<pdfrwt beam="2">  1       -2 0.69344633E-01 0.21264402E+04</pdfrwt>
<totfact> 0.60114584E+00</totfact>
</mgrwt>
</event>
<event>
 6    1  0.2047711E-005  0.1957410E+04  0.7818608E-02  0.8626796E-01
         -2   -1    0    0    0  501 -0.00000000000E+00  0.00000000000E+00  0.37283611930E+03  0.37283611930E+03  0.00000000000E+00 0.  1.
          2   -1    0    0  501    0  0.00000000000E+00 -0.00000000000E+00 -0.25691273651E+04  0.25691273651E+04  0.00000000000E+00 0. -1.
         23    2    1    2    0    0  0.54261519437E+03 -0.24819862387E+03  0.61450945671E+02  0.60670469591E+03  0.90997600353E+02 0.  0.
         13    1    3    3    0    0  0.45989427530E+03 -0.24391016258E+03  0.58114725863E+02  0.52380552997E+03  0.00000000000E+00 0. -1.
        -13    1    3    3    0    0  0.82720919068E+02 -0.42884612890E+01  0.33362198082E+01  0.82899165944E+02  0.00000000000E+00 0.  1.
         22    1    1    2    0    0 -0.54261519437E+03  0.24819862387E+03 -0.22577421915E+04  0.23352587885E+04  0.00000000000E+00 0. -1.
<mgrwt>
<rscale>  0 0.19574100E+04</rscale>
<asrwt>0</asrwt>
<pdfrwt beam="1">  1        2 0.39525035E+00 0.19574100E+04</pdfrwt>
<pdfrwt beam="2">  1       -2 0.57359405E-01 0.19574100E+04</pdfrwt>
<totfact> 0.84302233E+00</totfact>
</mgrwt>
</event>
<event>
 6    1  0.2047711E-005  0.2324197E+04  0.7818608E-02  0.8468441E-01
          1   -1    0    0  501    0  0.00000000000E+00  0.00000000000E+00  0.12721255395E+04  0.12721255395E+04  0.00000000000E+00 0. -1.
         -1   -1    0    0    0  501 -0.00000000000E+00 -0.00000000000E+00 -0.10615874535E+04  0.10615874535E+04  0.00000000000E+00 0.  1.
         23    2    1    2    0    0 -0.16449811392E+03 -0.88970359216E+03  0.83477244591E+03  0.12344856974E+04  0.92074910848E+02 0.  0.
         13    1    3    3    0    0 -0.88597805672E+02 -0.68435703157E+03  0.65034452316E+03  0.94823104601E+03  0.00000000000E+00 0.  1.
        -13    1    3    3    0    0 -0.75900308248E+02 -0.20534656059E+03  0.18442792276E+03  0.28625465137E+03  0.00000000000E+00 0. -1.
         22    1    1    2    0    0  0.16449811392E+03  0.88970359216E+03 -0.62423435992E+03  0.10992272956E+04  0.00000000000E+00 0.  1.
<mgrwt>
<rscale>  0 0.23241966E+04</rscale>
<asrwt>0</asrwt>
<pdfrwt beam="1">  1        1 0.19571162E+00 0.23241966E+04</pdfrwt>
<pdfrwt beam="2">  1       -1 0.16332115E+00 0.23241966E+04</pdfrwt>
<totfact> 0.23570405E+00</totfact>
</mgrwt>
</event>
<event>
 6    1  0.2047711E-005  0.2923023E+04  0.7818608E-02  0.8266060E-01
          4   -1    0    0  501    0  0.00000000000E+00  0.00000000000E+00  0.18286288533E+04  0.18286288533E+04  0.00000000000E+00 0. -1.
         -4   -1    0    0    0  501 -0.00000000000E+00 -0.00000000000E+00 -0.11680967768E+04  0.11680967768E+04  0.00000000000E+00 0.  1.
         23    2    1    2    0    0  0.72873156499E+03 -0.11531610574E+03  0.16222653421E+04  0.17845876956E+04  0.93063982902E+02 0.  0.
         13    1    3    3    0    0  0.60142855893E+03 -0.12750978209E+03  0.13072339926E+04  0.14445884422E+04  0.00000000000E+00 0. -1.
        -13    1    3    3    0    0  0.12730300606E+03  0.12193676355E+02  0.31503134953E+03  0.33999925335E+03  0.00000000000E+00 0.  1.
         22    1    1    2    0    0 -0.72873156499E+03  0.11531610574E+03 -0.96173326568E+03  0.12121379346E+04  0.00000000000E+00 0.  1.
<mgrwt>
<rscale>  0 0.29230227E+04</rscale>
<asrwt>0</asrwt>
<pdfrwt beam="1">  1        4 0.28132751E+00 0.29230227E+04</pdfrwt>
<pdfrwt beam="2">  1       -4 0.17970720E+00 0.29230227E+04</pdfrwt>
<totfact> 0.12474877E-02</totfact>
</mgrwt>
</event>
<event>
 6    1  0.2047711E-005  0.1793457E+04  0.7818608E-02  0.8709787E-01
         -2   -1    0    0    0  501 -0.00000000000E+00  0.00000000000E+00  0.12211008241E+04  0.12211008241E+04  0.00000000000E+00 0.  1.
          2   -1    0    0  501    0  0.00000000000E+00 -0.00000000000E+00 -0.65852187664E+03  0.65852187664E+03  0.00000000000E+00 0. -1.
         23    2    1    2    0    0  0.26260720195E+03  0.58429847633E+03 -0.37208043975E+03  0.74650513311E+03  0.91971779171E+02 0.  0.
         11    1    3    3    0    0  0.15765185062E+03  0.43388680999E+03 -0.23852445230E+03  0.51962080812E+03  0.00000000000E+00 0. -1.
        -11    1    3    3    0    0  0.10495535132E+03  0.15041166633E+03 -0.13355598745E+03  0.22688432499E+03  0.00000000000E+00 0.  1.
         22    1    1    2    0    0 -0.26260720195E+03 -0.58429847633E+03  0.93465938720E+03  0.11331175676E+04  0.00000000000E+00 0.  1.
<mgrwt>
<rscale>  0 0.17934566E+04</rscale>
<asrwt>0</asrwt>
<pdfrwt beam="1">  1        2 0.10131106E+00 0.17934566E+04</pdfrwt>
<pdfrwt beam="2">  1       -2 0.18786166E+00 0.17934566E+04</pdfrwt>
<totfact> 0.66902978E+00</totfact>
</mgrwt>
</event>
<event>
 6    1  0.2047711E-005  0.3938628E+04  0.7818608E-02  0.8017043E-01
          4   -1    0    0  501    0  0.00000000000E+00  0.00000000000E+00  0.24312612592E+04  0.24312612592E+04  0.00000000000E+00 0. -1.
         -4   -1    0    0    0  501 -0.00000000000E+00 -0.00000000000E+00 -0.15951382640E+04  0.15951382640E+04  0.00000000000E+00 0.  1.
         23    2    1    2    0    0  0.11905919040E+04 -0.15583756493E+04  0.24722813458E+03  0.19787567558E+04  0.91174567937E+02 0.  0.
         11    1    3    3    0    0  0.10830574286E+04 -0.14523547480E+04  0.21605187373E+03  0.18245618980E+04  0.00000000000E+00 0.  1.
        -11    1    3    3    0    0  0.10753447539E+03 -0.10602090133E+03  0.31176260847E+02  0.15419485775E+03  0.00000000000E+00 0. -1.
         22    1    1    2    0    0 -0.11905919040E+04  0.15583756493E+04  0.58889486056E+03  0.20476427674E+04  0.00000000000E+00 0. -1.
<mgrwt>
<rscale>  0 0.39386281E+04</rscale>
<asrwt>0</asrwt>
<pdfrwt beam="1">  1        4 0.37404019E+00 0.39386281E+04</pdfrwt>
<pdfrwt beam="2">  1       -4 0.24540589E+00 0.39386281E+04</pdfrwt>
<totfact> 0.10754532E-03</totfact>
</mgrwt>
</event>
<event>
 6    1  0.2047711E-005  0.2290535E+04  0.7818608E-02  0.8481662E-01
         -2   -1    0    0    0  501 -0.00000000000E+00  0.00000000000E+00  0.36972563025E+03  0.36972563025E+03  0.00000000000E+00 0.  1.
          2   -1    0    0  501    0  0.00000000000E+00 -0.00000000000E+00 -0.35475986685E+04  0.35475986685E+04  0.00000000000E+00 0. -1.
         23    2    1    2    0    0 -0.46988654702E+03  0.82485770911E+03 -0.50146402711E+03  0.10775445886E+04  0.91937818958E+02 0.  0.
         11    1    3    3    0    0 -0.85186762404E+02  0.18535523152E+03 -0.14639602263E+03  0.25108791644E+03  0.00000000000E+00 0. -1.
        -11    1    3    3    0    0 -0.38469978461E+03  0.63950247759E+03 -0.35506800448E+03  0.82645667215E+03  0.00000000000E+00 0.  1.
         22    1    1    2    0    0  0.46988654702E+03 -0.82485770911E+03 -0.26764090111E+04  0.28397797102E+04  0.00000000000E+00 0. -1.
<mgrwt>
<rscale>  0 0.22905354E+04</rscale>
<asrwt>0</asrwt>
<pdfrwt beam="1">  1        2 0.54578440E+00 0.22905354E+04</pdfrwt>
<pdfrwt beam="2">  1       -2 0.56880867E-01 0.22905354E+04</pdfrwt>
<totfact> 0.19847399E+00</totfact>
</mgrwt>
</event>
<event>
 6    1  0.2047711E-005  0.3876501E+04  0.7818608E-02  0.8029934E-01
         -2   -1    0    0    0  501 -0.00000000000E+00  0.00000000000E+00  0.10695669436E+04  0.10695669436E+04  0.00000000000E+00 0.  1.
          2   -1    0    0  501    0  0.00000000000E+00 -0.00000000000E+00 -0.35124637670E+04  0.35124637670E+04  0.00000000000E+00 0. -1.
         23    2    1    2    0    0 -0.47602483795E+03  0.17439572272E+04 -0.20449742617E+04  0.27309961832E+04  0.91836620582E+02 0.  0.
         11    1    3    3    0    0 -0.28387501844E+03  0.12018990317E+04 -0.14000226801E+04  0.18668716649E+04  0.00000000000E+00 0. -1.
        -11    1    3    3    0    0 -0.19214981951E+03  0.54205819552E+03 -0.64495158167E+03  0.86412451832E+03  0.00000000000E+00 0.  1.
         22    1    1    2    0    0  0.47602483795E+03 -0.17439572272E+04 -0.39792256170E+03  0.18510345274E+04  0.00000000000E+00 0.  1.
<mgrwt>
<rscale>  0 0.38765011E+04</rscale>
<asrwt>0</asrwt>
<pdfrwt beam="1">  1        2 0.54037904E+00 0.38765011E+04</pdfrwt>
<pdfrwt beam="2">  1       -2 0.16454876E+00 0.38765011E+04</pdfrwt>
<totfact> 0.14782442E-01</totfact>
</mgrwt>
</event>
<event>
 6    1  0.2047711E-005  0.8599453E+03  0.7818608E-02  0.9477085E-01
          3   -1    0    0  501    0  0.00000000000E+00  0.00000000000E+00  0.12649177960E+04  0.12649177960E+04  0.00000000000E+00 0. -1.
         -3   -1    0    0    0  501 -0.00000000000E+00 -0.00000000000E+00 -0.14615692906E+03  0.14615692906E+03  0.00000000000E+00 0.  1.
         23    2    1    2    0    0  0.87670939948E+02  0.20473342953E+03  0.11602262957E+04  0.11845325597E+04  0.85967185506E+02 0.  0.
         11    1    3    3    0    0  0.59313934808E+02  0.56838175076E+02  0.29166581727E+03  0.30301430654E+03  0.00000000000E+00 0. -1.
        -11    1    3    3    0    0  0.28357005139E+02  0.14789525445E+03  0.86856047843E+03  0.88151825320E+03  0.00000000000E+00 0.  1.
         22    1    1    2    0    0 -0.87670939948E+02 -0.20473342953E+03 -0.41465428778E+02  0.22654216531E+03  0.00000000000E+00 0.  1.
<mgrwt>
<rscale>  0 0.85994535E+03</rscale>
<asrwt>0</asrwt>
<pdfrwt beam="1">  1        3 0.19460273E+00 0.85994535E+03</pdfrwt>
<pdfrwt beam="2">  1       -3 0.22485682E-01 0.85994535E+03</pdfrwt>
<totfact> 0.78229263E+00</totfact>
</mgrwt>
</event>
<event>
 6    1  0.2047711E-005  0.1608732E+04  0.7818608E-02  0.8815202E-01
          2   -1    0    0  501    0  0.00000000000E+00  0.00000000000E+00  0.25407127755E+04  0.25407127755E+04  0.00000000000E+00 0. -1.
         -2   -1    0    0    0  501 -0.00000000000E+00 -0.00000000000E+00 -0.25465471576E+03  0.25465471576E+03  0.00000000000E+00 0.  1.
         23    2    1    2    0    0 -0.25193785715E+03  0.64733988774E+03  0.18422114206E+04  0.19710365788E+04  0.93384489102E+02 0.  0.
         13    1    3    3    0    0 -0.13711342170E+03  0.22905917981E+03  0.72308505591E+03  0.77079192805E+03  0.00000000000E+00 0.  1.
        -13    1    3    3    0    0 -0.11482443545E+03  0.41828070793E+03  0.11191263647E+04  0.12002446508E+04  0.00000000000E+00 0. -1.
         22    1    1    2    0    0  0.25193785715E+03 -0.64733988774E+03  0.44384663919E+03  0.82433091247E+03  0.00000000000E+00 0.  1.
<mgrwt>
<rscale>  0 0.16087318E+04</rscale>
<asrwt>0</asrwt>
<pdfrwt beam="1">  1        2 0.39087887E+00 0.16087318E+04</pdfrwt>
<pdfrwt beam="2">  1       -2 0.39177650E-01 0.16087318E+04</pdfrwt>
<totfact> 0.19503356E+01</totfact>
</mgrwt>
</event>
<event>
 6    1  0.2047711E-005  0.1336594E+04  0.7818608E-02  0.9001039E-01
          2   -1    0    0  501    0  0.00000000000E+00  0.00000000000E+00  0.14387314853E+04  0.14387314853E+04  0.00000000000E+00 0. -1.
         -2   -1    0    0    0  501 -0.00000000000E+00 -0.00000000000E+00 -0.31042671502E+03  0.31042671502E+03  0.00000000000E+00 0.  1.
         23    2    1    2    0    0 -0.20870968488E+02 -0.29118933793E+03 -0.21528219081E+03  0.37422083816E+03  0.92021661472E+02 0.  0.
         13    1    3    3    0    0 -0.37491835870E+02 -0.11445908227E+03 -0.45987109326E+02  0.12892375071E+03  0.00000000000E+00 0. -1.
        -13    1    3    3    0    0  0.16620867382E+02 -0.17673025566E+03 -0.16929508148E+03  0.24529708745E+03  0.00000000000E+00 0.  1.
         22    1    1    2    0    0  0.20870968488E+02  0.29118933793E+03  0.13435869611E+04  0.13749373622E+04  0.00000000000E+00 0. -1.
<mgrwt>
<rscale>  0 0.13365937E+04</rscale>
<asrwt>0</asrwt>
<pdfrwt beam="1">  1        2 0.22134330E+00 0.13365937E+04</pdfrwt>
<pdfrwt beam="2">  1       -2 0.47757957E-01 0.13365937E+04</pdfrwt>
<totfact> 0.55839475E+01</totfact>
</mgrwt>
</event>
<event>
 6    1  0.2047711E-005  0.2436314E+04  0.7818608E-02  0.8426032E-01
          2   -1    0    0  501    0  0.00000000000E+00  0.00000000000E+00  0.72197969007E+03  0.72197969007E+03  0.00000000000E+00 0. -1.
         -2   -1    0    0    0  501 -0.00000000000E+00 -0.00000000000E+00 -0.20553303235E+04  0.20553303235E+04  0.00000000000E+00 0.  1.
         23    2    1    2    0    0  0.30339955869E+03 -0.49777123777E+03  0.54969131646E+03  0.80609858848E+03  0.88356627336E+02 0.  0.
         11    1    3    3    0    0  0.27211153736E+03 -0.40026511903E+03  0.48373679121E+03  0.68429389698E+03  0.00000000000E+00 0. -1.
        -11    1    3    3    0    0  0.31288021338E+02 -0.97506118741E+02  0.65954525255E+02  0.12180469151E+03  0.00000000000E+00 0.  1.
         22    1    1    2    0    0 -0.30339955869E+03  0.49777123777E+03 -0.18830419499E+04  0.19712114251E+04  0.00000000000E+00 0.  1.
<mgrwt>
<rscale>  0 0.24363142E+04</rscale>
<asrwt>0</asrwt>
<pdfrwt beam="1">  1        2 0.11107380E+00 0.24363142E+04</pdfrwt>
<pdfrwt beam="2">  1       -2 0.31620466E+00 0.24363142E+04</pdfrwt>
<totfact> 0.89279428E-01</totfact>
</mgrwt>
</event>
<event>
 6    1  0.2047711E-005  0.1983719E+04  0.7818608E-02  0.8614270E-01
         -2   -1    0    0    0  501 -0.00000000000E+00  0.00000000000E+00  0.38003282202E+03  0.38003282202E+03  0.00000000000E+00 0.  1.
          2   -1    0    0  501    0  0.00000000000E+00 -0.00000000000E+00 -0.25886856713E+04  0.25886856713E+04  0.00000000000E+00 0. -1.
         23    2    1    2    0    0 -0.70154911580E+03  0.53651395880E+03 -0.43797256102E+03  0.98999995016E+03  0.90893053791E+02 0.  0.
         13    1    3    3    0    0 -0.32658404669E+03  0.30610264505E+03 -0.22961936490E+03  0.50307158695E+03  0.00000000000E+00 0.  1.
        -13    1    3    3    0    0 -0.37496506912E+03  0.23041131375E+03 -0.20835319612E+03  0.48692836321E+03  0.00000000000E+00 0. -1.
         22    1    1    2    0    0  0.70154911580E+03 -0.53651395880E+03 -0.17706802883E+04  0.19787185432E+04  0.00000000000E+00 0. -1.
<mgrwt>
<rscale>  0 0.19837193E+04</rscale>
<asrwt>0</asrwt>
<pdfrwt beam="1">  1        2 0.39825933E+00 0.19837193E+04</pdfrwt>
<pdfrwt beam="2">  1       -2 0.58466589E-01 0.19837193E+04</pdfrwt>
<totfact> 0.78703078E+00</totfact>
</mgrwt>
</event>
<event>
 6    1  0.2047711E-005  0.2436361E+04  0.7818608E-02  0.8426015E-01
         -2   -1    0    0    0  501 -0.00000000000E+00  0.00000000000E+00  0.35765767079E+04  0.35765767079E+04  0.00000000000E+00 0.  1.
          2   -1    0    0  501    0  0.00000000000E+00 -0.00000000000E+00 -0.41491177667E+03  0.41491177667E+03  0.00000000000E+00 0. -1.
         23    2    1    2    0    0  0.26375493076E+03 -0.65345645479E+03  0.32074771192E+04  0.32853222447E+04  0.94131714284E+02 0.  0.
         11    1    3    3    0    0  0.18377368881E+03 -0.35653674436E+03  0.16827093518E+04  0.17298560580E+04  0.00000000000E+00 0. -1.
        -11    1    3    3    0    0  0.79981241944E+02 -0.29691971042E+03  0.15247677673E+04  0.15554661867E+04  0.00000000000E+00 0.  1.
         22    1    1    2    0    0 -0.26375493076E+03  0.65345645479E+03 -0.45812187933E+02  0.70616623989E+03  0.00000000000E+00 0. -1.
<mgrwt>
<rscale>  0 0.24363611E+04</rscale>
<asrwt>0</asrwt>
<pdfrwt beam="1">  1        2 0.63832583E-01 0.24363611E+04</pdfrwt>
<pdfrwt beam="2">  1       -2 0.55024255E+00 0.24363611E+04</pdfrwt>
<totfact> 0.57561010E-02</totfact>
</mgrwt>
</event>
<event>
 6    1  0.2047711E-005  0.2665993E+04  0.7818608E-02  0.8346124E-01
         -2   -1    0    0    0  501 -0.00000000000E+00  0.00000000000E+00  0.10034585778E+04  0.10034585778E+04  0.00000000000E+00 0.  1.
          2   -1    0    0  501    0  0.00000000000E+00 -0.00000000000E+00 -0.17707548564E+04  0.17707548564E+04  0.00000000000E+00 0. -1.
         23    2    1    2    0    0 -0.35804026712E+02 -0.13301256816E+04 -0.33516160325E+03  0.13751935506E+04  0.91146827251E+02 0.  0.
         11    1    3    3    0    0 -0.24539209017E+02 -0.33871033970E+03 -0.12361841498E+03  0.36139781339E+03  0.00000000000E+00 0. -1.
        -11    1    3    3    0    0 -0.11264817694E+02 -0.99141534187E+03 -0.21154318826E+03  0.10137957372E+04  0.00000000000E+00 0.  1.
         22    1    1    2    0    0  0.35804026712E+02  0.13301256816E+04 -0.43213467545E+03  0.13990198836E+04  0.00000000000E+00 0. -1.
<mgrwt>
<rscale>  0 0.26659926E+04</rscale>
<asrwt>0</asrwt>
<pdfrwt beam="1">  1        2 0.27242382E+00 0.26659926E+04</pdfrwt>
<pdfrwt beam="2">  1       -2 0.15437824E+00 0.26659926E+04</pdfrwt>
<totfact> 0.21871379E+00</totfact>
</mgrwt>
</event>
<event>
 6    1  0.2047711E-005  0.4704209E+03  0.7818608E-02  0.1021801E+00
          2   -1    0    0  501    0  0.00000000000E+00  0.00000000000E+00  0.63909160153E+03  0.63909160153E+03  0.00000000000E+00 0. -1.
         -2   -1    0    0    0  501 -0.00000000000E+00 -0.00000000000E+00 -0.86566562261E+02  0.86566562261E+02  0.00000000000E+00 0.  1.
         23    2    1    2    0    0 -0.29373244945E+02 -0.22308001249E+03  0.32581373259E+03  0.40624386219E+03  0.90840562141E+02 0.  0.
         11    1    3    3    0    0 -0.46271285876E+02 -0.88333572583E+02  0.18772903579E+03  0.21257008919E+03  0.00000000000E+00 0. -1.
        -11    1    3    3    0    0  0.16898040931E+02 -0.13474643991E+03  0.13808469680E+03  0.19367377300E+03  0.00000000000E+00 0.  1.
         22    1    1    2    0    0  0.29373244945E+02  0.22308001249E+03  0.22671130668E+03  0.31941430160E+03  0.00000000000E+00 0. -1.
<mgrwt>
<rscale>  0 0.47042093E+03</rscale>
<asrwt>0</asrwt>
<pdfrwt beam="1">  1        2 0.98321782E-01 0.47042093E+03</pdfrwt>
<pdfrwt beam="2">  1       -2 0.13317933E-01 0.47042093E+03</pdfrwt>
<totfact> 0.19611424E+03</totfact>
</mgrwt>
</event>
<event>
 6    1  0.2047711E-005  0.3579849E+04  0.7818608E-02  0.8095123E-01
         -2   -1    0    0    0  501 -0.00000000000E+00  0.00000000000E+00  0.18412760703E+04  0.18412760703E+04  0.00000000000E+00 0.  1.
          2   -1    0    0  501    0  0.00000000000E+00 -0.00000000000E+00 -0.17400046654E+04  0.17400046654E+04  0.00000000000E+00 0. -1.
         23    2    1    2    0    0  0.17104523385E+04 -0.51510407354E+03  0.14552426126E+03  0.17944014102E+04  0.87861832986E+02 0.  0.
         11    1    3    3    0    0  0.11768992426E+03 -0.59334738194E+02  0.10271894990E+02  0.13220076118E+03  0.00000000000E+00 0. -1.
        -11    1    3    3    0    0  0.15927624142E+04 -0.45576933534E+03  0.13525236627E+03  0.16622006490E+04  0.00000000000E+00 0.  1.
         22    1    1    2    0    0 -0.17104523385E+04  0.51510407354E+03 -0.44252856324E+02  0.17868793255E+04  0.00000000000E+00 0. -1.
<mgrwt>
<rscale>  0 0.35798486E+04</rscale>
<asrwt>0</asrwt>
<pdfrwt beam="1">  1        2 0.26769303E+00 0.35798486E+04</pdfrwt>
<pdfrwt beam="2">  1       -2 0.28327324E+00 0.35798486E+04</pdfrwt>
<totfact> 0.30592002E-01</totfact>
</mgrwt>
</event>
<event>
 6    1  0.2047711E-005  0.1658864E+04  0.7818608E-02  0.8785180E-01
          2   -1    0    0  501    0  0.00000000000E+00  0.00000000000E+00  0.19221434747E+04  0.19221434747E+04  0.00000000000E+00 0. -1.
         -2   -1    0    0    0  501 -0.00000000000E+00 -0.00000000000E+00 -0.35791142802E+03  0.35791142802E+03  0.00000000000E+00 0.  1.
         23    2    1    2    0    0 -0.66576910397E+03 -0.15026862475E+03  0.14262052533E+04  0.15837212506E+04  0.91007776838E+02 0.  0.
         11    1    3    3    0    0 -0.38623538119E+03 -0.93959885877E+02  0.72633000706E+03  0.82798641836E+03  0.00000000000E+00 0.  1.
        -11    1    3    3    0    0 -0.27953372278E+03 -0.56308738872E+02  0.69987524629E+03  0.75573483221E+03  0.00000000000E+00 0. -1.
         22    1    1    2    0    0  0.66576910397E+03  0.15026862475E+03  0.13802679329E+03  0.69633365211E+03  0.00000000000E+00 0.  1.
<mgrwt>
<rscale>  0 0.16588636E+04</rscale>
<asrwt>0</asrwt>
<pdfrwt beam="1">  1        2 0.29571438E+00 0.16588636E+04</pdfrwt>
<pdfrwt beam="2">  1       -2 0.55063298E-01 0.16588636E+04</pdfrwt>
<totfact> 0.21855341E+01</totfact>
</mgrwt>
</event>
<event>
 6    1  0.2047711E-005  0.2820609E+04  0.7818608E-02  0.8296899E-01
         -2   -1    0    0    0  501 -0.00000000000E+00  0.00000000000E+00  0.14607997853E+04  0.14607997853E+04  0.00000000000E+00 0.  1.
          2   -1    0    0  501    0  0.00000000000E+00 -0.00000000000E+00 -0.13615542830E+04  0.13615542830E+04  0.00000000000E+00 0. -1.
         23    2    1    2    0    0 -0.96554743941E+03 -0.10004866605E+04  0.27639670789E+03  0.14206986309E+04  0.93456108323E+02 0.  0.
         11    1    3    3    0    0 -0.83973533060E+03 -0.86754250694E+03  0.27180171842E+03  0.12376031678E+04  0.00000000000E+00 0. -1.
        -11    1    3    3    0    0 -0.12581210881E+03 -0.13294415352E+03  0.45949894677E+01  0.18309546310E+03  0.00000000000E+00 0.  1.
         22    1    1    2    0    0  0.96554743941E+03  0.10004866605E+04 -0.17715120553E+03  0.14016554374E+04  0.00000000000E+00 0. -1.
<mgrwt>
<rscale>  0 0.28206086E+04</rscale>
<asrwt>0</asrwt>
<pdfrwt beam="1">  1        2 0.20946989E+00 0.28206086E+04</pdfrwt>
<pdfrwt beam="2">  1       -2 0.22473843E+00 0.28206086E+04</pdfrwt>
<totfact> 0.12202604E+00</totfact>
</mgrwt>
</event>
<event>
 6    1  0.2047711E-005  0.1023141E+04  0.7818608E-02  0.9283522E-01
         -1   -1    0    0    0  501 -0.00000000000E+00  0.00000000000E+00  0.24922989967E+03  0.24922989967E+03  0.00000000000E+00 0.  1.
          1   -1    0    0  501    0  0.00000000000E+00 -0.00000000000E+00 -0.10500530596E+04  0.10500530596E+04  0.00000000000E+00 0. -1.
         23    2    1    2    0    0  0.33638545756E+03 -0.17084919576E+02 -0.88597835115E+03  0.95186609568E+03  0.87432001370E+02 0.  0.
         13    1    3    3    0    0  0.65974288474E+02 -0.59088119535E+01 -0.28759414629E+03  0.29512355680E+03  0.00000000000E+00 0.  1.
        -13    1    3    3    0    0  0.27041116908E+03 -0.11176107622E+02 -0.59838420486E+03  0.65674253888E+03  0.00000000000E+00 0. -1.
         22    1    1    2    0    0 -0.33638545756E+03  0.17084919576E+02  0.85155191205E+02  0.34741686361E+03  0.00000000000E+00 0.  1.
<mgrwt>
<rscale>  0 0.10231415E+04</rscale>
<asrwt>0</asrwt>
<pdfrwt beam="1">  1        1 0.16154662E+00 0.10231415E+04</pdfrwt>
<pdfrwt beam="2">  1       -1 0.38343062E-01 0.10231415E+04</pdfrwt>
<totfact> 0.91083344E+01</totfact>
</mgrwt>
</event>
<event>
 6    1  0.2047711E-005  0.2968700E+04  0.7818608E-02  0.8252726E-01
          2   -1    0    0  501    0  0.00000000000E+00  0.00000000000E+00  0.20481636132E+04  0.20481636132E+04  0.00000000000E+00 0. -1.
         -2   -1    0    0    0  501 -0.00000000000E+00 -0.00000000000E+00 -0.10757418894E+04  0.10757418894E+04  0.00000000000E+00 0.  1.
         23    2    1    2    0    0 -0.29367449562E+03  0.79894753759E+03  0.17644667377E+04  0.19611943685E+04  0.91534722575E+02 0.  0.
         13    1    3    3    0    0 -0.17642180035E+03  0.34784767202E+03  0.80233211235E+03  0.89210956338E+03  0.00000000000E+00 0. -1.
        -13    1    3    3    0    0 -0.11725269528E+03  0.45109986557E+03  0.96213462539E+03  0.10690848052E+04  0.00000000000E+00 0.  1.
         22    1    1    2    0    0  0.29367449562E+03 -0.79894753759E+03 -0.79204501397E+03  0.11627111341E+04  0.00000000000E+00 0.  1.
<mgrwt>
<rscale>  0 0.29687003E+04</rscale>
<asrwt>0</asrwt>
<pdfrwt beam="1">  1        2 0.31510209E+00 0.29687003E+04</pdfrwt>
<pdfrwt beam="2">  1       -2 0.16549875E+00 0.29687003E+04</pdfrwt>
<totfact> 0.12376980E+00</totfact>
</mgrwt>
</event>
<event>
 6    1  0.2047711E-005  0.1939771E+04  0.7818608E-02  0.8635309E-01
          2   -1    0    0  501    0  0.00000000000E+00  0.00000000000E+00  0.98444683419E+03  0.98444683419E+03  0.00000000000E+00 0. -1.
         -2   -1    0    0    0  501 -0.00000000000E+00 -0.00000000000E+00 -0.95553991866E+03  0.95553991866E+03  0.00000000000E+00 0.  1.
         23    2    1    2    0    0  0.89293323026E+03  0.25363941644E+03  0.28813943181E+03  0.97621073905E+03  0.91106353318E+02 0.  0.
         13    1    3    3    0    0  0.45271147854E+03  0.17424913478E+03  0.13739148782E+03  0.50416948013E+03  0.00000000000E+00 0. -1.
        -13    1    3    3    0    0  0.44022175172E+03  0.79390281660E+02  0.15074794399E+03  0.47204125892E+03  0.00000000000E+00 0.  1.
         22    1    1    2    0    0 -0.89293323026E+03 -0.25363941644E+03 -0.25923251628E+03  0.96377601379E+03  0.00000000000E+00 0.  1.
<mgrwt>
<rscale>  0 0.19397714E+04</rscale>
<asrwt>0</asrwt>
<pdfrwt beam="1">  1        2 0.15145336E+00 0.19397714E+04</pdfrwt>
<pdfrwt beam="2">  1       -2 0.14700614E+00 0.19397714E+04</pdfrwt>
<totfact> 0.76047988E+00</totfact>
</mgrwt>
</event>
<event>
 6    1  0.2047711E-005  0.4513321E+03  0.7818608E-02  0.1027326E+00
          2   -1    0    0  501    0  0.00000000000E+00  0.00000000000E+00  0.11769803086E+04  0.11769803086E+04  0.00000000000E+00 0. -1.
         -2   -1    0    0    0  501 -0.00000000000E+00 -0.00000000000E+00 -0.43267642124E+02  0.43267642124E+02  0.00000000000E+00 0.  1.
         23    2    1    2    0    0 -0.19628230733E+03 -0.41985907070E+02  0.37465356713E+03  0.43509810715E+03  0.93034976864E+02 0.  0.
         11    1    3    3    0    0 -0.17418895249E+03 -0.37155782117E+02  0.37185718378E+03  0.41231069407E+03  0.00000000000E+00 0.  1.
        -11    1    3    3    0    0 -0.22093354835E+02 -0.48301249532E+01  0.27963833459E+01  0.22787413077E+02  0.00000000000E+00 0. -1.
         22    1    1    2    0    0  0.19628230733E+03  0.41985907070E+02  0.75905909933E+03  0.78514984355E+03  0.00000000000E+00 0.  1.
<mgrwt>
<rscale>  0 0.45133209E+03</rscale>
<asrwt>0</asrwt>
<pdfrwt beam="1">  1        2 0.18107387E+00 0.45133209E+03</pdfrwt>
<pdfrwt beam="2">  1       -2 0.66565612E-02 0.45133209E+03</pdfrwt>
<totfact> 0.25983698E+03</totfact>
</mgrwt>
</event>
<event>
 6    1  0.2047711E-005  0.1211984E+04  0.7818608E-02  0.9102431E-01
         -2   -1    0    0    0  501 -0.00000000000E+00  0.00000000000E+00  0.39851707787E+03  0.39851707787E+03  0.00000000000E+00 0. -1.
          2   -1    0    0  501    0  0.00000000000E+00 -0.00000000000E+00 -0.92148268843E+03  0.92148268843E+03  0.00000000000E+00 0.  1.
         23    2    1    2    0    0  0.66398425179E+02  0.53673329414E+03  0.25849983728E+02  0.54948699130E+03  0.93682186408E+02 0.  0.
         13    1    3    3    0    0 -0.58525473386E+01  0.27045675679E+03 -0.13150295455E+02  0.27083950944E+03  0.00000000000E+00 0. -1.
        -13    1    3    3    0    0  0.72250972517E+02  0.26627653735E+03  0.39000279183E+02  0.27864748186E+03  0.00000000000E+00 0.  1.
         22    1    1    2    0    0 -0.66398425179E+02 -0.53673329414E+03 -0.54881559429E+03  0.77051277500E+03  0.00000000000E+00 0.  1.
<mgrwt>
<rscale>  0 0.12119845E+04</rscale>
<asrwt>0</asrwt>
<pdfrwt beam="1">  1        2 0.14176657E+00 0.12119845E+04</pdfrwt>
<pdfrwt beam="2">  1       -2 0.61310320E-01 0.12119845E+04</pdfrwt>
<totfact> 0.69192541E+01</totfact>
</mgrwt>
</event>
<event>
 6    1  0.2047711E-005  0.3793901E+04  0.7818608E-02  0.8047465E-01
         -2   -1    0    0    0  501 -0.00000000000E+00  0.00000000000E+00  0.10945569432E+04  0.10945569432E+04  0.00000000000E+00 0.  1.
          2   -1    0    0  501    0  0.00000000000E+00 -0.00000000000E+00 -0.32875604484E+04  0.32875604484E+04  0.00000000000E+00 0. -1.
         23    2    1    2    0    0  0.14911615663E+04  0.10539950249E+03  0.24965989317E+03  0.15183303273E+04  0.91241704672E+02 0.  0.
         11    1    3    3    0    0  0.36628313134E+03  0.40960558720E+02  0.24882205972E+02  0.36940522986E+03  0.00000000000E+00 0.  1.
        -11    1    3    3    0    0  0.11248784350E+04  0.64438943767E+02  0.22477768719E+03  0.11489250975E+04  0.00000000000E+00 0. -1.
         22    1    1    2    0    0 -0.14911615663E+04 -0.10539950249E+03 -0.24426633984E+04  0.28637870643E+04  0.00000000000E+00 0. -1.
<mgrwt>
<rscale>  0 0.37939015E+04</rscale>
<asrwt>0</asrwt>
<pdfrwt beam="1">  1        2 0.50577852E+00 0.37939015E+04</pdfrwt>
<pdfrwt beam="2">  1       -2 0.16839338E+00 0.37939015E+04</pdfrwt>
<totfact> 0.19906731E-01</totfact>
</mgrwt>
</event>
<event>
 6    1  0.2047711E-005  0.2276586E+04  0.7818608E-02  0.8487210E-01
         -2   -1    0    0    0  501 -0.00000000000E+00  0.00000000000E+00  0.46768678062E+03  0.46768678062E+03  0.00000000000E+00 0.  1.
          2   -1    0    0  501    0  0.00000000000E+00 -0.00000000000E+00 -0.27704676444E+04  0.27704676444E+04  0.00000000000E+00 0. -1.
         23    2    1    2    0    0  0.29143945919E+03 -0.59198989358E+03  0.16281167484E+03  0.68579560248E+03  0.91754969585E+02 0.  0.
         13    1    3    3    0    0  0.21313876826E+03 -0.40258253745E+03  0.70243430664E+02  0.46090668638E+03  0.00000000000E+00 0. -1.
        -13    1    3    3    0    0  0.78300690925E+02 -0.18940735613E+03  0.92568244178E+02  0.22488891610E+03  0.00000000000E+00 0.  1.
         22    1    1    2    0    0 -0.29143945919E+03  0.59198989358E+03 -0.24655925386E+04  0.25523588225E+04  0.00000000000E+00 0. -1.
<mgrwt>
<rscale>  0 0.22765861E+04</rscale>
<asrwt>0</asrwt>
<pdfrwt beam="1">  1        2 0.42622579E+00 0.22765861E+04</pdfrwt>
<pdfrwt beam="2">  1       -2 0.71951813E-01 0.22765861E+04</pdfrwt>
<totfact> 0.38316522E+00</totfact>
</mgrwt>
</event>
<event>
 6    1  0.2047711E-005  0.3413804E+04  0.7818608E-02  0.8134527E-01
          2   -1    0    0  501    0  0.00000000000E+00  0.00000000000E+00  0.35340435938E+04  0.35340435938E+04  0.00000000000E+00 0. -1.
         -2   -1    0    0    0  501 -0.00000000000E+00 -0.00000000000E+00 -0.82441383734E+03  0.82441383734E+03  0.00000000000E+00 0.  1.
         23    2    1    2    0    0 -0.45769252762E+03  0.44695351209E+03 -0.66303424237E+03  0.92565794081E+03  0.89321470117E+02 0.  0.
         13    1    3    3    0    0 -0.10983147053E+03  0.73744817937E+02 -0.99851188422E+02  0.16574531643E+03  0.00000000000E+00 0.  1.
        -13    1    3    3    0    0 -0.34786105709E+03  0.37320869415E+03 -0.56318305395E+03  0.75991262437E+03  0.00000000000E+00 0. -1.
         22    1    1    2    0    0  0.45769252762E+03 -0.44695351209E+03  0.33726639988E+04  0.34327994903E+04  0.00000000000E+00 0. -1.
<mgrwt>
<rscale>  0 0.34138040E+04</rscale>
<asrwt>0</asrwt>
<pdfrwt beam="1">  1        2 0.54369901E+00 0.34138040E+04</pdfrwt>
<pdfrwt beam="2">  1       -2 0.12683290E+00 0.34138040E+04</pdfrwt>
<totfact> 0.29380722E-01</totfact>
</mgrwt>
</event>
<event>
 6    1  0.2047711E-005  0.1758090E+04  0.7818608E-02  0.8728910E-01
          2   -1    0    0  501    0  0.00000000000E+00  0.00000000000E+00  0.64767368301E+03  0.64767368301E+03  0.00000000000E+00 0. -1.
         -2   -1    0    0    0  501 -0.00000000000E+00 -0.00000000000E+00 -0.11930702844E+04  0.11930702844E+04  0.00000000000E+00 0.  1.
         23    2    1    2    0    0 -0.41946551180E+03  0.26616339861E+03 -0.10297166082E+04  0.11469427427E+04  0.91471806453E+02 0.  0.
         13    1    3    3    0    0 -0.64537192240E+02  0.83100615806E+02 -0.23734046476E+03  0.25961752203E+03  0.00000000000E+00 0.  1.
        -13    1    3    3    0    0 -0.35492831956E+03  0.18306278280E+03 -0.79237614348E+03  0.88732522066E+03  0.00000000000E+00 0. -1.
         22    1    1    2    0    0  0.41946551180E+03 -0.26616339861E+03  0.48432000687E+03  0.69380122470E+03  0.00000000000E+00 0. -1.
<mgrwt>
<rscale>  0 0.17580901E+04</rscale>
<asrwt>0</asrwt>
<pdfrwt beam="1">  1        2 0.99642105E-01 0.17580901E+04</pdfrwt>
<pdfrwt beam="2">  1       -2 0.18354927E+00 0.17580901E+04</pdfrwt>
<totfact> 0.73269310E+00</totfact>
</mgrwt>
</event>
<event>
 6    1  0.2047711E-005  0.4068550E+04  0.7818608E-02  0.7990859E-01
          2   -1    0    0  501    0  0.00000000000E+00  0.00000000000E+00  0.30553968888E+04  0.30553968888E+04  0.00000000000E+00 0. -1.
         -2   -1    0    0    0  501 -0.00000000000E+00 -0.00000000000E+00 -0.13544145438E+04  0.13544145438E+04  0.00000000000E+00 0.  1.
         23    2    1    2    0    0 -0.30454966523E+03 -0.71673680616E+03  0.28866140872E+04  0.29912964428E+04  0.94081733915E+02 0.  0.
         13    1    3    3    0    0 -0.25586070244E+03 -0.56369964226E+03  0.21480193893E+04  0.22354438670E+04  0.00000000000E+00 0.  1.
        -13    1    3    3    0    0 -0.48688962796E+02 -0.15303716390E+03  0.73859469791E+03  0.75585257585E+03  0.00000000000E+00 0. -1.
         22    1    1    2    0    0  0.30454966523E+03  0.71673680616E+03 -0.11856317422E+04  0.14185149897E+04  0.00000000000E+00 0.  1.
<mgrwt>
<rscale>  0 0.40685496E+04</rscale>
<asrwt>0</asrwt>
<pdfrwt beam="1">  1        2 0.47006106E+00 0.40685496E+04</pdfrwt>
<pdfrwt beam="2">  1       -2 0.20837147E+00 0.40685496E+04</pdfrwt>
<totfact> 0.14775720E-01</totfact>
</mgrwt>
</event>
<event>
 6    1  0.2047711E-005  0.3174684E+04  0.7818608E-02  0.8195535E-01
          1   -1    0    0  501    0  0.00000000000E+00  0.00000000000E+00  0.34271974447E+04  0.34271974447E+04  0.00000000000E+00 0. -1.
         -1   -1    0    0    0  501 -0.00000000000E+00 -0.00000000000E+00 -0.73519374826E+03  0.73519374826E+03  0.00000000000E+00 0.  1.
         23    2    1    2    0    0  0.77897140931E+03 -0.13662631925E+04  0.16148412935E+04  0.22561513314E+04  0.95051876950E+02 0.  0.
         11    1    3    3    0    0  0.20669034251E+03 -0.29112182426E+03  0.39248433552E+03  0.53058153745E+03  0.00000000000E+00 0.  1.
        -11    1    3    3    0    0  0.57228106680E+03 -0.10751413682E+04  0.12223569580E+04  0.17255697939E+04  0.00000000000E+00 0. -1.
         22    1    1    2    0    0 -0.77897140931E+03  0.13662631925E+04  0.10771624029E+04  0.19062398616E+04  0.00000000000E+00 0.  1.
<mgrwt>
<rscale>  0 0.31746837E+04</rscale>
<asrwt>0</asrwt>
<pdfrwt beam="1">  1        1 0.52726113E+00 0.31746837E+04</pdfrwt>
<pdfrwt beam="2">  1       -1 0.11310673E+00 0.31746837E+04</pdfrwt>
<totfact> 0.17046969E-01</totfact>
</mgrwt>
</event>
<event>
 6    1  0.2047711E-005  0.1265169E+04  0.7818608E-02  0.9057652E-01
          2   -1    0    0  501    0  0.00000000000E+00  0.00000000000E+00  0.98698749894E+03  0.98698749894E+03  0.00000000000E+00 0. -1.
         -2   -1    0    0    0  501 -0.00000000000E+00 -0.00000000000E+00 -0.40543910496E+03  0.40543910496E+03  0.00000000000E+00 0.  1.
         23    2    1    2    0    0  0.86879588740E+02 -0.62032573843E+03  0.22457800828E+03  0.67146894844E+03  0.89906519350E+02 0.  0.
         11    1    3    3    0    0  0.40428617797E+02 -0.24127745901E+03  0.13421619849E+03  0.27903991345E+03  0.00000000000E+00 0.  1.
        -11    1    3    3    0    0  0.46450970943E+02 -0.37904827943E+03  0.90361809784E+02  0.39242903499E+03  0.00000000000E+00 0. -1.
         22    1    1    2    0    0 -0.86879588740E+02  0.62032573843E+03  0.35697038570E+03  0.72095765546E+03  0.00000000000E+00 0.  1.
<mgrwt>
<rscale>  0 0.12651693E+04</rscale>
<asrwt>0</asrwt>
<pdfrwt beam="1">  1        2 0.15184423E+00 0.12651693E+04</pdfrwt>
<pdfrwt beam="2">  1       -2 0.62375247E-01 0.12651693E+04</pdfrwt>
<totfact> 0.60180911E+01</totfact>
</mgrwt>
</event>
<event>
 6    1  0.2047711E-005  0.2876790E+04  0.7818608E-02  0.8279817E-01
          1   -1    0    0  501    0  0.00000000000E+00  0.00000000000E+00  0.27344327095E+04  0.27344327095E+04  0.00000000000E+00 0. -1.
         -1   -1    0    0    0  501 -0.00000000000E+00 -0.00000000000E+00 -0.75663966999E+03  0.75663966999E+03  0.00000000000E+00 0.  1.
         23    2    1    2    0    0 -0.75294549900E+03  0.67380014392E+03 -0.24998225730E+03  0.10448679049E+04  0.91237335105E+02 0.  0.
         13    1    3    3    0    0 -0.52789334863E+03  0.42660909041E+03 -0.19412814810E+03  0.70594082006E+03  0.00000000000E+00 0. -1.
        -13    1    3    3    0    0 -0.22505215038E+03  0.24719105351E+03 -0.55854109199E+02  0.33892708484E+03  0.00000000000E+00 0.  1.
         22    1    1    2    0    0  0.75294549900E+03 -0.67380014392E+03  0.22277752968E+04  0.24462044746E+04  0.00000000000E+00 0. -1.
<mgrwt>
<rscale>  0 0.28767901E+04</rscale>
<asrwt>0</asrwt>
<pdfrwt beam="1">  1        1 0.42068195E+00 0.28767901E+04</pdfrwt>
<pdfrwt beam="2">  1       -1 0.11640610E+00 0.28767901E+04</pdfrwt>
<totfact> 0.53165632E-01</totfact>
</mgrwt>
</event>
<event>
 6    1  0.2047711E-005  0.8674734E+03  0.7818608E-02  0.9467180E-01
         -2   -1    0    0    0  501 -0.00000000000E+00  0.00000000000E+00  0.10999026090E+03  0.10999026090E+03  0.00000000000E+00 0.  1.
          2   -1    0    0  501    0  0.00000000000E+00 -0.00000000000E+00 -0.17104015549E+04  0.17104015549E+04  0.00000000000E+00 0. -1.
         23    2    1    2    0    0  0.37607443919E+03  0.11298789724E+03 -0.11705429128E+04  0.12381675687E+04  0.93220001862E+02 0.  0.
         11    1    3    3    0    0  0.74989341202E+02 -0.61110174933E+01 -0.30212602245E+03  0.31135330297E+03  0.00000000000E+00 0. -1.
        -11    1    3    3    0    0  0.30108509799E+03  0.11909891474E+03 -0.86841689033E+03  0.92681426571E+03  0.00000000000E+00 0.  1.
         22    1    1    2    0    0 -0.37607443919E+03 -0.11298789724E+03 -0.42986838119E+03  0.58222424707E+03  0.00000000000E+00 0.  1.
<mgrwt>
<rscale>  0 0.86747337E+03</rscale>
<asrwt>0</asrwt>
<pdfrwt beam="1">  1        2 0.26313870E+00 0.86747337E+03</pdfrwt>
<pdfrwt beam="2">  1       -2 0.16921579E-01 0.86747337E+03</pdfrwt>
<totfact> 0.27851987E+02</totfact>
</mgrwt>
</event>
<event>
 6    1  0.2047711E-005  0.1674727E+04  0.7818608E-02  0.8775911E-01
         -2   -1    0    0    0  501 -0.00000000000E+00  0.00000000000E+00  0.48699525789E+03  0.48699525789E+03  0.00000000000E+00 0.  1.
          2   -1    0    0  501    0  0.00000000000E+00 -0.00000000000E+00 -0.14398044839E+04  0.14398044839E+04  0.00000000000E+00 0. -1.
         23    2    1    2    0    0 -0.48044581413E+03 -0.31423396631E+03  0.21964256873E+03  0.62134412136E+03  0.90854241772E+02 0.  0.
         13    1    3    3    0    0 -0.24268499124E+03 -0.10476476393E+03  0.97099208088E+02  0.28160240933E+03  0.00000000000E+00 0.  1.
        -13    1    3    3    0    0 -0.23776082290E+03 -0.20946920238E+03  0.12254336064E+03  0.33974171203E+03  0.00000000000E+00 0. -1.
         22    1    1    2    0    0  0.48044581413E+03  0.31423396631E+03 -0.11724517947E+04  0.13054556204E+04  0.00000000000E+00 0. -1.
<mgrwt>
<rscale>  0 0.16747274E+04</rscale>
<asrwt>0</asrwt>
<pdfrwt beam="1">  1        2 0.22150838E+00 0.16747274E+04</pdfrwt>
<pdfrwt beam="2">  1       -2 0.74922348E-01 0.16747274E+04</pdfrwt>
<totfact> 0.20954537E+01</totfact>
</mgrwt>
</event>
<event>
 6    1  0.2047711E-005  0.5533715E+03  0.7818608E-02  0.1000717E+00
         -4   -1    0    0    0  501 -0.00000000000E+00  0.00000000000E+00  0.17540251548E+04  0.17540251548E+04  0.00000000000E+00 0.  1.
          4   -1    0    0  501    0  0.00000000000E+00 -0.00000000000E+00 -0.43645323406E+02  0.43645323406E+02  0.00000000000E+00 0. -1.
         23    2    1    2    0    0  0.25390610962E+03  0.84092737342E+02  0.96986836568E+03  0.10103350149E+04  0.92694630634E+02 0.  0.
         11    1    3    3    0    0  0.94824367276E+02  0.58641990725E+01  0.48158342940E+03  0.49086520444E+03  0.00000000000E+00 0.  1.
        -11    1    3    3    0    0  0.15908174234E+03  0.78228538270E+02  0.48828493629E+03  0.51946981043E+03  0.00000000000E+00 0. -1.
         22    1    1    2    0    0 -0.25390610962E+03 -0.84092737342E+02  0.74051146572E+03  0.78733546335E+03  0.00000000000E+00 0.  1.
<mgrwt>
<rscale>  0 0.55337147E+03</rscale>
<asrwt>0</asrwt>
<pdfrwt beam="1">  1        4 0.67146665E-02 0.55337147E+03</pdfrwt>
<pdfrwt beam="2">  1       -4 0.26984997E+00 0.55337147E+03</pdfrwt>
<totfact> 0.15177371E+01</totfact>
</mgrwt>
</event>
<event>
 6    1  0.2047711E-005  0.4661651E+03  0.7818608E-02  0.1023008E+00
          2   -1    0    0  501    0  0.00000000000E+00  0.00000000000E+00  0.22354635742E+03  0.22354635742E+03  0.00000000000E+00 0. -1.
         -2   -1    0    0    0  501 -0.00000000000E+00 -0.00000000000E+00 -0.24302558735E+03  0.24302558735E+03  0.00000000000E+00 0.  1.
         23    2    1    2    0    0  0.94600081807E+02  0.17130839700E+03 -0.11903120646E+03  0.24701252595E+03  0.92471711917E+02 0.  0.
         11    1    3    3    0    0  0.64886995569E+01  0.10733239209E+03 -0.61019396169E+02  0.12363540076E+03  0.00000000000E+00 0. -1.
        -11    1    3    3    0    0  0.88111382250E+02  0.63976004918E+02 -0.58011810290E+02  0.12337712519E+03  0.00000000000E+00 0.  1.
         22    1    1    2    0    0 -0.94600081807E+02 -0.17130839700E+03  0.99551976526E+02  0.21955941882E+03  0.00000000000E+00 0.  1.
<mgrwt>
<rscale>  0 0.46616514E+03</rscale>
<asrwt>0</asrwt>
<pdfrwt beam="1">  1        2 0.34391747E-01 0.46616514E+03</pdfrwt>
<pdfrwt beam="2">  1       -2 0.37388552E-01 0.46616514E+03</pdfrwt>
<totfact> 0.10295363E+03</totfact>
</mgrwt>
</event>
<event>
 6    1  0.2047711E-005  0.1090775E+04  0.7818608E-02  0.9214230E-01
          1   -1    0    0  501    0  0.00000000000E+00  0.00000000000E+00  0.19072118112E+04  0.19072118112E+04  0.00000000000E+00 0. -1.
         -1   -1    0    0    0  501 -0.00000000000E+00 -0.00000000000E+00 -0.15595942053E+03  0.15595942053E+03  0.00000000000E+00 0.  1.
         23    2    1    2    0    0  0.26666553744E+03  0.68664638798E+02  0.17637578268E+04  0.17875233995E+04  0.92589905837E+02 0.  0.
         13    1    3    3    0    0  0.16406608947E+03 -0.46084393667E+01  0.95666500451E+03  0.97064249355E+03  0.00000000000E+00 0.  1.
        -13    1    3    3    0    0  0.10259944797E+03  0.73273078164E+02  0.80709282230E+03  0.81688090595E+03  0.00000000000E+00 0. -1.
         22    1    1    2    0    0 -0.26666553744E+03 -0.68664638798E+02 -0.12505436134E+02  0.27564783223E+03  0.00000000000E+00 0.  1.
<mgrwt>
<rscale>  0 0.10907752E+04</rscale>
<asrwt>0</asrwt>
<pdfrwt beam="1">  1        1 0.29341719E+00 0.10907752E+04</pdfrwt>
<pdfrwt beam="2">  1       -1 0.23993758E-01 0.10907752E+04</pdfrwt>
<totfact> 0.51739368E+01</totfact>
</mgrwt>
</event>
<event>
 6    1  0.2047711E-005  0.2537831E+04  0.7818608E-02  0.8389631E-01
          1   -1    0    0  501    0  0.00000000000E+00  0.00000000000E+00  0.12376849644E+04  0.12376849644E+04  0.00000000000E+00 0. -1.
         -1   -1    0    0    0  501 -0.00000000000E+00 -0.00000000000E+00 -0.13009338908E+04  0.13009338908E+04  0.00000000000E+00 0.  1.
         23    2    1    2    0    0 -0.43473372482E+03 -0.88293523607E+03  0.76703832299E+03  0.12510067401E+04  0.90011289395E+02 0.  0.
         11    1    3    3    0    0 -0.16350173713E+03 -0.31179011542E+03  0.22176490786E+03  0.41608360756E+03  0.00000000000E+00 0. -1.
        -11    1    3    3    0    0 -0.27123198769E+03 -0.57114512065E+03  0.54527341513E+03  0.83492313253E+03  0.00000000000E+00 0.  1.
         22    1    1    2    0    0  0.43473372482E+03  0.88293523607E+03 -0.83028724935E+03  0.12876121151E+04  0.00000000000E+00 0.  1.
<mgrwt>
<rscale>  0 0.25378308E+04</rscale>
<asrwt>0</asrwt>
<pdfrwt beam="1">  1        1 0.19041307E+00 0.25378308E+04</pdfrwt>
<pdfrwt beam="2">  1       -1 0.20014367E+00 0.25378308E+04</pdfrwt>
<totfact> 0.13338042E+00</totfact>
</mgrwt>
</event>
<event>
 6    1  0.2047711E-005  0.1166721E+04  0.7818608E-02  0.9142495E-01
          2   -1    0    0  501    0  0.00000000000E+00  0.00000000000E+00  0.27085901718E+03  0.27085901718E+03  0.00000000000E+00 0.  1.
         -2   -1    0    0    0  501 -0.00000000000E+00 -0.00000000000E+00 -0.12564084348E+04  0.12564084348E+04  0.00000000000E+00 0. -1.
         23    2    1    2    0    0 -0.26967219427E+03 -0.30149753522E+03  0.47189831596E+02  0.41813526285E+03  0.94796422512E+02 0.  0.
         11    1    3    3    0    0 -0.10385505603E+03 -0.17045400643E+03 -0.77935408305E+01  0.19975279785E+03  0.00000000000E+00 0. -1.
        -11    1    3    3    0    0 -0.16581713825E+03 -0.13104352879E+03  0.54983372427E+02  0.21838246500E+03  0.00000000000E+00 0.  1.
         22    1    1    2    0    0  0.26967219427E+03  0.30149753522E+03 -0.10327392492E+04  0.11091321891E+04  0.00000000000E+00 0. -1.
<mgrwt>
<rscale>  0 0.11667211E+04</rscale>
<asrwt>0</asrwt>
<pdfrwt beam="1">  1        2 0.41670618E-01 0.11667211E+04</pdfrwt>
<pdfrwt beam="2">  1       -2 0.19329360E+00 0.11667211E+04</pdfrwt>
<totfact> 0.17914664E+01</totfact>
</mgrwt>
</event>
<event>
 6    1  0.2047711E-005  0.3623484E+04  0.7818608E-02  0.8085134E-01
          2   -1    0    0  501    0  0.00000000000E+00  0.00000000000E+00  0.23132979652E+04  0.23132979652E+04  0.00000000000E+00 0.  1.
         -2   -1    0    0    0  501 -0.00000000000E+00 -0.00000000000E+00 -0.14189301725E+04  0.14189301725E+04  0.00000000000E+00 0. -1.
         23    2    1    2    0    0 -0.97577859287E+02  0.17487493080E+04 -0.25172092878E+02  0.17540473618E+04  0.91667509043E+02 0.  0.
         11    1    3    3    0    0 -0.62099723174E+02  0.45834732726E+03  0.10713048982E+02  0.46265907258E+03  0.00000000000E+00 0. -1.
        -11    1    3    3    0    0 -0.35478136113E+02  0.12904019808E+04 -0.35885141860E+02  0.12913882892E+04  0.00000000000E+00 0.  1.
         22    1    1    2    0    0  0.97577859287E+02 -0.17487493080E+04  0.91953988561E+03  0.19781807759E+04  0.00000000000E+00 0.  1.
<mgrwt>
<rscale>  0 0.36234836E+04</rscale>
<asrwt>0</asrwt>
<pdfrwt beam="1">  1        2 0.35589199E+00 0.36234836E+04</pdfrwt>
<pdfrwt beam="2">  1       -2 0.21829695E+00 0.36234836E+04</pdfrwt>
<totfact> 0.36724909E-01</totfact>
</mgrwt>
</event>
<event>
 6    1  0.2047711E-005  0.1060537E+04  0.7818608E-02  0.9244532E-01
         -2   -1    0    0    0  501 -0.00000000000E+00  0.00000000000E+00  0.29771037829E+03  0.29771037829E+03  0.00000000000E+00 0.  1.
          2   -1    0    0  501    0  0.00000000000E+00 -0.00000000000E+00 -0.94449137185E+03  0.94449137185E+03  0.00000000000E+00 0. -1.
         23    2    1    2    0    0 -0.28199616682E+03  0.27319309897E+03 -0.73639392103E+03  0.83947754650E+03  0.91050737022E+02 0.  0.
         13    1    3    3    0    0 -0.21462332372E+03  0.25401363201E+03 -0.59264502295E+03  0.67956914259E+03  0.00000000000E+00 0.  1.
        -13    1    3    3    0    0 -0.67372843098E+02  0.19179466958E+02 -0.14374889809E+03  0.15990840391E+03  0.00000000000E+00 0. -1.
         22    1    1    2    0    0  0.28199616682E+03 -0.27319309897E+03  0.89612927475E+02  0.40272420364E+03  0.00000000000E+00 0.  1.
<mgrwt>
<rscale>  0 0.10605374E+04</rscale>
<asrwt>0</asrwt>
<pdfrwt beam="1">  1        2 0.14530637E+00 0.10605374E+04</pdfrwt>
<pdfrwt beam="2">  1       -2 0.45801596E-01 0.10605374E+04</pdfrwt>
<totfact> 0.12310366E+02</totfact>
</mgrwt>
</event>
<event>
 6    1  0.2047711E-005  0.3291187E+04  0.7818608E-02  0.8165141E-01
         -2   -1    0    0    0  501 -0.00000000000E+00  0.00000000000E+00  0.21429404342E+04  0.21429404342E+04  0.00000000000E+00 0.  1.
          2   -1    0    0  501    0  0.00000000000E+00 -0.00000000000E+00 -0.12636741662E+04  0.12636741662E+04  0.00000000000E+00 0. -1.
         23    2    1    2    0    0  0.35318695171E+03 -0.63021564337E+03 -0.10890293978E+04  0.13099265911E+04  0.89497847444E+02 0.  0.
         13    1    3    3    0    0  0.10285378365E+03 -0.24524484305E+03 -0.34504975861E+03  0.43564121680E+03  0.00000000000E+00 0. -1.
        -13    1    3    3    0    0  0.25033316806E+03 -0.38497080031E+03 -0.74397963921E+03  0.87428537428E+03  0.00000000000E+00 0.  1.
         22    1    1    2    0    0 -0.35318695171E+03  0.63021564337E+03  0.19682956659E+04  0.20966880093E+04  0.00000000000E+00 0.  1.
<mgrwt>
<rscale>  0 0.32911873E+04</rscale>
<asrwt>0</asrwt>
<pdfrwt beam="1">  1        2 0.19441141E+00 0.32911873E+04</pdfrwt>
<pdfrwt beam="2">  1       -2 0.32968314E+00 0.32911873E+04</pdfrwt>
<totfact> 0.30252612E-01</totfact>
</mgrwt>
</event>
<event>
 6    1  0.2047711E-005  0.2629899E+04  0.7818608E-02  0.8358116E-01
          2   -1    0    0  501    0  0.00000000000E+00  0.00000000000E+00  0.20525128426E+04  0.20525128426E+04  0.00000000000E+00 0. -1.
         -2   -1    0    0    0  501 -0.00000000000E+00 -0.00000000000E+00 -0.84242694340E+03  0.84242694340E+03  0.00000000000E+00 0.  1.
         23    2    1    2    0    0  0.47469832973E+03  0.43403638917E+03 -0.65464522418E+03  0.92239111642E+03  0.92297945470E+02 0.  0.
         13    1    3    3    0    0  0.16532705314E+03  0.15544741084E+03 -0.29538687795E+03  0.37249206663E+03  0.00000000000E+00 0. -1.
        -13    1    3    3    0    0  0.30937127659E+03  0.27858897833E+03 -0.35925834623E+03  0.54989904979E+03  0.00000000000E+00 0.  1.
         22    1    1    2    0    0 -0.47469832973E+03 -0.43403638917E+03  0.18647311234E+04  0.19725486696E+04  0.00000000000E+00 0. -1.
<mgrwt>
<rscale>  0 0.26298989E+04</rscale>
<asrwt>0</asrwt>
<pdfrwt beam="1">  1        2 0.31577121E+00 0.26298989E+04</pdfrwt>
<pdfrwt beam="2">  1       -2 0.12960415E+00 0.26298989E+04</pdfrwt>
<totfact> 0.24121227E+00</totfact>
</mgrwt>
</event>
<event>
 6    1  0.2047711E-005  0.3245956E+04  0.7818608E-02  0.8176785E-01
          2   -1    0    0  501    0  0.00000000000E+00  0.00000000000E+00  0.19031412888E+04  0.19031412888E+04  0.00000000000E+00 0. -1.
         -2   -1    0    0    0  501 -0.00000000000E+00 -0.00000000000E+00 -0.13840574232E+04  0.13840574232E+04  0.00000000000E+00 0.  1.
         23    2    1    2    0    0  0.15879013798E+03 -0.10445642181E+04  0.15057238569E+04  0.18415890875E+04  0.88979325632E+02 0.  0.
         11    1    3    3    0    0  0.95805492359E+02 -0.41020594065E+03  0.55033347942E+03  0.69304728892E+03  0.00000000000E+00 0. -1.
        -11    1    3    3    0    0  0.62984645620E+02 -0.63435827748E+03  0.95539037748E+03  0.11485417986E+04  0.00000000000E+00 0.  1.
         22    1    1    2    0    0 -0.15879013798E+03  0.10445642181E+04 -0.98663999132E+03  0.14456096244E+04  0.00000000000E+00 0.  1.
<mgrwt>
<rscale>  0 0.32459555E+04</rscale>
<asrwt>0</asrwt>
<pdfrwt beam="1">  1        2 0.29279097E+00 0.32459555E+04</pdfrwt>
<pdfrwt beam="2">  1       -2 0.21293191E+00 0.32459555E+04</pdfrwt>
<totfact> 0.69569808E-01</totfact>
</mgrwt>
</event>
<event>
 6    1  0.2047711E-005  0.4185499E+03  0.7818608E-02  0.1037539E+00
         -2   -1    0    0    0  501 -0.00000000000E+00  0.00000000000E+00  0.70996861679E+02  0.70996861679E+02  0.00000000000E+00 0.  1.
          2   -1    0    0  501    0  0.00000000000E+00 -0.00000000000E+00 -0.61687247150E+03  0.61687247150E+03  0.00000000000E+00 0. -1.
         23    2    1    2    0    0 -0.17386976628E+03  0.72357428706E+02 -0.18749006837E+03  0.28301566895E+03  0.97360412995E+02 0.  0.
         11    1    3    3    0    0 -0.18442259649E+02  0.35694570776E+02 -0.82893232442E+02  0.92116813386E+02  0.00000000000E+00 0. -1.
        -11    1    3    3    0    0 -0.15542750664E+03  0.36662857930E+02 -0.10459683593E+03  0.19089885557E+03  0.00000000000E+00 0.  1.
         22    1    1    2    0    0  0.17386976628E+03 -0.72357428706E+02 -0.35838554145E+03  0.40485366422E+03  0.00000000000E+00 0. -1.
<mgrwt>
<rscale>  0 0.41854992E+03</rscale>
<asrwt>0</asrwt>
<pdfrwt beam="1">  1        2 0.94903457E-01 0.41854992E+03</pdfrwt>
<pdfrwt beam="2">  1       -2 0.10922594E-01 0.41854992E+03</pdfrwt>
<totfact> 0.28282266E+03</totfact>
</mgrwt>
</event>
<event>
 6    1  0.2047711E-005  0.9249340E+03  0.7818608E-02  0.9394938E-01
         -1   -1    0    0    0  501 -0.00000000000E+00  0.00000000000E+00  0.75524087018E+03  0.75524087018E+03  0.00000000000E+00 0.  1.
          1   -1    0    0  501    0  0.00000000000E+00 -0.00000000000E+00 -0.28318879012E+03  0.28318879012E+03  0.00000000000E+00 0. -1.
         23    2    1    2    0    0 -0.26332241735E+03  0.18359195731E+03  0.60505880236E+03  0.69095953145E+03  0.91017676978E+02 0.  0.
         11    1    3    3    0    0 -0.14624424031E+03  0.71918665104E+02  0.22434117159E+03  0.27728799737E+03  0.00000000000E+00 0. -1.
        -11    1    3    3    0    0 -0.11707817704E+03  0.11167329220E+03  0.38071763077E+03  0.41367153408E+03  0.00000000000E+00 0.  1.
         22    1    1    2    0    0  0.26332241735E+03 -0.18359195731E+03 -0.13300672231E+03  0.34747012885E+03  0.00000000000E+00 0. -1.
<mgrwt>
<rscale>  0 0.92493405E+03</rscale>
<asrwt>0</asrwt>
<pdfrwt beam="1">  1        1 0.43567507E-01 0.92493405E+03</pdfrwt>
<pdfrwt beam="2">  1       -1 0.11619090E+00 0.92493405E+03</pdfrwt>
<totfact> 0.63751831E+01</totfact>
</mgrwt>
</event>
<event>
 6    1  0.2047711E-005  0.3126067E+04  0.7818608E-02  0.8208620E-01
          2   -1    0    0  501    0  0.00000000000E+00  0.00000000000E+00  0.16342245600E+04  0.16342245600E+04  0.00000000000E+00 0. -1.
         -2   -1    0    0    0  501 -0.00000000000E+00 -0.00000000000E+00 -0.14949439181E+04  0.14949439181E+04  0.00000000000E+00 0.  1.
         23    2    1    2    0    0  0.12930655916E+04 -0.78223166749E+03 -0.32447804824E+03  0.15483531414E+04  0.90589408127E+02 0.  0.
         13    1    3    3    0    0  0.93686336444E+03 -0.55660880793E+03 -0.27432001691E+03  0.11237338655E+04  0.00000000000E+00 0.  1.
        -13    1    3    3    0    0  0.35620222720E+03 -0.22562285956E+03 -0.50158031334E+02  0.42461927597E+03  0.00000000000E+00 0. -1.
         22    1    1    2    0    0 -0.12930655916E+04  0.78223166749E+03  0.46375869017E+03  0.15808153367E+04  0.00000000000E+00 0. -1.
<mgrwt>
<rscale>  0 0.31260672E+04</rscale>
<asrwt>0</asrwt>
<pdfrwt beam="1">  1        2 0.25141916E+00 0.31260672E+04</pdfrwt>
<pdfrwt beam="2">  1       -2 0.22999137E+00 0.31260672E+04</pdfrwt>
<totfact> 0.77310434E-01</totfact>
</mgrwt>
</event>
<event>
 6    1  0.2047711E-005  0.1038107E+04  0.7818608E-02  0.9267709E-01
         -1   -1    0    0    0  501 -0.00000000000E+00  0.00000000000E+00  0.64592076291E+03  0.64592076291E+03  0.00000000000E+00 0.  1.
          1   -1    0    0  501    0  0.00000000000E+00 -0.00000000000E+00 -0.41710479279E+03  0.41710479279E+03  0.00000000000E+00 0. -1.
         23    2    1    2    0    0 -0.43038365543E+03 -0.21222388763E+03  0.30401122912E+03  0.57730609313E+03  0.10290980707E+03 0.  0.
         11    1    3    3    0    0 -0.18336377975E+03 -0.12595282664E+03  0.92763018503E+02  0.24102150913E+03  0.00000000000E+00 0. -1.
        -11    1    3    3    0    0 -0.24701987568E+03 -0.86271060993E+02  0.21124821062E+03  0.33628458400E+03  0.00000000000E+00 0.  1.
         22    1    1    2    0    0  0.43038365543E+03  0.21222388763E+03 -0.75195259009E+02  0.48571946257E+03  0.00000000000E+00 0. -1.
<mgrwt>
<rscale>  0 0.10381072E+04</rscale>
<asrwt>0</asrwt>
<pdfrwt beam="1">  1        1 0.64169968E-01 0.10381072E+04</pdfrwt>
<pdfrwt beam="2">  1       -1 0.99372425E-01 0.10381072E+04</pdfrwt>
<totfact> 0.54903576E+01</totfact>
</mgrwt>
</event>
<event>
 6    1  0.2047711E-005  0.2808920E+04  0.7818608E-02  0.8300505E-01
         -2   -1    0    0    0  501 -0.00000000000E+00  0.00000000000E+00  0.11169141067E+04  0.11169141067E+04  0.00000000000E+00 0. -1.
          2   -1    0    0  501    0  0.00000000000E+00 -0.00000000000E+00 -0.17660332428E+04  0.17660332428E+04  0.00000000000E+00 0.  1.
         23    2    1    2    0    0 -0.46519078431E+02 -0.13926791094E+04 -0.15860732807E+03  0.14056792762E+04  0.95177814879E+02 0.  0.
         13    1    3    3    0    0 -0.69815152665E+02 -0.66988182332E+03 -0.72739522734E+02  0.67742663877E+03  0.00000000000E+00 0.  1.
        -13    1    3    3    0    0  0.23296074234E+02 -0.72279728612E+03 -0.85867805335E+02  0.72825263741E+03  0.00000000000E+00 0. -1.
         22    1    1    2    0    0  0.46519078431E+02  0.13926791094E+04 -0.49051180802E+03  0.14772680733E+04  0.00000000000E+00 0.  1.
<mgrwt>
<rscale>  0 0.28089197E+04</rscale>
<asrwt>0</asrwt>
<pdfrwt beam="1">  1        2 0.27169742E+00 0.28089197E+04</pdfrwt>
<pdfrwt beam="2">  1       -2 0.17183294E+00 0.28089197E+04</pdfrwt>
<totfact> 0.16210645E+00</totfact>
</mgrwt>
</event>
<event>
 6    1  0.2047711E-005  0.4078125E+04  0.7818608E-02  0.7988969E-01
         -1   -1    0    0    0  501 -0.00000000000E+00  0.00000000000E+00  0.21337324431E+04  0.21337324431E+04  0.00000000000E+00 0.  1.
          1   -1    0    0  501    0  0.00000000000E+00 -0.00000000000E+00 -0.19485926292E+04  0.19485926292E+04  0.00000000000E+00 0. -1.
         23    2    1    2    0    0 -0.50393853339E+03 -0.47813802895E+03  0.20105988839E+04  0.21291556387E+04  0.90696427321E+02 0.  0.
         13    1    3    3    0    0 -0.24644426334E+03 -0.24107454685E+03  0.86093353050E+03  0.92739325855E+03  0.00000000000E+00 0.  1.
        -13    1    3    3    0    0 -0.25749427005E+03 -0.23706348210E+03  0.11496653534E+04  0.12017623802E+04  0.00000000000E+00 0. -1.
         22    1    1    2    0    0  0.50393853339E+03  0.47813802895E+03 -0.18254590699E+04  0.19531694335E+04  0.00000000000E+00 0. -1.
<mgrwt>
<rscale>  0 0.40781247E+04</rscale>
<asrwt>0</asrwt>
<pdfrwt beam="1">  1        1 0.29978348E+00 0.40781247E+04</pdfrwt>
<pdfrwt beam="2">  1       -1 0.32826653E+00 0.40781247E+04</pdfrwt>
<totfact> 0.54260521E-02</totfact>
</mgrwt>
</event>
<event>
 6    1  0.2047711E-005  0.4256022E+04  0.7818608E-02  0.7954801E-01
         -2   -1    0    0    0  501 -0.00000000000E+00  0.00000000000E+00  0.11488281690E+04  0.11488281690E+04  0.00000000000E+00 0.  1.
          2   -1    0    0  501    0  0.00000000000E+00 -0.00000000000E+00 -0.39417818688E+04  0.39417818688E+04  0.00000000000E+00 0. -1.
         23    2    1    2    0    0  0.24724843382E+03 -0.14172461476E+04  0.47684403106E+03  0.15183144690E+04  0.90444268783E+02 0.  0.
         13    1    3    3    0    0  0.14091997538E+03 -0.55087844004E+03  0.18587037888E+03  0.59822511892E+03  0.00000000000E+00 0. -1.
        -13    1    3    3    0    0  0.10632845844E+03 -0.86636770758E+03  0.29097365218E+03  0.92008935005E+03  0.00000000000E+00 0.  1.
         22    1    1    2    0    0 -0.24724843382E+03  0.14172461476E+04 -0.32697977309E+04  0.35722955689E+04  0.00000000000E+00 0. -1.
<mgrwt>
<rscale>  0 0.42560216E+04</rscale>
<asrwt>0</asrwt>
<pdfrwt beam="1">  1        2 0.60642798E+00 0.42560216E+04</pdfrwt>
<pdfrwt beam="2">  1       -2 0.17674279E+00 0.42560216E+04</pdfrwt>
<totfact> 0.56036923E-02</totfact>
</mgrwt>
</event>
<event>
 6    1  0.2047711E-005  0.2534536E+04  0.7818608E-02  0.8390784E-01
         -2   -1    0    0    0  501 -0.00000000000E+00  0.00000000000E+00  0.20370722706E+04  0.20370722706E+04  0.00000000000E+00 0. -1.
          2   -1    0    0  501    0  0.00000000000E+00 -0.00000000000E+00 -0.78837101293E+03  0.78837101293E+03  0.00000000000E+00 0.  1.
         23    2    1    2    0    0  0.30161914315E+03 -0.14279408451E+03  0.19861078529E+04  0.20160405748E+04  0.91820139766E+02 0.  0.
         11    1    3    3    0    0  0.18958077578E+03 -0.82090466572E+02  0.95507894640E+03  0.97716708352E+03  0.00000000000E+00 0. -1.
        -11    1    3    3    0    0  0.11203836737E+03 -0.60703617942E+02  0.10310289065E+04  0.10388734913E+04  0.00000000000E+00 0.  1.
         22    1    1    2    0    0 -0.30161914315E+03  0.14279408451E+03 -0.73740659524E+03  0.80940270866E+03  0.00000000000E+00 0.  1.
<mgrwt>
<rscale>  0 0.25345364E+04</rscale>
<asrwt>0</asrwt>
<pdfrwt beam="1">  1        2 0.12128785E+00 0.25345364E+04</pdfrwt>
<pdfrwt beam="2">  1       -2 0.31339573E+00 0.25345364E+04</pdfrwt>
<totfact> 0.82168473E-01</totfact>
</mgrwt>
</event>
<event>
 6    1  0.2047711E-005  0.2542393E+04  0.7818608E-02  0.8388037E-01
         -2   -1    0    0    0  501 -0.00000000000E+00  0.00000000000E+00  0.19145138648E+04  0.19145138648E+04  0.00000000000E+00 0.  1.
          2   -1    0    0  501    0  0.00000000000E+00 -0.00000000000E+00 -0.84404733317E+03  0.84404733317E+03  0.00000000000E+00 0. -1.
         23    2    1    2    0    0 -0.75906151477E+03  0.66634023441E+03 -0.29868138032E+03  0.10571648021E+04  0.90571301048E+02 0.  0.
         13    1    3    3    0    0 -0.24776662221E+03  0.25204316215E+03 -0.68610125522E+02  0.36002972654E+03  0.00000000000E+00 0. -1.
        -13    1    3    3    0    0 -0.51129489256E+03  0.41429707226E+03 -0.23007125479E+03  0.69713507553E+03  0.00000000000E+00 0.  1.
         22    1    1    2    0    0  0.75906151477E+03 -0.66634023441E+03  0.13691479120E+04  0.17013963959E+04  0.00000000000E+00 0.  1.
<mgrwt>
<rscale>  0 0.25423928E+04</rscale>
<asrwt>0</asrwt>
<pdfrwt beam="1">  1        2 0.12985344E+00 0.25423928E+04</pdfrwt>
<pdfrwt beam="2">  1       -2 0.29454059E+00 0.25423928E+04</pdfrwt>
<totfact> 0.97768819E-01</totfact>
</mgrwt>
</event>
<event>
 6    1  0.2047711E-005  0.4653491E+03  0.7818608E-02  0.1023241E+00
          2   -1    0    0  501    0  0.00000000000E+00  0.00000000000E+00  0.60508384224E+02  0.60508384224E+02  0.00000000000E+00 0. -1.
         -2   -1    0    0    0  501 -0.00000000000E+00 -0.00000000000E+00 -0.89470997558E+03  0.89470997558E+03  0.00000000000E+00 0.  1.
         23    2    1    2    0    0  0.24622510285E+02 -0.19441120725E+03 -0.63961364875E+03  0.67905454442E+03  0.11665105708E+03 0.  0.
         11    1    3    3    0    0  0.63192821292E+02 -0.61752582525E+02 -0.21190845248E+03  0.22959073663E+03  0.00000000000E+00 0. -1.
        -11    1    3    3    0    0 -0.38570311007E+02 -0.13265862473E+03 -0.42770519626E+03  0.44946380779E+03  0.00000000000E+00 0.  1.
         22    1    1    2    0    0 -0.24622510285E+02  0.19441120725E+03 -0.19458794261E+03  0.27616381538E+03  0.00000000000E+00 0. -1.
<mgrwt>
<rscale>  0 0.46534914E+03</rscale>
<asrwt>0</asrwt>
<pdfrwt beam="1">  1        2 0.93089824E-02 0.46534914E+03</pdfrwt>
<pdfrwt beam="2">  1       -2 0.13764769E+00 0.46534914E+03</pdfrwt>
<totfact> 0.27746812E+02</totfact>
</mgrwt>
</event>
<event>
 6    1  0.2047711E-005  0.4486899E+04  0.7818608E-02  0.7912934E-01
          2   -1    0    0  501    0  0.00000000000E+00  0.00000000000E+00  0.14266391492E+04  0.14266391492E+04  0.00000000000E+00 0. -1.
         -2   -1    0    0    0  501 -0.00000000000E+00 -0.00000000000E+00 -0.35279184258E+04  0.35279184258E+04  0.00000000000E+00 0.  1.
         23    2    1    2    0    0 -0.16337003722E+04  0.15099310308E+04 -0.13592475187E+04  0.26094606146E+04  0.11341189596E+03 0.  0.
         13    1    3    3    0    0 -0.84482228630E+03  0.77077554730E+03 -0.76452131536E+03  0.13756134927E+04  0.00000000000E+00 0. -1.
        -13    1    3    3    0    0 -0.78887808593E+03  0.73915548351E+03 -0.59472620338E+03  0.12338471219E+04  0.00000000000E+00 0.  1.
         22    1    1    2    0    0  0.16337003722E+04 -0.15099310308E+04 -0.74203175783E+03  0.23450969604E+04  0.00000000000E+00 0. -1.
<mgrwt>
<rscale>  0 0.44868994E+04</rscale>
<asrwt>0</asrwt>
<pdfrwt beam="1">  1        2 0.21948295E+00 0.44868994E+04</pdfrwt>
<pdfrwt beam="2">  1       -2 0.54275667E+00 0.44868994E+04</pdfrwt>
<totfact> 0.99265895E-03</totfact>
</mgrwt>
</event>
<event>
 6    1  0.2047711E-005  0.5984470E+03  0.7818608E-02  0.9908633E-01
          2   -1    0    0  501    0  0.00000000000E+00  0.00000000000E+00  0.23904235343E+04  0.23904235343E+04  0.00000000000E+00 0. -1.
         -2   -1    0    0    0  501 -0.00000000000E+00 -0.00000000000E+00 -0.37455577652E+02  0.37455577652E+02  0.00000000000E+00 0.  1.
         23    2    1    2    0    0 -0.97794834121E+02  0.24871512796E+03  0.74307681638E+03  0.79595615790E+03  0.99799828625E+02 0.  0.
         13    1    3    3    0    0 -0.89895740085E+02  0.10760189566E+03  0.43425013985E+03  0.45632509901E+03  0.00000000000E+00 0. -1.
        -13    1    3    3    0    0 -0.78990940360E+01  0.14111323231E+03  0.30882667654E+03  0.33963105889E+03  0.00000000000E+00 0.  1.
         22    1    1    2    0    0  0.97794834121E+02 -0.24871512796E+03  0.16098911402E+04  0.16319229540E+04  0.00000000000E+00 0.  1.
<mgrwt>
<rscale>  0 0.59844697E+03</rscale>
<asrwt>0</asrwt>
<pdfrwt beam="1">  1        2 0.36775735E+00 0.59844697E+03</pdfrwt>
<pdfrwt beam="2">  1       -2 0.57623984E-02 0.59844697E+03</pdfrwt>
<totfact> 0.69732721E+02</totfact>
</mgrwt>
</event>
<event>
 6    1  0.2047711E-005  0.1014109E+04  0.7818608E-02  0.9293205E-01
          2   -1    0    0  501    0  0.00000000000E+00  0.00000000000E+00  0.12243897110E+03  0.12243897110E+03  0.00000000000E+00 0. -1.
         -2   -1    0    0    0  501 -0.00000000000E+00 -0.00000000000E+00 -0.20998554138E+04  0.20998554138E+04  0.00000000000E+00 0.  1.
         23    2    1    2    0    0 -0.16733462385E+03 -0.45862384754E+03 -0.73123956139E+03  0.88390224156E+03  0.90747818851E+02 0.  0.
         13    1    3    3    0    0 -0.18088516501E+02 -0.17061643537E+03 -0.27402942970E+03  0.32330989900E+03  0.00000000000E+00 0.  1.
        -13    1    3    3    0    0 -0.14924610735E+03 -0.28800741216E+03 -0.45721013169E+03  0.56059234256E+03  0.00000000000E+00 0. -1.
         22    1    1    2    0    0  0.16733462385E+03  0.45862384754E+03 -0.12461768813E+04  0.13383921433E+04  0.00000000000E+00 0. -1.
<mgrwt>
<rscale>  0 0.10141087E+04</rscale>
<asrwt>0</asrwt>
<pdfrwt beam="1">  1        2 0.18836765E-01 0.10141087E+04</pdfrwt>
<pdfrwt beam="2">  1       -2 0.32305467E+00 0.10141087E+04</pdfrwt>
<totfact> 0.71161313E+00</totfact>
</mgrwt>
</event>
<event>
 6    1  0.2047711E-005  0.5822660E+04  0.7818608E-02  0.7712787E-01
         -2   -1    0    0    0  501 -0.00000000000E+00  0.00000000000E+00  0.50992913514E+04  0.50992913514E+04  0.00000000000E+00 0.  1.
          2   -1    0    0  501    0  0.00000000000E+00 -0.00000000000E+00 -0.16621606694E+04  0.16621606694E+04  0.00000000000E+00 0. -1.
         23    2    1    2    0    0 -0.27042139267E+04  0.18791604518E+03  0.29498814093E+04  0.40072738757E+04  0.91423104383E+02 0.  0.
         13    1    3    3    0    0 -0.11916070029E+04  0.12303195474E+03  0.13344562556E+04  0.17932756646E+04  0.00000000000E+00 0.  1.
        -13    1    3    3    0    0 -0.15126069238E+04  0.64884090442E+02  0.16154251537E+04  0.22139982111E+04  0.00000000000E+00 0. -1.
         22    1    1    2    0    0  0.27042139267E+04 -0.18791604518E+03  0.48724927268E+03  0.27541781452E+04  0.00000000000E+00 0. -1.
<mgrwt>
<rscale>  0 0.58226597E+04</rscale>
<asrwt>0</asrwt>
<pdfrwt beam="1">  1        2 0.25571703E+00 0.58226597E+04</pdfrwt>
<pdfrwt beam="2">  1       -2 0.78450636E+00 0.58226597E+04</pdfrwt>
<totfact> 0.68162787E-04</totfact>
</mgrwt>
</event>
<event>
 6    1  0.2047711E-005  0.2213725E+04  0.7818608E-02  0.8512737E-01
         -1   -1    0    0    0  501 -0.00000000000E+00  0.00000000000E+00  0.81182044633E+03  0.81182044633E+03  0.00000000000E+00 0.  1.
          1   -1    0    0  501    0  0.00000000000E+00 -0.00000000000E+00 -0.15091319937E+04  0.15091319937E+04  0.00000000000E+00 0. -1.
         23    2    1    2    0    0 -0.77560924867E+03 -0.10683273680E+03 -0.11668245532E+04  0.14080310837E+04  0.89939170268E+02 0.  0.
         13    1    3    3    0    0 -0.31705527141E+03 -0.66061315197E+02 -0.55134518145E+03  0.63942916073E+03  0.00000000000E+00 0. -1.
        -13    1    3    3    0    0 -0.45855397727E+03 -0.40771421602E+02 -0.61547937177E+03  0.76860192295E+03  0.00000000000E+00 0.  1.
         22    1    1    2    0    0  0.77560924867E+03  0.10683273680E+03  0.46951300582E+03  0.91292135637E+03  0.00000000000E+00 0.  1.
<mgrwt>
<rscale>  0 0.22137247E+04</rscale>
<asrwt>0</asrwt>
<pdfrwt beam="1">  1        1 0.23217415E+00 0.22137247E+04</pdfrwt>
<pdfrwt beam="2">  1       -1 0.12489545E+00 0.22137247E+04</pdfrwt>
<totfact> 0.32923287E+00</totfact>
</mgrwt>
</event>
<event>
 6    1  0.2047711E-005  0.3058576E+04  0.7818608E-02  0.8227199E-01
         -1   -1    0    0    0  501 -0.00000000000E+00  0.00000000000E+00  0.11319740607E+04  0.11319740607E+04  0.00000000000E+00 0.  1.
          1   -1    0    0  501    0  0.00000000000E+00 -0.00000000000E+00 -0.20660564180E+04  0.20660564180E+04  0.00000000000E+00 0. -1.
         23    2    1    2    0    0  0.79045687003E+03 -0.12348392619E+04 -0.18244221345E+02  0.14693287817E+04  0.94573521860E+02 0.  0.
         11    1    3    3    0    0  0.22961086757E+03 -0.42904995025E+03  0.17245353748E+02  0.48693163025E+03  0.00000000000E+00 0. -1.
        -11    1    3    3    0    0  0.56084600246E+03 -0.80578931160E+03 -0.35489575093E+02  0.98239715141E+03  0.00000000000E+00 0.  1.
         22    1    1    2    0    0 -0.79045687003E+03  0.12348392619E+04 -0.91583813591E+03  0.17287016970E+04  0.00000000000E+00 0.  1.
<mgrwt>
<rscale>  0 0.30585763E+04</rscale>
<asrwt>0</asrwt>
<pdfrwt beam="1">  1        1 0.31785483E+00 0.30585763E+04</pdfrwt>
<pdfrwt beam="2">  1       -1 0.17414986E+00 0.30585763E+04</pdfrwt>
<totfact> 0.52214345E-01</totfact>
</mgrwt>
</event>
<event>
 6    1  0.2047711E-005  0.1347058E+04  0.7818608E-02  0.8993058E-01
         -2   -1    0    0    0  501 -0.00000000000E+00  0.00000000000E+00  0.49404983420E+03  0.49404983420E+03  0.00000000000E+00 0. -1.
          2   -1    0    0  501    0  0.00000000000E+00 -0.00000000000E+00 -0.91821010740E+03  0.91821010740E+03  0.00000000000E+00 0.  1.
         23    2    1    2    0    0  0.35335647340E+03  0.39627669041E+03 -0.64202696003E+03  0.83835933531E+03  0.93550761842E+02 0.  0.
         11    1    3    3    0    0  0.12878033208E+03  0.14936484179E+03 -0.17075266288E+03  0.26086529431E+03  0.00000000000E+00 0. -1.
        -11    1    3    3    0    0  0.22457614132E+03  0.24691184862E+03 -0.47127429715E+03  0.57749404101E+03  0.00000000000E+00 0.  1.
         22    1    1    2    0    0 -0.35335647340E+03 -0.39627669041E+03  0.21786668683E+03  0.57390060628E+03  0.00000000000E+00 0. -1.
<mgrwt>
<rscale>  0 0.13470584E+04</rscale>
<asrwt>0</asrwt>
<pdfrwt beam="1">  1        2 0.14126309E+00 0.13470584E+04</pdfrwt>
<pdfrwt beam="2">  1       -2 0.76007667E-01 0.13470584E+04</pdfrwt>
<totfact> 0.43182241E+01</totfact>
</mgrwt>
</event>
<event>
 6    1  0.2047711E-005  0.3209192E+04  0.7818608E-02  0.8186394E-01
          2   -1    0    0  501    0  0.00000000000E+00  0.00000000000E+00  0.25207773947E+04  0.25207773947E+04  0.00000000000E+00 0. -1.
         -2   -1    0    0    0  501 -0.00000000000E+00 -0.00000000000E+00 -0.10214025551E+04  0.10214025551E+04  0.00000000000E+00 0.  1.
         23    2    1    2    0    0  0.65415046660E+03 -0.64240457116E+03 -0.70139457466E+03  0.11580695327E+04  0.92597123517E+02 0.  0.
         11    1    3    3    0    0  0.13337643340E+03 -0.89262720103E+02 -0.14629468761E+03  0.21716178718E+03  0.00000000000E+00 0. -1.
        -11    1    3    3    0    0  0.52077403320E+03 -0.55314185106E+03 -0.55509988704E+03  0.94090774555E+03  0.00000000000E+00 0.  1.
         22    1    1    2    0    0 -0.65415046660E+03  0.64240457116E+03  0.22007694142E+04  0.23841104170E+04  0.00000000000E+00 0. -1.
<mgrwt>
<rscale>  0 0.32091921E+04</rscale>
<asrwt>0</asrwt>
<pdfrwt beam="1">  1        2 0.38781190E+00 0.32091921E+04</pdfrwt>
<pdfrwt beam="2">  1       -2 0.15713886E+00 0.32091921E+04</pdfrwt>
<totfact> 0.75349511E-01</totfact>
</mgrwt>
</event>
<event>
 6    1  0.2047711E-005  0.2069789E+04  0.7818608E-02  0.8574670E-01
          2   -1    0    0  501    0  0.00000000000E+00  0.00000000000E+00  0.22942354242E+04  0.22942354242E+04  0.00000000000E+00 0.  1.
         -2   -1    0    0    0  501 -0.00000000000E+00 -0.00000000000E+00 -0.46682496358E+03  0.46682496358E+03  0.00000000000E+00 0. -1.
         23    2    1    2    0    0  0.33806567632E+03 -0.97363807721E+03  0.10041118210E+04  0.14419394089E+04  0.93215894695E+02 0.  0.
         13    1    3    3    0    0  0.89143854575E+02 -0.16941403492E+03  0.15615947574E+03  0.24704963853E+03  0.00000000000E+00 0. -1.
        -13    1    3    3    0    0  0.24892182174E+03 -0.80422404229E+03  0.84795234530E+03  0.11948897704E+04  0.00000000000E+00 0.  1.
         22    1    1    2    0    0 -0.33806567632E+03  0.97363807721E+03  0.82329863959E+03  0.13191209788E+04  0.00000000000E+00 0.  1.
<mgrwt>
<rscale>  0 0.20697888E+04</rscale>
<asrwt>0</asrwt>
<pdfrwt beam="1">  1        2 0.35295929E+00 0.20697888E+04</pdfrwt>
<pdfrwt beam="2">  1       -2 0.71819227E-01 0.20697888E+04</pdfrwt>
<totfact> 0.74157190E+00</totfact>
</mgrwt>
</event>
<event>
 6    1  0.2047711E-005  0.2896897E+04  0.7818608E-02  0.8273801E-01
         -1   -1    0    0    0  501 -0.00000000000E+00  0.00000000000E+00  0.62007260874E+03  0.62007260874E+03  0.00000000000E+00 0.  1.
          1   -1    0    0  501    0  0.00000000000E+00 -0.00000000000E+00 -0.33834793085E+04  0.33834793085E+04  0.00000000000E+00 0. -1.
         23    2    1    2    0    0  0.37190740191E+03 -0.10114264516E+04 -0.48699555906E+02  0.10827757431E+04  0.93450952437E+02 0.  0.
         13    1    3    3    0    0  0.27553033127E+03 -0.84167687988E+03 -0.23351850151E+02  0.88593580043E+03  0.00000000000E+00 0. -1.
        -13    1    3    3    0    0  0.96377070641E+02 -0.16974957171E+03 -0.25347705754E+02  0.19683994266E+03  0.00000000000E+00 0.  1.
         22    1    1    2    0    0 -0.37190740191E+03  0.10114264516E+04 -0.27147071439E+04  0.29207761742E+04  0.00000000000E+00 0. -1.
<mgrwt>
<rscale>  0 0.28968969E+04</rscale>
<asrwt>0</asrwt>
<pdfrwt beam="1">  1        1 0.52053528E+00 0.28968969E+04</pdfrwt>
<pdfrwt beam="2">  1       -1 0.95395785E-01 0.28968969E+04</pdfrwt>
<totfact> 0.28046044E-01</totfact>
</mgrwt>
</event>
<event>
 6    1  0.2047711E-005  0.2855922E+04  0.7818608E-02  0.8286114E-01
         -2   -1    0    0    0  501 -0.00000000000E+00  0.00000000000E+00  0.63446180627E+03  0.63446180627E+03  0.00000000000E+00 0.  1.
          2   -1    0    0  501    0  0.00000000000E+00 -0.00000000000E+00 -0.32138618939E+04  0.32138618939E+04  0.00000000000E+00 0. -1.
         23    2    1    2    0    0  0.99439484496E+02  0.68694816700E+03 -0.29702800464E+04  0.30517227101E+04  0.93069597842E+02 0.  0.
         11    1    3    3    0    0  0.10676871489E+03  0.53834517644E+03 -0.24402088431E+04  0.25011665849E+04  0.00000000000E+00 0. -1.
        -11    1    3    3    0    0 -0.73292303978E+01  0.14860299056E+03 -0.53007120331E+03  0.55055612521E+03  0.00000000000E+00 0.  1.
         22    1    1    2    0    0 -0.99439484496E+02 -0.68694816700E+03  0.39087995877E+03  0.79660099008E+03  0.00000000000E+00 0.  1.
<mgrwt>
<rscale>  0 0.28559220E+04</rscale>
<asrwt>0</asrwt>
<pdfrwt beam="1">  1        2 0.49444030E+00 0.28559220E+04</pdfrwt>
<pdfrwt beam="2">  1       -2 0.97609506E-01 0.28559220E+04</pdfrwt>
<totfact> 0.96160603E-01</totfact>
</mgrwt>
</event>
<event>
 6    1  0.2047711E-005  0.1404865E+04  0.7818608E-02  0.8950304E-01
          2   -1    0    0  501    0  0.00000000000E+00  0.00000000000E+00  0.20870125153E+04  0.20870125153E+04  0.00000000000E+00 0. -1.
         -2   -1    0    0    0  501 -0.00000000000E+00 -0.00000000000E+00 -0.23641998156E+03  0.23641998156E+03  0.00000000000E+00 0.  1.
         23    2    1    2    0    0  0.62818801814E+03  0.15940769998E+03  0.49467310169E+03  0.82058569591E+03  0.92889212739E+02 0.  0.
         11    1    3    3    0    0  0.34110113575E+03  0.89724478999E+02  0.21089847481E+03  0.41094845616E+03  0.00000000000E+00 0. -1.
        -11    1    3    3    0    0  0.28708688239E+03  0.69683220982E+02  0.28377462689E+03  0.40963723975E+03  0.00000000000E+00 0.  1.
         22    1    1    2    0    0 -0.62818801814E+03 -0.15940769998E+03  0.13559194321E+04  0.15028468010E+04  0.00000000000E+00 0. -1.
<mgrwt>
<rscale>  0 0.14048651E+04</rscale>
<asrwt>0</asrwt>
<pdfrwt beam="1">  1        2 0.32107884E+00 0.14048651E+04</pdfrwt>
<pdfrwt beam="2">  1       -2 0.36372306E-01 0.14048651E+04</pdfrwt>
<totfact> 0.41401563E+01</totfact>
</mgrwt>
</event>
<event>
 6    1  0.2047711E-005  0.1917493E+04  0.7818608E-02  0.8646198E-01
         -2   -1    0    0    0  501 -0.00000000000E+00  0.00000000000E+00  0.48925484374E+03  0.48925484374E+03  0.00000000000E+00 0.  1.
          2   -1    0    0  501    0  0.00000000000E+00 -0.00000000000E+00 -0.18787652749E+04  0.18787652749E+04  0.00000000000E+00 0. -1.
         23    2    1    2    0    0 -0.87379926203E+03 -0.25622869894E+01 -0.11779711984E+04  0.14689758691E+04  0.82111168565E+02 0.  0.
         11    1    3    3    0    0 -0.80417561920E+03 -0.16185114777E+02 -0.11094620502E+04  0.13703526646E+04  0.00000000000E+00 0.  1.
        -11    1    3    3    0    0 -0.69623642823E+02  0.13622827788E+02 -0.68509148164E+02  0.98623204466E+02  0.00000000000E+00 0. -1.
         22    1    1    2    0    0  0.87379926203E+03  0.25622869894E+01 -0.21153923272E+03  0.89904424953E+03  0.00000000000E+00 0.  1.
<mgrwt>
<rscale>  0 0.19174932E+04</rscale>
<asrwt>0</asrwt>
<pdfrwt beam="1">  1        2 0.28904080E+00 0.19174932E+04</pdfrwt>
<pdfrwt beam="2">  1       -2 0.75269978E-01 0.19174932E+04</pdfrwt>
<totfact> 0.11558568E+01</totfact>
</mgrwt>
</event>
<event>
 6    1  0.2047711E-005  0.5441055E+04  0.7818608E-02  0.7763852E-01
         -2   -1    0    0    0  501 -0.00000000000E+00  0.00000000000E+00  0.28468203027E+04  0.28468203027E+04  0.00000000000E+00 0.  1.
          2   -1    0    0  501    0  0.00000000000E+00 -0.00000000000E+00 -0.25998376810E+04  0.25998376810E+04  0.00000000000E+00 0. -1.
         23    2    1    2    0    0 -0.19429461443E+04 -0.15745417254E+04 -0.94668702858E+03  0.26755447419E+04  0.90010951110E+02 0.  0.
         13    1    3    3    0    0 -0.92762166871E+03 -0.78085016374E+03 -0.50050798040E+03  0.13117610975E+04  0.00000000000E+00 0. -1.
        -13    1    3    3    0    0 -0.10153244756E+04 -0.79369156169E+03 -0.44617904818E+03  0.13637836444E+04  0.00000000000E+00 0.  1.
         22    1    1    2    0    0  0.19429461443E+04  0.15745417254E+04  0.11936696503E+04  0.27711132418E+04  0.00000000000E+00 0. -1.
<mgrwt>
<rscale>  0 0.54410553E+04</rscale>
<asrwt>0</asrwt>
<pdfrwt beam="1">  1        2 0.39997503E+00 0.54410553E+04</pdfrwt>
<pdfrwt beam="2">  1       -2 0.43797235E+00 0.54410553E+04</pdfrwt>
<totfact> 0.89482567E-03</totfact>
</mgrwt>
</event>
<event>
 6    1  0.2047711E-005  0.9323923E+03  0.7818608E-02  0.9385971E-01
         -2   -1    0    0    0  501 -0.00000000000E+00  0.00000000000E+00  0.34070381727E+03  0.34070381727E+03  0.00000000000E+00 0.  1.
          2   -1    0    0  501    0  0.00000000000E+00 -0.00000000000E+00 -0.63791136809E+03  0.63791136809E+03  0.00000000000E+00 0. -1.
         23    2    1    2    0    0  0.14799693668E+03  0.60737528682E+02 -0.60465778757E+03  0.63203505215E+03  0.90912740704E+02 0.  0.
         13    1    3    3    0    0  0.80187942298E+02  0.66814147555E+02 -0.25019890705E+03  0.27109726943E+03  0.00000000000E+00 0.  1.
        -13    1    3    3    0    0  0.67808994378E+02 -0.60766188734E+01 -0.35445888052E+03  0.36093778272E+03  0.00000000000E+00 0. -1.
         22    1    1    2    0    0 -0.14799693668E+03 -0.60737528682E+02  0.30745023675E+03  0.34658013321E+03  0.00000000000E+00 0.  1.
<mgrwt>
<rscale>  0 0.93239227E+03</rscale>
<asrwt>0</asrwt>
<pdfrwt beam="1">  1        2 0.98140209E-01 0.93239227E+03</pdfrwt>
<pdfrwt beam="2">  1       -2 0.52415973E-01 0.93239227E+03</pdfrwt>
<totfact> 0.15838540E+02</totfact>
</mgrwt>
</event>
<event>
 6    1  0.2047711E-005  0.2317429E+04  0.7818608E-02  0.8471081E-01
          2   -1    0    0  501    0  0.00000000000E+00  0.00000000000E+00  0.14473872069E+04  0.14473872069E+04  0.00000000000E+00 0.  1.
         -2   -1    0    0    0  501 -0.00000000000E+00 -0.00000000000E+00 -0.92761548340E+03  0.92761548340E+03  0.00000000000E+00 0. -1.
         23    2    1    2    0    0 -0.31126829245E+03  0.76731757539E+03 -0.56774393161E+03  0.10081250398E+04  0.91206976380E+02 0.  0.
         13    1    3    3    0    0 -0.21738293233E+03  0.55043295425E+03 -0.35481831145E+03  0.69002015227E+03  0.00000000000E+00 0. -1.
        -13    1    3    3    0    0 -0.93885360120E+02  0.21688462114E+03 -0.21292562016E+03  0.31810488750E+03  0.00000000000E+00 0.  1.
         22    1    1    2    0    0  0.31126829245E+03 -0.76731757539E+03  0.10875156551E+04  0.13668776505E+04  0.00000000000E+00 0.  1.
<mgrwt>
<rscale>  0 0.23174286E+04</rscale>
<asrwt>0</asrwt>
<pdfrwt beam="1">  1        2 0.22267496E+00 0.23174286E+04</pdfrwt>
<pdfrwt beam="2">  1       -2 0.14271007E+00 0.23174286E+04</pdfrwt>
<totfact> 0.42060968E+00</totfact>
</mgrwt>
</event>
<event>
 6    1  0.2047711E-005  0.3556858E+04  0.7818608E-02  0.8100446E-01
          2   -1    0    0  501    0  0.00000000000E+00  0.00000000000E+00  0.20717100671E+04  0.20717100671E+04  0.00000000000E+00 0. -1.
         -2   -1    0    0    0  501 -0.00000000000E+00 -0.00000000000E+00 -0.15266661111E+04  0.15266661111E+04  0.00000000000E+00 0.  1.
         23    2    1    2    0    0  0.73329402320E+03  0.38160826966E+03 -0.13189440184E+04  0.15593087039E+04  0.92115766798E+02 0.  0.
         13    1    3    3    0    0  0.38863434207E+03  0.23779487163E+03 -0.78674636575E+03  0.90914954591E+03  0.00000000000E+00 0.  1.
        -13    1    3    3    0    0  0.34465968113E+03  0.14381339802E+03 -0.53219765269E+03  0.65015915804E+03  0.00000000000E+00 0. -1.
         22    1    1    2    0    0 -0.73329402320E+03 -0.38160826966E+03  0.18639879744E+04  0.20390674743E+04  0.00000000000E+00 0. -1.
<mgrwt>
<rscale>  0 0.35568579E+04</rscale>
<asrwt>0</asrwt>
<pdfrwt beam="1">  1        2 0.31872463E+00 0.35568579E+04</pdfrwt>
<pdfrwt beam="2">  1       -2 0.23487171E+00 0.35568579E+04</pdfrwt>
<totfact> 0.39732310E-01</totfact>
</mgrwt>
</event>
<event>
 6    1  0.2047711E-005  0.7649131E+03  0.7818608E-02  0.9612240E-01
         -2   -1    0    0    0  501 -0.00000000000E+00  0.00000000000E+00  0.56104875675E+02  0.56104875675E+02  0.00000000000E+00 0.  1.
          2   -1    0    0  501    0  0.00000000000E+00 -0.00000000000E+00 -0.26071352740E+04  0.26071352740E+04  0.00000000000E+00 0. -1.
         23    2    1    2    0    0 -0.32669005866E+03 -0.16902574192E+03 -0.15826876932E+04  0.16273908892E+04  0.90579667574E+02 0.  0.
         11    1    3    3    0    0 -0.27639461788E+03 -0.12537149998E+03 -0.11394129431E+04  0.11791411504E+04  0.00000000000E+00 0. -1.
        -11    1    3    3    0    0 -0.50295440780E+02 -0.43654241940E+02 -0.44327475015E+03  0.44824973878E+03  0.00000000000E+00 0.  1.
         22    1    1    2    0    0  0.32669005866E+03  0.16902574192E+03 -0.96834270512E+03  0.10358492605E+04  0.00000000000E+00 0.  1.
<mgrwt>
<rscale>  0 0.76491307E+03</rscale>
<asrwt>0</asrwt>
<pdfrwt beam="1">  1        2 0.40109779E+00 0.76491307E+03</pdfrwt>
<pdfrwt beam="2">  1       -2 0.86315182E-02 0.76491307E+03</pdfrwt>
<totfact> 0.27299583E+02</totfact>
</mgrwt>
</event>
<event>
 6    1  0.2047711E-005  0.9900402E+03  0.7818608E-02  0.9319536E-01
         -2   -1    0    0    0  501 -0.00000000000E+00  0.00000000000E+00  0.16015796595E+03  0.16015796595E+03  0.00000000000E+00 0.  1.
          2   -1    0    0  501    0  0.00000000000E+00 -0.00000000000E+00 -0.15300200470E+04  0.15300200470E+04  0.00000000000E+00 0. -1.
         23    2    1    2    0    0 -0.16814111248E+03  0.36190451157E+03 -0.11785661661E+04  0.12476393860E+04  0.91320975684E+02 0.  0.
         13    1    3    3    0    0 -0.12672417996E+03  0.19542797376E+03 -0.58139451377E+03  0.62631516935E+03  0.00000000000E+00 0.  1.
        -13    1    3    3    0    0 -0.41416932524E+02  0.16647653781E+03 -0.59717165229E+03  0.62132421668E+03  0.00000000000E+00 0. -1.
         22    1    1    2    0    0  0.16814111248E+03 -0.36190451157E+03 -0.19129591494E+03  0.44253862688E+03  0.00000000000E+00 0.  1.
<mgrwt>
<rscale>  0 0.99004020E+03</rscale>
<asrwt>0</asrwt>
<pdfrwt beam="1">  1        2 0.23538769E+00 0.99004020E+03</pdfrwt>
<pdfrwt beam="2">  1       -2 0.24639688E-01 0.99004020E+03</pdfrwt>
<totfact> 0.17949349E+02</totfact>
</mgrwt>
</event>
<event>
 6    1  0.2047711E-005  0.2469564E+04  0.7818608E-02  0.8413910E-01
         -1   -1    0    0    0  501 -0.00000000000E+00  0.00000000000E+00  0.97859226963E+03  0.97859226963E+03  0.00000000000E+00 0.  1.
          1   -1    0    0  501    0  0.00000000000E+00 -0.00000000000E+00 -0.15580400956E+04  0.15580400956E+04  0.00000000000E+00 0. -1.
         23    2    1    2    0    0  0.50244271883E+03 -0.31409702769E+03 -0.14008878314E+04  0.15237802974E+04  0.91181412384E+02 0.  0.
         11    1    3    3    0    0  0.31367465271E+03 -0.22717196179E+03 -0.99649626553E+03  0.10691135090E+04  0.00000000000E+00 0. -1.
        -11    1    3    3    0    0  0.18876806613E+03 -0.86925065896E+02 -0.40439156592E+03  0.45466678838E+03  0.00000000000E+00 0.  1.
         22    1    1    2    0    0 -0.50244271883E+03  0.31409702769E+03  0.82144000553E+03  0.10128520678E+04  0.00000000000E+00 0.  1.
<mgrwt>
<rscale>  0 0.24695635E+04</rscale>
<asrwt>0</asrwt>
<pdfrwt beam="1">  1        1 0.23969847E+00 0.24695635E+04</pdfrwt>
<pdfrwt beam="2">  1       -1 0.15055266E+00 0.24695635E+04</pdfrwt>
<totfact> 0.18352163E+00</totfact>
</mgrwt>
</event>
<event>
 6    1  0.2047711E-005  0.6923668E+04  0.7818608E-02  0.7585359E-01
          2   -1    0    0  501    0  0.00000000000E+00  0.00000000000E+00  0.38363429546E+04  0.38363429546E+04  0.00000000000E+00 0. -1.
         -2   -1    0    0    0  501 -0.00000000000E+00 -0.00000000000E+00 -0.31238849979E+04  0.31238849979E+04  0.00000000000E+00 0.  1.
         23    2    1    2    0    0 -0.90053118645E+03  0.19166890314E+04 -0.23959299677E+04  0.31990142190E+04  0.92511091462E+02 0.  0.
         11    1    3    3    0    0 -0.23207237356E+03  0.56237312755E+03 -0.73389322036E+03  0.95326826237E+03  0.00000000000E+00 0. -1.
        -11    1    3    3    0    0 -0.66845881290E+03  0.13543159039E+04 -0.16620367473E+04  0.22457459566E+04  0.00000000000E+00 0.  1.
         22    1    1    2    0    0  0.90053118645E+03 -0.19166890314E+04  0.31083879244E+04  0.37612137336E+04  0.00000000000E+00 0. -1.
<mgrwt>
<rscale>  0 0.69236679E+04</rscale>
<asrwt>0</asrwt>
<pdfrwt beam="1">  1        2 0.59020661E+00 0.69236679E+04</pdfrwt>
<pdfrwt beam="2">  1       -2 0.48059769E+00 0.69236679E+04</pdfrwt>
<totfact> 0.63650360E-04</totfact>
</mgrwt>
</event>
<event>
 6    1  0.2047711E-005  0.3141233E+04  0.7818608E-02  0.8204512E-01
         -2   -1    0    0    0  501 -0.00000000000E+00  0.00000000000E+00  0.24103673793E+04  0.24103673793E+04  0.00000000000E+00 0.  1.
          2   -1    0    0  501    0  0.00000000000E+00 -0.00000000000E+00 -0.10234276438E+04  0.10234276438E+04  0.00000000000E+00 0. -1.
         23    2    1    2    0    0 -0.92568905238E+03 -0.50422607098E+03  0.19649384227E+04  0.22316192311E+04  0.89427264173E+02 0.  0.
         11    1    3    3    0    0 -0.37372278339E+03 -0.25393435277E+03  0.84015688167E+03  0.95394704264E+03  0.00000000000E+00 0. -1.
        -11    1    3    3    0    0 -0.55196626899E+03 -0.25029171821E+03  0.11247815410E+04  0.12776721885E+04  0.00000000000E+00 0.  1.
         22    1    1    2    0    0  0.92568905238E+03  0.50422607098E+03 -0.57799868719E+03  0.12021757919E+04  0.00000000000E+00 0. -1.
<mgrwt>
<rscale>  0 0.31412333E+04</rscale>
<asrwt>0</asrwt>
<pdfrwt beam="1">  1        2 0.15745041E+00 0.31412333E+04</pdfrwt>
<pdfrwt beam="2">  1       -2 0.37082575E+00 0.31412333E+04</pdfrwt>
<totfact> 0.23602041E-01</totfact>
</mgrwt>
</event>
<event>
 6    1  0.2047711E-005  0.1925072E+04  0.7818608E-02  0.8642476E-01
          2   -1    0    0  501    0  0.00000000000E+00  0.00000000000E+00  0.19211985217E+04  0.19211985217E+04  0.00000000000E+00 0. -1.
         -2   -1    0    0    0  501 -0.00000000000E+00 -0.00000000000E+00 -0.48223810337E+03  0.48223810337E+03  0.00000000000E+00 0.  1.
         23    2    1    2    0    0  0.72088364211E+03  0.47334132862E+03  0.19340804982E+03  0.88846931799E+03  0.90806477968E+02 0.  0.
         13    1    3    3    0    0  0.41095066789E+03  0.26608301380E+03  0.15563304054E+03  0.51371418608E+03  0.00000000000E+00 0.  1.
        -13    1    3    3    0    0  0.30993297422E+03  0.20725831481E+03  0.37775009285E+02  0.37475513191E+03  0.00000000000E+00 0. -1.
         22    1    1    2    0    0 -0.72088364211E+03 -0.47334132862E+03  0.12455523686E+04  0.15149673071E+04  0.00000000000E+00 0. -1.
<mgrwt>
<rscale>  0 0.19250716E+04</rscale>
<asrwt>0</asrwt>
<pdfrwt beam="1">  1        2 0.29556900E+00 0.19250716E+04</pdfrwt>
<pdfrwt beam="2">  1       -2 0.74190478E-01 0.19250716E+04</pdfrwt>
<totfact> 0.11297793E+01</totfact>
</mgrwt>
</event>
<event>
 6    1  0.2047711E-005  0.1793194E+04  0.7818608E-02  0.8709927E-01
         -2   -1    0    0    0  501 -0.00000000000E+00  0.00000000000E+00  0.30535432046E+03  0.30535432046E+03  0.00000000000E+00 0. -1.
          2   -1    0    0  501    0  0.00000000000E+00 -0.00000000000E+00 -0.26326345509E+04  0.26326345509E+04  0.00000000000E+00 0.  1.
         23    2    1    2    0    0 -0.29590459653E+03 -0.56123139833E+03 -0.13341733577E+03  0.65422561452E+03  0.87582855071E+02 0.  0.
         11    1    3    3    0    0 -0.17783079489E+03 -0.31621897488E+03 -0.11920979305E+03  0.38187590451E+03  0.00000000000E+00 0.  1.
        -11    1    3    3    0    0 -0.11807380163E+03 -0.24501242344E+03 -0.14207542727E+02  0.27234971001E+03  0.00000000000E+00 0. -1.
         22    1    1    2    0    0  0.29590459653E+03  0.56123139833E+03 -0.21938628947E+04  0.22837632568E+04  0.00000000000E+00 0.  1.
<mgrwt>
<rscale>  0 0.17931942E+04</rscale>
<asrwt>0</asrwt>
<pdfrwt beam="1">  1        2 0.40502072E+00 0.17931942E+04</pdfrwt>
<pdfrwt beam="2">  1       -2 0.46977586E-01 0.17931942E+04</pdfrwt>
<totfact> 0.11833236E+01</totfact>
</mgrwt>
</event>
<event>
 6    1  0.2047711E-005  0.5522966E+04  0.7818608E-02  0.7752537E-01
          2   -1    0    0  501    0  0.00000000000E+00  0.00000000000E+00  0.33057317998E+04  0.33057317998E+04  0.00000000000E+00 0. -1.
         -2   -1    0    0    0  501 -0.00000000000E+00 -0.00000000000E+00 -0.23068384421E+04  0.23068384421E+04  0.00000000000E+00 0.  1.
         23    2    1    2    0    0 -0.17699311474E+04 -0.30530284669E+03  0.26298303787E+04  0.31864990021E+04  0.10909617288E+03 0.  0.
         13    1    3    3    0    0 -0.56763213739E+03 -0.11967062503E+03  0.93252255854E+03  0.10982375080E+04  0.00000000000E+00 0. -1.
        -13    1    3    3    0    0 -0.12022990100E+04 -0.18563222166E+03  0.16973078202E+04  0.20882614940E+04  0.00000000000E+00 0.  1.
         22    1    1    2    0    0  0.17699311474E+04  0.30530284669E+03 -0.16309370209E+04  0.24260712398E+04  0.00000000000E+00 0.  1.
<mgrwt>
<rscale>  0 0.55229663E+04</rscale>
<asrwt>0</asrwt>
<pdfrwt beam="1">  1        2 0.50857412E+00 0.55229663E+04</pdfrwt>
<pdfrwt beam="2">  1       -2 0.35489822E+00 0.55229663E+04</pdfrwt>
<totfact> 0.11161183E-02</totfact>
</mgrwt>
</event>
<event>
 6    1  0.2047711E-005  0.2002648E+04  0.7818608E-02  0.8605384E-01
         -2   -1    0    0    0  501 -0.00000000000E+00  0.00000000000E+00  0.61319595008E+03  0.61319595008E+03  0.00000000000E+00 0.  1.
          2   -1    0    0  501    0  0.00000000000E+00 -0.00000000000E+00 -0.16351208516E+04  0.16351208516E+04  0.00000000000E+00 0. -1.
         23    2    1    2    0    0 -0.45480115281E+03 -0.83577580473E+03 -0.16970687638E+03  0.97095982465E+03  0.92721479834E+02 0.  0.
         13    1    3    3    0    0 -0.21506938859E+03 -0.47733186557E+03 -0.68388076210E+02  0.52799382644E+03  0.00000000000E+00 0.  1.
        -13    1    3    3    0    0 -0.23973176422E+03 -0.35844393916E+03 -0.10131880017E+03  0.44296599821E+03  0.00000000000E+00 0. -1.
         22    1    1    2    0    0  0.45480115281E+03  0.83577580473E+03 -0.85221802510E+03  0.12773569770E+04  0.00000000000E+00 0.  1.
<mgrwt>
<rscale>  0 0.20026477E+04</rscale>
<asrwt>0</asrwt>
<pdfrwt beam="1">  1        2 0.25155705E+00 0.20026477E+04</pdfrwt>
<pdfrwt beam="2">  1       -2 0.94337839E-01 0.20026477E+04</pdfrwt>
<totfact> 0.93798154E+00</totfact>
</mgrwt>
</event>
<event>
 6    1  0.2047711E-005  0.1759889E+04  0.7818608E-02  0.8727926E-01
         -2   -1    0    0    0  501 -0.00000000000E+00  0.00000000000E+00  0.66039397102E+03  0.66039397102E+03  0.00000000000E+00 0.  1.
          2   -1    0    0  501    0  0.00000000000E+00 -0.00000000000E+00 -0.11724851774E+04  0.11724851774E+04  0.00000000000E+00 0. -1.
         23    2    1    2    0    0 -0.10069873264E+03 -0.83887013842E+03 -0.50422698366E+03  0.98795004489E+03  0.89202557451E+02 0.  0.
         11    1    3    3    0    0 -0.43383991658E+02 -0.13531630131E+03 -0.62438192744E+02  0.15521340163E+03  0.00000000000E+00 0.  1.
        -11    1    3    3    0    0 -0.57314740983E+02 -0.70355383711E+03 -0.44178879092E+03  0.83273664326E+03  0.00000000000E+00 0. -1.
         22    1    1    2    0    0  0.10069873264E+03  0.83887013842E+03 -0.78642226731E+01  0.84492910347E+03  0.00000000000E+00 0.  1.
<mgrwt>
<rscale>  0 0.17598888E+04</rscale>
<asrwt>0</asrwt>
<pdfrwt beam="1">  1        2 0.18038233E+00 0.17598888E+04</pdfrwt>
<pdfrwt beam="2">  1       -2 0.10159907E+00 0.17598888E+04</pdfrwt>
<totfact> 0.14824339E+01</totfact>
</mgrwt>
</event>
<event>
 6    1  0.2047711E-005  0.1434713E+04  0.7818608E-02  0.8929068E-01
         -2   -1    0    0    0  501 -0.00000000000E+00  0.00000000000E+00  0.31124295989E+03  0.31124295989E+03  0.00000000000E+00 0.  1.
          2   -1    0    0  501    0  0.00000000000E+00 -0.00000000000E+00 -0.16533717157E+04  0.16533717157E+04  0.00000000000E+00 0. -1.
         23    2    1    2    0    0 -0.48934170499E+03 -0.28511642461E+03 -0.12705815899E+04  0.13937682192E+04  0.86403659352E+02 0.  0.
         13    1    3    3    0    0 -0.95711319822E+02 -0.56603825751E+02 -0.17420347341E+03  0.20666760748E+03  0.00000000000E+00 0. -1.
        -13    1    3    3    0    0 -0.39363038517E+03 -0.22851259885E+03 -0.10963781165E+04  0.11871006117E+04  0.00000000000E+00 0.  1.
         22    1    1    2    0    0  0.48934170499E+03  0.28511642461E+03 -0.71547165882E+02  0.57084645639E+03  0.00000000000E+00 0.  1.
<mgrwt>
<rscale>  0 0.14347129E+04</rscale>
<asrwt>0</asrwt>
<pdfrwt beam="1">  1        2 0.25436488E+00 0.14347129E+04</pdfrwt>
<pdfrwt beam="2">  1       -2 0.47883532E-01 0.14347129E+04</pdfrwt>
<totfact> 0.41764446E+01</totfact>
</mgrwt>
</event>
<event>
 6    1  0.2047711E-005  0.1805189E+04  0.7818608E-02  0.8703545E-01
         -2   -1    0    0    0  501 -0.00000000000E+00  0.00000000000E+00  0.85384514633E+03  0.85384514633E+03  0.00000000000E+00 0.  1.
          2   -1    0    0  501    0  0.00000000000E+00 -0.00000000000E+00 -0.95412729627E+03  0.95412729627E+03  0.00000000000E+00 0. -1.
         23    2    1    2    0    0  0.20274862806E+03  0.10186430418E+03  0.82242904069E+03  0.85777284044E+03  0.88889685500E+02 0.  0.
         13    1    3    3    0    0  0.72023555532E+02  0.64608281716E+02  0.22232618819E+03  0.24246764026E+03  0.00000000000E+00 0.  1.
        -13    1    3    3    0    0  0.13072507253E+03  0.37256022465E+02  0.60010285249E+03  0.61530520018E+03  0.00000000000E+00 0. -1.
         22    1    1    2    0    0 -0.20274862806E+03 -0.10186430418E+03 -0.92271119063E+03  0.95019960216E+03  0.00000000000E+00 0. -1.
<mgrwt>
<rscale>  0 0.18051891E+04</rscale>
<asrwt>0</asrwt>
<pdfrwt beam="1">  1        2 0.14678881E+00 0.18051891E+04</pdfrwt>
<pdfrwt beam="2">  1       -2 0.13136079E+00 0.18051891E+04</pdfrwt>
<totfact> 0.10768858E+01</totfact>
</mgrwt>
</event>
<event>
 6    1  0.2047711E-005  0.2784693E+04  0.7818608E-02  0.8308036E-01
          2   -1    0    0  501    0  0.00000000000E+00  0.00000000000E+00  0.43212305779E+04  0.43212305779E+04  0.00000000000E+00 0. -1.
         -2   -1    0    0    0  501 -0.00000000000E+00 -0.00000000000E+00 -0.44862900769E+03  0.44862900769E+03  0.00000000000E+00 0.  1.
         23    2    1    2    0    0 -0.10019561713E+04 -0.11304073406E+03  0.35790436806E+04  0.37196831188E+04  0.98966966631E+02 0.  0.
         13    1    3    3    0    0 -0.50490107694E+03 -0.25722290714E+02  0.19325624349E+04  0.19975946281E+04  0.00000000000E+00 0.  1.
        -13    1    3    3    0    0 -0.49705509432E+03 -0.87318443349E+02  0.16464812457E+04  0.17220884907E+04  0.00000000000E+00 0. -1.
         22    1    1    2    0    0  0.10019561713E+04  0.11304073406E+03  0.29355788961E+03  0.10501764667E+04  0.00000000000E+00 0.  1.
<mgrwt>
<rscale>  0 0.27846934E+04</rscale>
<asrwt>0</asrwt>
<pdfrwt beam="1">  1        2 0.66480467E+00 0.27846934E+04</pdfrwt>
<pdfrwt beam="2">  1       -2 0.69019850E-01 0.27846934E+04</pdfrwt>
<totfact> 0.30350739E-01</totfact>
</mgrwt>
</event>
<event>
 6    1  0.2047711E-005  0.6740103E+03  0.7818608E-02  0.9762740E-01
         -2   -1    0    0    0  501 -0.00000000000E+00  0.00000000000E+00  0.30344973292E+03  0.30344973292E+03  0.00000000000E+00 0.  1.
          2   -1    0    0  501    0  0.00000000000E+00 -0.00000000000E+00 -0.37427114844E+03  0.37427114844E+03  0.00000000000E+00 0. -1.
         23    2    1    2    0    0 -0.20715118249E+03 -0.56275892193E+02 -0.28940581076E+03  0.37135879771E+03  0.89850124571E+02 0.  0.
         11    1    3    3    0    0 -0.19978056655E+03 -0.47338659961E+02 -0.21971736941E+03  0.30071406007E+03  0.00000000000E+00 0. -1.
        -11    1    3    3    0    0 -0.73706159360E+01 -0.89372322314E+01 -0.69688441351E+02  0.70644737647E+02  0.00000000000E+00 0.  1.
         22    1    1    2    0    0  0.20715118249E+03  0.56275892193E+02  0.21858439524E+03  0.30636208364E+03  0.00000000000E+00 0.  1.
<mgrwt>
<rscale>  0 0.67401033E+03</rscale>
<asrwt>0</asrwt>
<pdfrwt beam="1">  1        2 0.57580177E-01 0.67401033E+03</pdfrwt>
<pdfrwt beam="2">  1       -2 0.46684574E-01 0.67401033E+03</pdfrwt>
<totfact> 0.37617033E+02</totfact>
</mgrwt>
</event>
<event>
 6    1  0.2047711E-005  0.1526383E+04  0.7818608E-02  0.8867095E-01
         -2   -1    0    0    0  501 -0.00000000000E+00  0.00000000000E+00  0.37917387443E+03  0.37917387443E+03  0.00000000000E+00 0.  1.
          2   -1    0    0  501    0  0.00000000000E+00 -0.00000000000E+00 -0.15361331421E+04  0.15361331421E+04  0.00000000000E+00 0. -1.
         23    2    1    2    0    0  0.73701829019E+03 -0.12080470337E+03 -0.39991791479E+03  0.85186856208E+03  0.89196255941E+02 0.  0.
         11    1    3    3    0    0  0.98749223733E+02 -0.33301813357E+02 -0.27699222788E+02  0.10783166003E+03  0.00000000000E+00 0. -1.
        -11    1    3    3    0    0  0.63826906645E+03 -0.87502890009E+02 -0.37221869200E+03  0.74403690206E+03  0.00000000000E+00 0.  1.
         22    1    1    2    0    0 -0.73701829019E+03  0.12080470337E+03 -0.75704135289E+03  0.10634384545E+04  0.00000000000E+00 0. -1.
<mgrwt>
<rscale>  0 0.15263834E+04</rscale>
<asrwt>0</asrwt>
<pdfrwt beam="1">  1        2 0.23632818E+00 0.15263834E+04</pdfrwt>
<pdfrwt beam="2">  1       -2 0.58334442E-01 0.15263834E+04</pdfrwt>
<totfact> 0.32095819E+01</totfact>
</mgrwt>
</event>
<event>
 6    1  0.2047711E-005  0.3229951E+04  0.7818608E-02  0.8180952E-01
          2   -1    0    0  501    0  0.00000000000E+00  0.00000000000E+00  0.13721717619E+04  0.13721717619E+04  0.00000000000E+00 0. -1.
         -2   -1    0    0    0  501 -0.00000000000E+00 -0.00000000000E+00 -0.19007432706E+04  0.19007432706E+04  0.00000000000E+00 0.  1.
         23    2    1    2    0    0  0.97444232520E+03 -0.12862232004E+04 -0.26491505777E+03  0.16378545779E+04  0.92085092444E+02 0.  0.
         11    1    3    3    0    0  0.79653472482E+03 -0.10025367963E+04 -0.18674094697E+03  0.12939937315E+04  0.00000000000E+00 0.  1.
        -11    1    3    3    0    0  0.17790760037E+03 -0.28368640403E+03 -0.78174110790E+02  0.34386084642E+03  0.00000000000E+00 0. -1.
         22    1    1    2    0    0 -0.97444232520E+03  0.12862232004E+04 -0.26365645093E+03  0.16350604547E+04  0.00000000000E+00 0. -1.
<mgrwt>
<rscale>  0 0.32299512E+04</rscale>
<asrwt>0</asrwt>
<pdfrwt beam="1">  1        2 0.21110335E+00 0.32299512E+04</pdfrwt>
<pdfrwt beam="2">  1       -2 0.29242204E+00 0.32299512E+04</pdfrwt>
<totfact> 0.44592861E-01</totfact>
</mgrwt>
</event>
<event>
 6    1  0.2047711E-005  0.2336285E+04  0.7818608E-02  0.8463750E-01
         -2   -1    0    0    0  501 -0.00000000000E+00  0.00000000000E+00  0.10109897775E+04  0.10109897775E+04  0.00000000000E+00 0.  1.
          2   -1    0    0  501    0  0.00000000000E+00 -0.00000000000E+00 -0.13497232180E+04  0.13497232180E+04  0.00000000000E+00 0. -1.
         23    2    1    2    0    0 -0.28911564886E+03  0.22815307302E+03  0.94862810647E+03  0.10217053645E+04  0.91350338228E+02 0.  0.
         13    1    3    3    0    0 -0.16394977328E+03  0.15986000682E+03  0.47919493776E+03  0.53109560186E+03  0.00000000000E+00 0. -1.
        -13    1    3    3    0    0 -0.12516587557E+03  0.68293066194E+02  0.46943316871E+03  0.49060976263E+03  0.00000000000E+00 0.  1.
         22    1    1    2    0    0  0.28911564886E+03 -0.22815307302E+03 -0.12873615470E+04  0.13390076310E+04  0.00000000000E+00 0. -1.
<mgrwt>
<rscale>  0 0.23362846E+04</rscale>
<asrwt>0</asrwt>
<pdfrwt beam="1">  1        2 0.20764973E+00 0.23362846E+04</pdfrwt>
<pdfrwt beam="2">  1       -2 0.15553689E+00 0.23362846E+04</pdfrwt>
<totfact> 0.38032355E+00</totfact>
</mgrwt>
</event>
<event>
 6    1  0.2047711E-005  0.2823456E+04  0.7818608E-02  0.8296023E-01
          2   -1    0    0  501    0  0.00000000000E+00  0.00000000000E+00  0.26855388387E+04  0.26855388387E+04  0.00000000000E+00 0. -1.
         -2   -1    0    0    0  501 -0.00000000000E+00 -0.00000000000E+00 -0.74211376649E+03  0.74211376649E+03  0.00000000000E+00 0.  1.
         23    2    1    2    0    0 -0.67320219800E+03 -0.12299364848E+04  0.78936722765E+03  0.16116695478E+04  0.91832212693E+02 0.  0.
         13    1    3    3    0    0 -0.96503542250E+02 -0.21209946706E+03  0.98031446847E+02  0.25280285237E+03  0.00000000000E+00 0. -1.
        -13    1    3    3    0    0 -0.57669865575E+03 -0.10178370177E+04  0.69133578080E+03  0.13588666955E+04  0.00000000000E+00 0.  1.
         22    1    1    2    0    0  0.67320219800E+03  0.12299364848E+04  0.11540578445E+04  0.18159830573E+04  0.00000000000E+00 0. -1.
<mgrwt>
<rscale>  0 0.28234556E+04</rscale>
<asrwt>0</asrwt>
<pdfrwt beam="1">  1        2 0.41315982E+00 0.28234556E+04</pdfrwt>
<pdfrwt beam="2">  1       -2 0.11417135E+00 0.28234556E+04</pdfrwt>
<totfact> 0.14113739E+00</totfact>
</mgrwt>
</event>
<event>
 6    1  0.2047711E-005  0.2871376E+04  0.7818608E-02  0.8281445E-01
          2   -1    0    0  501    0  0.00000000000E+00  0.00000000000E+00  0.14526701644E+04  0.14526701644E+04  0.00000000000E+00 0. -1.
         -2   -1    0    0    0  501 -0.00000000000E+00 -0.00000000000E+00 -0.14189045601E+04  0.14189045601E+04  0.00000000000E+00 0.  1.
         23    2    1    2    0    0 -0.63601432726E+03 -0.10998496141E+04 -0.64843447329E+03  0.14294997112E+04  0.93908253396E+02 0.  0.
         13    1    3    3    0    0 -0.62038073655E+03 -0.10367523201E+04 -0.62596764771E+03  0.13607215466E+04  0.00000000000E+00 0. -1.
        -13    1    3    3    0    0 -0.15633590715E+02 -0.63097294004E+02 -0.22466825584E+02  0.68778164567E+02  0.00000000000E+00 0.  1.
         22    1    1    2    0    0  0.63601432726E+03  0.10998496141E+04  0.68220007753E+03  0.14420750133E+04  0.00000000000E+00 0. -1.
<mgrwt>
<rscale>  0 0.28713762E+04</rscale>
<asrwt>0</asrwt>
<pdfrwt beam="1">  1        2 0.22348772E+00 0.28713762E+04</pdfrwt>
<pdfrwt beam="2">  1       -2 0.21829301E+00 0.28713762E+04</pdfrwt>
<totfact> 0.11837561E+00</totfact>
</mgrwt>
</event>
<event>
 6    1  0.2047711E-005  0.9181633E+03  0.7818608E-02  0.9403157E-01
          2   -1    0    0  501    0  0.00000000000E+00  0.00000000000E+00  0.14727067971E+04  0.14727067971E+04  0.00000000000E+00 0. -1.
         -2   -1    0    0    0  501 -0.00000000000E+00 -0.00000000000E+00 -0.14310789039E+03  0.14310789039E+03  0.00000000000E+00 0.  1.
         23    2    1    2    0    0  0.33557281250E+03  0.11439887620E+03  0.11718583094E+04  0.12277704743E+04  0.92044690075E+02 0.  0.
         11    1    3    3    0    0  0.19879259865E+03  0.10197490120E+03  0.61830136233E+03  0.65742980798E+03  0.00000000000E+00 0.  1.
        -11    1    3    3    0    0  0.13678021385E+03  0.12423975002E+02  0.55355694702E+03  0.57034066631E+03  0.00000000000E+00 0. -1.
         22    1    1    2    0    0 -0.33557281250E+03 -0.11439887620E+03  0.15774059739E+03  0.38804421324E+03  0.00000000000E+00 0.  1.
<mgrwt>
<rscale>  0 0.91816330E+03</rscale>
<asrwt>0</asrwt>
<pdfrwt beam="1">  1        2 0.22657027E+00 0.91816330E+03</pdfrwt>
<pdfrwt beam="2">  1       -2 0.22016600E-01 0.91816330E+03</pdfrwt>
<totfact> 0.23753551E+02</totfact>
</mgrwt>
</event>
<event>
 6    1  0.2047711E-005  0.2531104E+04  0.7818608E-02  0.8391988E-01
         -2   -1    0    0    0  501 -0.00000000000E+00  0.00000000000E+00  0.88250821975E+03  0.88250821975E+03  0.00000000000E+00 0.  1.
          2   -1    0    0  501    0  0.00000000000E+00 -0.00000000000E+00 -0.18148520526E+04  0.18148520526E+04  0.00000000000E+00 0. -1.
         23    2    1    2    0    0  0.72306160489E+02  0.12282756981E+04 -0.15889096007E+03  0.12440472579E+04  0.92292314476E+02 0.  0.
         11    1    3    3    0    0  0.52085898329E+02  0.36206249932E+03 -0.18131036638E+02  0.36623889568E+03  0.00000000000E+00 0. -1.
        -11    1    3    3    0    0  0.20220262160E+02  0.86621319880E+03 -0.14075992343E+03  0.87780836224E+03  0.00000000000E+00 0.  1.
         22    1    1    2    0    0 -0.72306160489E+02 -0.12282756981E+04 -0.77345287273E+03  0.14533130144E+04  0.00000000000E+00 0. -1.
<mgrwt>
<rscale>  0 0.25311040E+04</rscale>
<asrwt>0</asrwt>
<pdfrwt beam="1">  1        2 0.27920800E+00 0.25311040E+04</pdfrwt>
<pdfrwt beam="2">  1       -2 0.13577050E+00 0.25311040E+04</pdfrwt>
<totfact> 0.29287690E+00</totfact>
</mgrwt>
</event>
<event>
 6    1  0.2047711E-005  0.3364974E+04  0.7818608E-02  0.8146557E-01
          2   -1    0    0  501    0  0.00000000000E+00  0.00000000000E+00  0.32406976654E+04  0.32406976654E+04  0.00000000000E+00 0. -1.
         -2   -1    0    0    0  501 -0.00000000000E+00 -0.00000000000E+00 -0.87350411210E+03  0.87350411210E+03  0.00000000000E+00 0.  1.
         23    2    1    2    0    0  0.16482224308E+04  0.19197496640E+03  0.15148524604E+04  0.22487321563E+04  0.92340483160E+02 0.  0.
         11    1    3    3    0    0  0.12675709265E+04  0.18667668215E+03  0.11685828587E+04  0.17341194120E+04  0.00000000000E+00 0.  1.
        -11    1    3    3    0    0  0.38065150425E+03  0.52982842548E+01  0.34626960170E+03  0.51461274427E+03  0.00000000000E+00 0. -1.
         22    1    1    2    0    0 -0.16482224308E+04 -0.19197496640E+03  0.85234109294E+03  0.18654696213E+04  0.00000000000E+00 0.  1.
<mgrwt>
<rscale>  0 0.33649741E+04</rscale>
<asrwt>0</asrwt>
<pdfrwt beam="1">  1        2 0.49856887E+00 0.33649741E+04</pdfrwt>
<pdfrwt beam="2">  1       -2 0.13438525E+00 0.33649741E+04</pdfrwt>
<totfact> 0.40394437E-01</totfact>
</mgrwt>
</event>
<event>
 6    1  0.2047711E-005  0.2458368E+04  0.7818608E-02  0.8417969E-01
         -1   -1    0    0    0  501 -0.00000000000E+00  0.00000000000E+00  0.89174907064E+03  0.89174907064E+03  0.00000000000E+00 0.  1.
          1   -1    0    0  501    0  0.00000000000E+00 -0.00000000000E+00 -0.16943034169E+04  0.16943034169E+04  0.00000000000E+00 0. -1.
         23    2    1    2    0    0 -0.12153106613E+04  0.48949839818E+02 -0.56460582878E+03  0.13466995969E+04  0.12427377897E+03 0.  0.
         13    1    3    3    0    0 -0.98207111811E+03  0.30077815892E+02 -0.40118083100E+03  0.10612796122E+04  0.00000000000E+00 0.  1.
        -13    1    3    3    0    0 -0.23323954323E+03  0.18872023926E+02 -0.16342499778E+03  0.28541998478E+03  0.00000000000E+00 0. -1.
         22    1    1    2    0    0  0.12153106613E+04 -0.48949839818E+02 -0.23794851745E+03  0.12393528906E+04  0.00000000000E+00 0.  1.
<mgrwt>
<rscale>  0 0.24583682E+04</rscale>
<asrwt>0</asrwt>
<pdfrwt beam="1">  1        1 0.26066206E+00 0.24583682E+04</pdfrwt>
<pdfrwt beam="2">  1       -1 0.13719217E+00 0.24583682E+04</pdfrwt>
<totfact> 0.18946622E+00</totfact>
</mgrwt>
</event>
<event>
 6    1  0.2047711E-005  0.2994961E+04  0.7818608E-02  0.8245171E-01
          2   -1    0    0  501    0  0.00000000000E+00  0.00000000000E+00  0.17454870254E+04  0.17454870254E+04  0.00000000000E+00 0. -1.
         -2   -1    0    0    0  501 -0.00000000000E+00 -0.00000000000E+00 -0.12847115301E+04  0.12847115301E+04  0.00000000000E+00 0.  1.
         23    2    1    2    0    0 -0.75256703210E+03  0.92796966851E+03 -0.68041390965E+03  0.13779884897E+04  0.91675218896E+02 0.  0.
         11    1    3    3    0    0 -0.35411285400E+03  0.46559081797E+03 -0.28465678858E+03  0.65053840042E+03  0.00000000000E+00 0. -1.
        -11    1    3    3    0    0 -0.39845417810E+03  0.46237885055E+03 -0.39575712107E+03  0.72745008926E+03  0.00000000000E+00 0.  1.
         22    1    1    2    0    0  0.75256703210E+03 -0.92796966851E+03  0.11411894050E+04  0.16522100658E+04  0.00000000000E+00 0. -1.
<mgrwt>
<rscale>  0 0.29949606E+04</rscale>
<asrwt>0</asrwt>
<pdfrwt beam="1">  1        2 0.26853647E+00 0.29949606E+04</pdfrwt>
<pdfrwt beam="2">  1       -2 0.19764793E+00 0.29949606E+04</pdfrwt>
<totfact> 0.10921835E+00</totfact>
</mgrwt>
</event>
<event>
 6    1  0.2047711E-005  0.5766686E+03  0.7818608E-02  0.9955030E-01
         -2   -1    0    0    0  501 -0.00000000000E+00  0.00000000000E+00  0.26676905481E+02  0.26676905481E+02  0.00000000000E+00 0.  1.
          2   -1    0    0  501    0  0.00000000000E+00 -0.00000000000E+00 -0.31164284334E+04  0.31164284334E+04  0.00000000000E+00 0. -1.
         23    2    1    2    0    0 -0.79690636767E+02  0.20096892476E+03 -0.25618217207E+04  0.25726239740E+04  0.93404907469E+02 0.  0.
         13    1    3    3    0    0 -0.55373599033E+02  0.30396767748E+02 -0.66587377491E+03  0.66886327681E+03  0.00000000000E+00 0. -1.
        -13    1    3    3    0    0 -0.24317037735E+02  0.17057215701E+03 -0.18959479458E+04  0.19037606972E+04  0.00000000000E+00 0.  1.
         22    1    1    2    0    0  0.79690636767E+02 -0.20096892476E+03 -0.52792980722E+03  0.57048136486E+03  0.00000000000E+00 0.  1.
<mgrwt>
<rscale>  0 0.57666859E+03</rscale>
<asrwt>0</asrwt>
<pdfrwt beam="1">  1        2 0.47945066E+00 0.57666859E+03</pdfrwt>
<pdfrwt beam="2">  1       -2 0.41041382E-02 0.57666859E+03</pdfrwt>
<totfact> 0.44497191E+02</totfact>
</mgrwt>
</event>
<event>
 6    1  0.2047711E-005  0.2252403E+04  0.7818608E-02  0.8496928E-01
         -2   -1    0    0    0  501 -0.00000000000E+00  0.00000000000E+00  0.56384657639E+03  0.56384657639E+03  0.00000000000E+00 0.  1.
          2   -1    0    0  501    0  0.00000000000E+00 -0.00000000000E+00 -0.22494246128E+04  0.22494246128E+04  0.00000000000E+00 0. -1.
         23    2    1    2    0    0 -0.46936700794E+03  0.95061845979E+03 -0.13115752675E+04  0.16890563897E+04  0.93278942158E+02 0.  0.
         13    1    3    3    0    0 -0.14702068633E+03  0.39820597581E+03 -0.50675367709E+03  0.66104642093E+03  0.00000000000E+00 0.  1.
        -13    1    3    3    0    0 -0.32234632160E+03  0.55241248399E+03 -0.80482159044E+03  0.10280099688E+04  0.00000000000E+00 0. -1.
         22    1    1    2    0    0  0.46936700794E+03 -0.95061845979E+03 -0.37400276892E+03  0.11242147995E+04  0.00000000000E+00 0.  1.
<mgrwt>
<rscale>  0 0.22524035E+04</rscale>
<asrwt>0</asrwt>
<pdfrwt beam="1">  1        2 0.34606532E+00 0.22524035E+04</pdfrwt>
<pdfrwt beam="2">  1       -2 0.86745628E-01 0.22524035E+04</pdfrwt>
<totfact> 0.50690592E+00</totfact>
</mgrwt>
</event>
<event>
 6    1  0.2047711E-005  0.1203929E+04  0.7818608E-02  0.9109425E-01
          2   -1    0    0  501    0  0.00000000000E+00  0.00000000000E+00  0.88280319671E+03  0.88280319671E+03  0.00000000000E+00 0. -1.
         -2   -1    0    0    0  501 -0.00000000000E+00 -0.00000000000E+00 -0.41046631289E+03  0.41046631289E+03  0.00000000000E+00 0.  1.
         23    2    1    2    0    0 -0.11145443826E+03  0.33604420740E+03  0.75586407312E+03  0.83968879108E+03  0.91645882106E+02 0.  0.
         13    1    3    3    0    0 -0.12595690827E+03  0.28891354808E+03  0.62817028643E+03  0.70280444631E+03  0.00000000000E+00 0.  1.
        -13    1    3    3    0    0  0.14502470012E+02  0.47130659322E+02  0.12769378669E+03  0.13688434477E+03  0.00000000000E+00 0. -1.
         22    1    1    2    0    0  0.11145443826E+03 -0.33604420740E+03 -0.28352718930E+03  0.45358071851E+03  0.00000000000E+00 0.  1.
<mgrwt>
<rscale>  0 0.12039285E+04</rscale>
<asrwt>0</asrwt>
<pdfrwt beam="1">  1        2 0.13581588E+00 0.12039285E+04</pdfrwt>
<pdfrwt beam="2">  1       -2 0.63148664E-01 0.12039285E+04</pdfrwt>
<totfact> 0.69045271E+01</totfact>
</mgrwt>
</event>
<event>
 6    1  0.2047711E-005  0.1458737E+04  0.7818608E-02  0.8912365E-01
          1   -1    0    0  501    0  0.00000000000E+00  0.00000000000E+00  0.15234737172E+04  0.15234737172E+04  0.00000000000E+00 0. -1.
         -1   -1    0    0    0  501 -0.00000000000E+00 -0.00000000000E+00 -0.34918790859E+03  0.34918790859E+03  0.00000000000E+00 0.  1.
         23    2    1    2    0    0 -0.32050127781E+03 -0.51812847732E+03  0.83193203722E+02  0.62299716661E+03  0.10013077635E+03 0.  0.
         11    1    3    3    0    0 -0.16920444303E+03 -0.34983202192E+03  0.79548545692E+02  0.39666176803E+03  0.00000000000E+00 0. -1.
        -11    1    3    3    0    0 -0.15129683479E+03 -0.16829645540E+03  0.36446580299E+01  0.22633539858E+03  0.00000000000E+00 0.  1.
         22    1    1    2    0    0  0.32050127781E+03  0.51812847732E+03  0.10910926049E+04  0.12496644591E+04  0.00000000000E+00 0. -1.
<mgrwt>
<rscale>  0 0.14587373E+04</rscale>
<asrwt>0</asrwt>
<pdfrwt beam="1">  1        1 0.23438057E+00 0.14587373E+04</pdfrwt>
<pdfrwt beam="2">  1       -1 0.53721218E-01 0.14587373E+04</pdfrwt>
<totfact> 0.21385187E+01</totfact>
</mgrwt>
</event>
<event>
 6    1  0.2047711E-005  0.1131148E+04  0.7818608E-02  0.9175353E-01
          2   -1    0    0  501    0  0.00000000000E+00  0.00000000000E+00  0.88207060278E+03  0.88207060278E+03  0.00000000000E+00 0. -1.
         -2   -1    0    0    0  501 -0.00000000000E+00 -0.00000000000E+00 -0.36263996014E+03  0.36263996014E+03  0.00000000000E+00 0.  1.
         23    2    1    2    0    0  0.24919703196E+03  0.49448383783E+03  0.36442139902E+03  0.66969639595E+03  0.95272661720E+02 0.  0.
         13    1    3    3    0    0  0.24680759482E+03  0.44858197430E+03  0.35430303422E+03  0.62263184675E+03  0.00000000000E+00 0. -1.
        -13    1    3    3    0    0  0.23894371416E+01  0.45901863529E+02  0.10118364802E+02  0.47064549202E+02  0.00000000000E+00 0.  1.
         22    1    1    2    0    0 -0.24919703196E+03 -0.49448383783E+03  0.15500924362E+03  0.57501416697E+03  0.00000000000E+00 0.  1.
<mgrwt>
<rscale>  0 0.11311482E+04</rscale>
<asrwt>0</asrwt>
<pdfrwt beam="1">  1        2 0.13570317E+00 0.11311482E+04</pdfrwt>
<pdfrwt beam="2">  1       -2 0.55790763E-01 0.11311482E+04</pdfrwt>
<totfact> 0.90205550E+01</totfact>
</mgrwt>
</event>
<event>
 6    1  0.2047711E-005  0.3379588E+04  0.7818608E-02  0.8142934E-01
          2   -1    0    0  501    0  0.00000000000E+00  0.00000000000E+00  0.31800723876E+04  0.31800723876E+04  0.00000000000E+00 0. -1.
         -2   -1    0    0    0  501 -0.00000000000E+00 -0.00000000000E+00 -0.89790548623E+03  0.89790548623E+03  0.00000000000E+00 0.  1.
         23    2    1    2    0    0  0.11437544302E+04  0.33124821583E+03  0.25863523259E+04  0.28489830205E+04  0.97909755963E+02 0.  0.
         13    1    3    3    0    0  0.70884952786E+03  0.19080122572E+03  0.17007227196E+04  0.18523850922E+04  0.00000000000E+00 0. -1.
        -13    1    3    3    0    0  0.43490490232E+03  0.14044699012E+03  0.88562960624E+03  0.99659792822E+03  0.00000000000E+00 0.  1.
         22    1    1    2    0    0 -0.11437544302E+04 -0.33124821583E+03 -0.30418542451E+03  0.12289948533E+04  0.00000000000E+00 0.  1.
<mgrwt>
<rscale>  0 0.33795884E+04</rscale>
<asrwt>0</asrwt>
<pdfrwt beam="1">  1        2 0.48924190E+00 0.33795884E+04</pdfrwt>
<pdfrwt beam="2">  1       -2 0.13813931E+00 0.33795884E+04</pdfrwt>
<totfact> 0.41188381E-01</totfact>
</mgrwt>
</event>
<event>
 6    1  0.2047711E-005  0.1950472E+04  0.7818608E-02  0.8630133E-01
          2   -1    0    0  501    0  0.00000000000E+00  0.00000000000E+00  0.12277339967E+04  0.12277339967E+04  0.00000000000E+00 0. -1.
         -2   -1    0    0    0  501 -0.00000000000E+00 -0.00000000000E+00 -0.77466735275E+03  0.77466735275E+03  0.00000000000E+00 0.  1.
         23    2    1    2    0    0 -0.75140165281E+03 -0.70202056958E+02  0.85710974989E+03  0.11463735438E+04  0.10001202860E+03 0.  0.
         11    1    3    3    0    0 -0.18671894381E+02  0.14476802388E+02  0.24632654342E+02  0.34131878165E+02  0.00000000000E+00 0. -1.
        -11    1    3    3    0    0 -0.73272975843E+03 -0.84678859346E+02  0.83247709555E+03  0.11122416656E+04  0.00000000000E+00 0.  1.
         22    1    1    2    0    0  0.75140165281E+03  0.70202056958E+02 -0.40404310593E+03  0.85602780568E+03  0.00000000000E+00 0.  1.
<mgrwt>
<rscale>  0 0.19504722E+04</rscale>
<asrwt>0</asrwt>
<pdfrwt beam="1">  1        2 0.18888215E+00 0.19504722E+04</pdfrwt>
<pdfrwt beam="2">  1       -2 0.11917959E+00 0.19504722E+04</pdfrwt>
<totfact> 0.91878787E+00</totfact>
</mgrwt>
</event>
<event>
 6    1  0.2047711E-005  0.8315819E+03  0.7818608E-02  0.9515396E-01
          2   -1    0    0  501    0  0.00000000000E+00  0.00000000000E+00  0.10575600096E+04  0.10575600096E+04  0.00000000000E+00 0. -1.
         -2   -1    0    0    0  501 -0.00000000000E+00 -0.00000000000E+00 -0.16347261284E+03  0.16347261284E+03  0.00000000000E+00 0.  1.
         23    2    1    2    0    0  0.17785107505E+03  0.36904257105E+03  0.40858821277E+03  0.58579024207E+03  0.91555753201E+02 0.  0.
         11    1    3    3    0    0 -0.34747640319E+01  0.39710290545E+02  0.66303274786E+02  0.77363463001E+02  0.00000000000E+00 0. -1.
        -11    1    3    3    0    0  0.18132583909E+03  0.32933228050E+03  0.34228493798E+03  0.50842677906E+03  0.00000000000E+00 0.  1.
         22    1    1    2    0    0 -0.17785107505E+03 -0.36904257105E+03  0.48549918395E+03  0.63524238033E+03  0.00000000000E+00 0.  1.
<mgrwt>
<rscale>  0 0.83158186E+03</rscale>
<asrwt>0</asrwt>
<pdfrwt beam="1">  1        2 0.16270154E+00 0.83158186E+03</pdfrwt>
<pdfrwt beam="2">  1       -2 0.25149633E-01 0.83158186E+03</pdfrwt>
<totfact> 0.32959068E+02</totfact>
</mgrwt>
</event>
<event>
 6    1  0.2047711E-005  0.1109701E+04  0.7818608E-02  0.9195788E-01
          2   -1    0    0  501    0  0.00000000000E+00  0.00000000000E+00  0.12923118129E+04  0.12923118129E+04  0.00000000000E+00 0. -1.
         -2   -1    0    0    0  501 -0.00000000000E+00 -0.00000000000E+00 -0.23822354216E+03  0.23822354216E+03  0.00000000000E+00 0.  1.
         23    2    1    2    0    0  0.25250125193E+03 -0.28484493688E+03  0.10806345713E+04  0.11489619986E+04  0.86308037199E+02 0.  0.
         11    1    3    3    0    0  0.57436158929E+02 -0.12686365010E+03  0.37813171127E+03  0.40296015826E+03  0.00000000000E+00 0. -1.
        -11    1    3    3    0    0  0.19506509300E+03 -0.15798128678E+03  0.70250286001E+03  0.74600184034E+03  0.00000000000E+00 0.  1.
         22    1    1    2    0    0 -0.25250125193E+03  0.28484493688E+03 -0.26546300541E+02  0.38157335647E+03  0.00000000000E+00 0.  1.
<mgrwt>
<rscale>  0 0.11097010E+04</rscale>
<asrwt>0</asrwt>
<pdfrwt beam="1">  1        2 0.19881720E+00 0.11097010E+04</pdfrwt>
<pdfrwt beam="2">  1       -2 0.36649776E-01 0.11097010E+04</pdfrwt>
<totfact> 0.11610668E+02</totfact>
</mgrwt>
</event>
<event>
 6    1  0.2047711E-005  0.3599177E+04  0.7818608E-02  0.8090680E-01
          2   -1    0    0  501    0  0.00000000000E+00  0.00000000000E+00  0.41291091338E+04  0.41291091338E+04  0.00000000000E+00 0. -1.
         -2   -1    0    0    0  501 -0.00000000000E+00 -0.00000000000E+00 -0.78431412312E+03  0.78431412312E+03  0.00000000000E+00 0.  1.
         23    2    1    2    0    0 -0.67587244375E+03 -0.16166855348E+04  0.22264461203E+04  0.28346784627E+04  0.88679093132E+02 0.  0.
         11    1    3    3    0    0 -0.41254900795E+03 -0.92668102218E+03  0.13480724690E+04  0.16870784755E+04  0.00000000000E+00 0.  1.
        -11    1    3    3    0    0 -0.26332343580E+03 -0.69000451266E+03  0.87837365128E+03  0.11475999872E+04  0.00000000000E+00 0. -1.
         22    1    1    2    0    0  0.67587244375E+03  0.16166855348E+04  0.11183488904E+04  0.20787447942E+04  0.00000000000E+00 0.  1.
<mgrwt>
<rscale>  0 0.35991769E+04</rscale>
<asrwt>0</asrwt>
<pdfrwt beam="1">  1        2 0.63524755E+00 0.35991769E+04</pdfrwt>
<pdfrwt beam="2">  1       -2 0.12066371E+00 0.35991769E+04</pdfrwt>
<totfact> 0.11379451E-01</totfact>
</mgrwt>
</event>
<event>
 6    1  0.2047711E-005  0.2791422E+04  0.7818608E-02  0.8305936E-01
          2   -1    0    0  501    0  0.00000000000E+00  0.00000000000E+00  0.11617315203E+04  0.11617315203E+04  0.00000000000E+00 0.  1.
         -2   -1    0    0    0  501 -0.00000000000E+00 -0.00000000000E+00 -0.16768158497E+04  0.16768158497E+04  0.00000000000E+00 0. -1.
         23    2    1    2    0    0  0.59406850684E+03 -0.80397728636E+03 -0.12460895351E+04  0.16001348867E+04  0.91627825288E+02 0.  0.
         13    1    3    3    0    0  0.48965444532E+03 -0.60201859835E+03 -0.94274310643E+03  0.12210456311E+04  0.00000000000E+00 0. -1.
        -13    1    3    3    0    0  0.10441406151E+03 -0.20195868801E+03 -0.30334642868E+03  0.37908925558E+03  0.00000000000E+00 0.  1.
         22    1    1    2    0    0 -0.59406850684E+03  0.80397728636E+03  0.73100520570E+03  0.12384124832E+04  0.00000000000E+00 0.  1.
<mgrwt>
<rscale>  0 0.27914225E+04</rscale>
<asrwt>0</asrwt>
<pdfrwt beam="1">  1        2 0.17872793E+00 0.27914225E+04</pdfrwt>
<pdfrwt beam="2">  1       -2 0.25797167E+00 0.27914225E+04</pdfrwt>
<totfact> 0.99844171E-01</totfact>
</mgrwt>
</event>
<event>
 6    1  0.2047711E-005  0.3078980E+04  0.7818608E-02  0.8221530E-01
         -2   -1    0    0    0  501 -0.00000000000E+00  0.00000000000E+00  0.30578214189E+04  0.30578214189E+04  0.00000000000E+00 0.  1.
          2   -1    0    0  501    0  0.00000000000E+00 -0.00000000000E+00 -0.77507122676E+03  0.77507122676E+03  0.00000000000E+00 0. -1.
         23    2    1    2    0    0  0.92095252950E+03 -0.26956376448E+03 -0.35391171924E+03  0.10270408642E+04  0.93494635937E+02 0.  0.
         13    1    3    3    0    0  0.82957189243E+03 -0.21238783202E+03 -0.31611513347E+03  0.91281262783E+03  0.00000000000E+00 0. -1.
        -13    1    3    3    0    0  0.91380637071E+02 -0.57175932459E+02 -0.37796585768E+02  0.11422823635E+03  0.00000000000E+00 0.  1.
         22    1    1    2    0    0 -0.92095252950E+03  0.26956376448E+03  0.26366619114E+04  0.28058517815E+04  0.00000000000E+00 0.  1.
<mgrwt>
<rscale>  0 0.30789800E+04</rscale>
<asrwt>0</asrwt>
<pdfrwt beam="1">  1        2 0.11924173E+00 0.30789800E+04</pdfrwt>
<pdfrwt beam="2">  1       -2 0.47043406E+00 0.30789800E+04</pdfrwt>
<totfact> 0.77672896E-02</totfact>
</mgrwt>
</event>
<event>
 6    1  0.2047711E-005  0.4835586E+03  0.7818608E-02  0.1018162E+00
          2   -1    0    0  501    0  0.00000000000E+00  0.00000000000E+00  0.18005144029E+03  0.18005144029E+03  0.00000000000E+00 0.  1.
         -2   -1    0    0    0  501 -0.00000000000E+00 -0.00000000000E+00 -0.32466966323E+03  0.32466966323E+03  0.00000000000E+00 0. -1.
         23    2    1    2    0    0 -0.36091361634E+02 -0.44162342254E+02 -0.31088539172E+03  0.32894377201E+03  0.91111906489E+02 0.  0.
         11    1    3    3    0    0 -0.52624018166E+02 -0.59961026509E+02 -0.27544916144E+03  0.28676968551E+03  0.00000000000E+00 0.  1.
        -11    1    3    3    0    0  0.16532656531E+02  0.15798684255E+02 -0.35436230273E+02  0.42174086500E+02  0.00000000000E+00 0. -1.
         22    1    1    2    0    0  0.36091361634E+02  0.44162342254E+02  0.16626716877E+03  0.17577733150E+03  0.00000000000E+00 0.  1.
<mgrwt>
<rscale>  0 0.48355864E+03</rscale>
<asrwt>0</asrwt>
<pdfrwt beam="1">  1        2 0.27700222E-01 0.48355864E+03</pdfrwt>
<pdfrwt beam="2">  1       -2 0.49949178E-01 0.48355864E+03</pdfrwt>
<totfact> 0.74242734E+02</totfact>
</mgrwt>
</event>
<event>
 6    1  0.2047711E-005  0.1549265E+04  0.7818608E-02  0.8852337E-01
         -2   -1    0    0    0  501 -0.00000000000E+00  0.00000000000E+00  0.19055017026E+04  0.19055017026E+04  0.00000000000E+00 0.  1.
          2   -1    0    0  501    0  0.00000000000E+00 -0.00000000000E+00 -0.31490684299E+03  0.31490684299E+03  0.00000000000E+00 0. -1.
         23    2    1    2    0    0  0.22421659949E+03 -0.58473066824E+03  0.15101116003E+03  0.65050910106E+03  0.90413949356E+02 0.  0.
         13    1    3    3    0    0  0.70206698304E+02 -0.20832843835E+03  0.96846437686E+02  0.24022687444E+03  0.00000000000E+00 0. -1.
        -13    1    3    3    0    0  0.15400990119E+03 -0.37640222989E+03  0.54164722346E+02  0.41028222662E+03  0.00000000000E+00 0.  1.
         22    1    1    2    0    0 -0.22421659949E+03  0.58473066824E+03  0.14395836996E+04  0.15698994445E+04  0.00000000000E+00 0.  1.
<mgrwt>
<rscale>  0 0.15492650E+04</rscale>
<asrwt>0</asrwt>
<pdfrwt beam="1">  1        2 0.48447208E-01 0.15492650E+04</pdfrwt>
<pdfrwt beam="2">  1       -2 0.29315410E+00 0.15492650E+04</pdfrwt>
<totfact> 0.35142019E+00</totfact>
</mgrwt>
</event>
<event>
 6    1  0.2047711E-005  0.1421037E+04  0.7818608E-02  0.8938730E-01
         -2   -1    0    0    0  501 -0.00000000000E+00  0.00000000000E+00  0.19603183321E+03  0.19603183321E+03  0.00000000000E+00 0.  1.
          2   -1    0    0  501    0  0.00000000000E+00 -0.00000000000E+00 -0.25752776677E+04  0.25752776677E+04  0.00000000000E+00 0. -1.
         23    2    1    2    0    0  0.41009872296E+03 -0.27472001702E+03 -0.21832229407E+04  0.22402002605E+04  0.91557348483E+02 0.  0.
         11    1    3    3    0    0  0.10552106846E+03 -0.12122250141E+03 -0.73225311152E+03  0.74968273961E+03  0.00000000000E+00 0. -1.
        -11    1    3    3    0    0  0.30457765450E+03 -0.15349751561E+03 -0.14509698292E+04  0.14905175209E+04  0.00000000000E+00 0.  1.
         22    1    1    2    0    0 -0.41009872296E+03  0.27472001702E+03 -0.19602289376E+03  0.53110924037E+03  0.00000000000E+00 0.  1.
<mgrwt>
<rscale>  0 0.14210368E+04</rscale>
<asrwt>0</asrwt>
<pdfrwt beam="1">  1        2 0.39619654E+00 0.14210368E+04</pdfrwt>
<pdfrwt beam="2">  1       -2 0.30158745E-01 0.14210368E+04</pdfrwt>
<totfact> 0.31177948E+01</totfact>
</mgrwt>
</event>
<event>
 6    1  0.2047711E-005  0.8518739E+03  0.7818608E-02  0.9487825E-01
         -4   -1    0    0    0  501 -0.00000000000E+00  0.00000000000E+00  0.46632147673E+03  0.46632147673E+03  0.00000000000E+00 0.  1.
          4   -1    0    0  501    0  0.00000000000E+00 -0.00000000000E+00 -0.38904986017E+03  0.38904986017E+03  0.00000000000E+00 0. -1.
         23    2    1    2    0    0 -0.20973940838E+03  0.12898023078E+03  0.38253253923E+03  0.46318420010E+03  0.87074337780E+02 0.  0.
         11    1    3    3    0    0 -0.14358192275E+03  0.76475656434E+02  0.17402794337E+03  0.23822262622E+03  0.00000000000E+00 0.  1.
        -11    1    3    3    0    0 -0.66157485621E+02  0.52504574344E+02  0.20850459586E+03  0.22496157388E+03  0.00000000000E+00 0. -1.
         22    1    1    2    0    0  0.20973940838E+03 -0.12898023078E+03 -0.30526092268E+03  0.39218713680E+03  0.00000000000E+00 0. -1.
<mgrwt>
<rscale>  0 0.85187395E+03</rscale>
<asrwt>0</asrwt>
<pdfrwt beam="1">  1        4 0.59853825E-01 0.85187395E+03</pdfrwt>
<pdfrwt beam="2">  1       -4 0.71741766E-01 0.85187395E+03</pdfrwt>
<totfact> 0.92937228E+00</totfact>
</mgrwt>
</event>
<event>
 6    1  0.2047711E-005  0.2101854E+04  0.7818608E-02  0.8560427E-01
          2   -1    0    0  501    0  0.00000000000E+00  0.00000000000E+00  0.21917089888E+04  0.21917089888E+04  0.00000000000E+00 0.  1.
         -2   -1    0    0    0  501 -0.00000000000E+00 -0.00000000000E+00 -0.50392085881E+03  0.50392085881E+03  0.00000000000E+00 0. -1.
         23    2    1    2    0    0  0.94052453131E+03  0.17058905999E+03  0.13995695581E+04  0.16972526811E+04  0.90469299790E+02 0.  0.
         11    1    3    3    0    0  0.49600084680E+03  0.13529821958E+03  0.73750691530E+03  0.89902107782E+03  0.00000000000E+00 0. -1.
        -11    1    3    3    0    0  0.44452368451E+03  0.35290840412E+02  0.66206264282E+03  0.79823160331E+03  0.00000000000E+00 0.  1.
         22    1    1    2    0    0 -0.94052453131E+03 -0.17058905999E+03  0.28821857186E+03  0.99837716648E+03  0.00000000000E+00 0. -1.
<mgrwt>
<rscale>  0 0.21018543E+04</rscale>
<asrwt>0</asrwt>
<pdfrwt beam="1">  1        2 0.33718599E+00 0.21018543E+04</pdfrwt>
<pdfrwt beam="2">  1       -2 0.77526287E-01 0.21018543E+04</pdfrwt>
<totfact> 0.71329000E+00</totfact>
</mgrwt>
</event>
<event>
 6    1  0.2047711E-005  0.1566403E+04  0.7818608E-02  0.8841458E-01
          2   -1    0    0  501    0  0.00000000000E+00  0.00000000000E+00  0.22216135638E+04  0.22216135638E+04  0.00000000000E+00 0.  1.
         -2   -1    0    0    0  501 -0.00000000000E+00 -0.00000000000E+00 -0.27610781064E+03  0.27610781064E+03  0.00000000000E+00 0. -1.
         23    2    1    2    0    0  0.39959639799E+03  0.59395035285E+03  0.14721783199E+04  0.16395295765E+04  0.91070981772E+02 0.  0.
         11    1    3    3    0    0  0.19875828246E+03  0.37564373476E+03  0.87016891677E+03  0.96840436493E+03  0.00000000000E+00 0. -1.
        -11    1    3    3    0    0  0.20083811553E+03  0.21830661809E+03  0.60200940316E+03  0.67112521160E+03  0.00000000000E+00 0.  1.
         22    1    1    2    0    0 -0.39959639799E+03 -0.59395035285E+03  0.47332743323E+03  0.85819179790E+03  0.00000000000E+00 0. -1.
<mgrwt>
<rscale>  0 0.15664033E+04</rscale>
<asrwt>0</asrwt>
<pdfrwt beam="1">  1        2 0.34178669E+00 0.15664033E+04</pdfrwt>
<pdfrwt beam="2">  1       -2 0.42478126E-01 0.15664033E+04</pdfrwt>
<totfact> 0.25383039E+01</totfact>
</mgrwt>
</event>
<event>
 6    1  0.2047711E-005  0.2529475E+04  0.7818608E-02  0.8392560E-01
         -1   -1    0    0    0  501 -0.00000000000E+00  0.00000000000E+00  0.49988625472E+03  0.49988625472E+03  0.00000000000E+00 0.  1.
          1   -1    0    0  501    0  0.00000000000E+00 -0.00000000000E+00 -0.31998500084E+04  0.31998500084E+04  0.00000000000E+00 0. -1.
         23    2    1    2    0    0  0.50739538513E+03  0.50963459749E+03 -0.28704337867E+04  0.29606574230E+04  0.94470908429E+02 0.  0.
         13    1    3    3    0    0  0.35024391118E+03  0.35344491838E+03 -0.21549708714E+04  0.22116721195E+04  0.00000000000E+00 0.  1.
        -13    1    3    3    0    0  0.15715147395E+03  0.15618967911E+03 -0.71546291537E+03  0.74898530353E+03  0.00000000000E+00 0. -1.
         22    1    1    2    0    0 -0.50739538513E+03 -0.50963459749E+03  0.17047003301E+03  0.73907884016E+03  0.00000000000E+00 0.  1.
<mgrwt>
<rscale>  0 0.25294751E+04</rscale>
<asrwt>0</asrwt>
<pdfrwt beam="1">  1        1 0.49228462E+00 0.25294751E+04</pdfrwt>
<pdfrwt beam="2">  1       -1 0.76905577E-01 0.25294751E+04</pdfrwt>
<totfact> 0.63913490E-01</totfact>
</mgrwt>
</event>
<event>
 6    1  0.2047711E-005  0.1872511E+04  0.7818608E-02  0.8668662E-01
         -2   -1    0    0    0  501 -0.00000000000E+00  0.00000000000E+00  0.39317560520E+03  0.39317560520E+03  0.00000000000E+00 0.  1.
          2   -1    0    0  501    0  0.00000000000E+00 -0.00000000000E+00 -0.22294721762E+04  0.22294721762E+04  0.00000000000E+00 0. -1.
         23    2    1    2    0    0  0.76990237044E+03 -0.51646613173E+03 -0.76164357046E+03  0.12033641604E+04  0.92181608432E+02 0.  0.
         11    1    3    3    0    0  0.63448995625E+03 -0.41886180364E+03 -0.66751611726E+03  0.10117314278E+04  0.00000000000E+00 0. -1.
        -11    1    3    3    0    0  0.13541241419E+03 -0.97604328091E+02 -0.94127453198E+02  0.19163273266E+03  0.00000000000E+00 0.  1.
         22    1    1    2    0    0 -0.76990237044E+03  0.51646613173E+03 -0.10746530006E+04  0.14192836210E+04  0.00000000000E+00 0. -1.
<mgrwt>
<rscale>  0 0.18725107E+04</rscale>
<asrwt>0</asrwt>
<pdfrwt beam="1">  1        2 0.34299571E+00 0.18725107E+04</pdfrwt>
<pdfrwt beam="2">  1       -2 0.60488556E-01 0.18725107E+04</pdfrwt>
<totfact> 0.11878846E+01</totfact>
</mgrwt>
</event>
<event>
 6    1  0.2047711E-005  0.7525251E+04  0.7818608E-02  0.7525565E-01
          2   -1    0    0  501    0  0.00000000000E+00  0.00000000000E+00  0.31890178514E+04  0.31890178514E+04  0.00000000000E+00 0. -1.
         -2   -1    0    0    0  501 -0.00000000000E+00 -0.00000000000E+00 -0.44394078761E+04  0.44394078761E+04  0.00000000000E+00 0.  1.
         23    2    1    2    0    0  0.37434565483E+04 -0.36907444045E+03 -0.68581638149E+03  0.38246872678E+04  0.90585406806E+02 0.  0.
         13    1    3    3    0    0  0.58714820962E+03 -0.44565774822E+02 -0.76836678508E+02  0.59382910295E+03  0.00000000000E+00 0. -1.
        -13    1    3    3    0    0  0.31563083387E+04 -0.32450866563E+03 -0.60897970298E+03  0.32308581648E+04  0.00000000000E+00 0.  1.
         22    1    1    2    0    0 -0.37434565483E+04  0.36907444045E+03 -0.56457364320E+03  0.38037384597E+04  0.00000000000E+00 0. -1.
<mgrwt>
<rscale>  0 0.75252511E+04</rscale>
<asrwt>0</asrwt>
<pdfrwt beam="1">  1        2 0.49061813E+00 0.75252511E+04</pdfrwt>
<pdfrwt beam="2">  1       -2 0.68298582E+00 0.75252511E+04</pdfrwt>
<totfact> 0.21238250E-04</totfact>
</mgrwt>
</event>
<event>
 6    1  0.2047711E-005  0.1956115E+04  0.7818608E-02  0.8627418E-01
          1   -1    0    0  501    0  0.00000000000E+00  0.00000000000E+00  0.91100955702E+03  0.91100955702E+03  0.00000000000E+00 0. -1.
         -1   -1    0    0    0  501 -0.00000000000E+00 -0.00000000000E+00 -0.10500401260E+04  0.10500401260E+04  0.00000000000E+00 0.  1.
         23    2    1    2    0    0 -0.92115162455E+03 -0.27612600234E+03  0.96715555344E+02  0.97092740791E+03  0.92629629227E+02 0.  0.
         13    1    3    3    0    0 -0.45922040751E+03 -0.12834514152E+03  0.93623649657E+02  0.48592308630E+03  0.00000000000E+00 0.  1.
        -13    1    3    3    0    0 -0.46193121704E+03 -0.14778086082E+03  0.30919056873E+01  0.48500432161E+03  0.00000000000E+00 0. -1.
         22    1    1    2    0    0  0.92115162455E+03  0.27612600234E+03 -0.23574612436E+03  0.99012227514E+03  0.00000000000E+00 0.  1.
<mgrwt>
<rscale>  0 0.19561151E+04</rscale>
<asrwt>0</asrwt>
<pdfrwt beam="1">  1        1 0.14015532E+00 0.19561151E+04</pdfrwt>
<pdfrwt beam="2">  1       -1 0.16154464E+00 0.19561151E+04</pdfrwt>
<totfact> 0.47212910E+00</totfact>
</mgrwt>
</event>
<event>
 6    1  0.2047711E-005  0.9376154E+03  0.7818608E-02  0.9379745E-01
         -2   -1    0    0    0  501 -0.00000000000E+00  0.00000000000E+00  0.15867018378E+04  0.15867018378E+04  0.00000000000E+00 0. -1.
          2   -1    0    0  501    0  0.00000000000E+00 -0.00000000000E+00 -0.13851415716E+03  0.13851415716E+03  0.00000000000E+00 0.  1.
         23    2    1    2    0    0 -0.83391049589E+01 -0.22215155803E+03  0.14810424107E+04  0.15004933021E+04  0.92588724670E+02 0.  0.
         11    1    3    3    0    0  0.37384665522E+02 -0.12003916209E+03  0.90441797497E+03  0.91311493641E+03  0.00000000000E+00 0.  1.
        -11    1    3    3    0    0 -0.45723770481E+02 -0.10211239594E+03  0.57662443574E+03  0.58737836569E+03  0.00000000000E+00 0. -1.
         22    1    1    2    0    0  0.83391049589E+01  0.22215155803E+03 -0.32854730053E+02  0.22472269288E+03  0.00000000000E+00 0.  1.
<mgrwt>
<rscale>  0 0.93761542E+03</rscale>
<asrwt>0</asrwt>
<pdfrwt beam="1">  1        2 0.21309872E-01 0.93761542E+03</pdfrwt>
<pdfrwt beam="2">  1       -2 0.24410796E+00 0.93761542E+03</pdfrwt>
<totfact> 0.18624595E+01</totfact>
</mgrwt>
</event>
<event>
 6    1  0.2047711E-005  0.7128623E+03  0.7818608E-02  0.9695485E-01
         -2   -1    0    0    0  501 -0.00000000000E+00  0.00000000000E+00  0.29159213196E+03  0.29159213196E+03  0.00000000000E+00 0.  1.
          2   -1    0    0  501    0  0.00000000000E+00 -0.00000000000E+00 -0.43568796078E+03  0.43568796078E+03  0.00000000000E+00 0. -1.
         23    2    1    2    0    0 -0.33174239484E+03  0.77592331774E+02  0.11013405563E+02  0.35293738736E+03  0.91487254902E+02 0.  0.
         13    1    3    3    0    0 -0.24406053056E+02  0.31815794866E+02 -0.10550135103E+02  0.41463304009E+02  0.00000000000E+00 0.  1.
        -13    1    3    3    0    0 -0.30733634178E+03  0.45776536909E+02  0.21563540665E+02  0.31147408335E+03  0.00000000000E+00 0. -1.
         22    1    1    2    0    0  0.33174239484E+03 -0.77592331774E+02 -0.15510923438E+03  0.37434270538E+03  0.00000000000E+00 0. -1.
<mgrwt>
<rscale>  0 0.71286235E+03</rscale>
<asrwt>0</asrwt>
<pdfrwt beam="1">  1        2 0.67028917E-01 0.71286235E+03</pdfrwt>
<pdfrwt beam="2">  1       -2 0.44860328E-01 0.71286235E+03</pdfrwt>
<totfact> 0.34297592E+02</totfact>
</mgrwt>
</event>
<event>
 6    1  0.2047711E-005  0.1430215E+04  0.7818608E-02  0.8932233E-01
         -2   -1    0    0    0  501 -0.00000000000E+00  0.00000000000E+00  0.65283252596E+03  0.65283252596E+03  0.00000000000E+00 0.  1.
          2   -1    0    0  501    0  0.00000000000E+00 -0.00000000000E+00 -0.78332310991E+03  0.78332310991E+03  0.00000000000E+00 0. -1.
         23    2    1    2    0    0 -0.58234124554E+03  0.29078288077E+03  0.22452227271E+03  0.69473123756E+03  0.92548535878E+02 0.  0.
         13    1    3    3    0    0 -0.45613630611E+03  0.23904505823E+03  0.21482134961E+03  0.55798842448E+03  0.00000000000E+00 0. -1.
        -13    1    3    3    0    0 -0.12620493944E+03  0.51737822537E+02  0.97009231046E+01  0.13674281308E+03  0.00000000000E+00 0.  1.
         22    1    1    2    0    0  0.58234124554E+03 -0.29078288077E+03 -0.35501285666E+03  0.74142439831E+03  0.00000000000E+00 0. -1.
<mgrwt>
<rscale>  0 0.14302151E+04</rscale>
<asrwt>0</asrwt>
<pdfrwt beam="1">  1        2 0.12051125E+00 0.14302151E+04</pdfrwt>
<pdfrwt beam="2">  1       -2 0.10043577E+00 0.14302151E+04</pdfrwt>
<totfact> 0.28130580E+01</totfact>
</mgrwt>
</event>
<event>
 6    1  0.2047711E-005  0.3553051E+04  0.7818608E-02  0.8101331E-01
          2   -1    0    0  501    0  0.00000000000E+00  0.00000000000E+00  0.21427781434E+04  0.21427781434E+04  0.00000000000E+00 0. -1.
         -2   -1    0    0    0  501 -0.00000000000E+00 -0.00000000000E+00 -0.14728742835E+04  0.14728742835E+04  0.00000000000E+00 0.  1.
         23    2    1    2    0    0 -0.96461997969E+03 -0.94669820141E+03  0.15066418252E+04  0.20260425338E+04  0.90274966502E+02 0.  0.
         11    1    3    3    0    0 -0.48173334398E+03 -0.43511519130E+03  0.77730674041E+03  0.10127181311E+04  0.00000000000E+00 0. -1.
        -11    1    3    3    0    0 -0.48288663571E+03 -0.51158301011E+03  0.72933508474E+03  0.10133244027E+04  0.00000000000E+00 0.  1.
         22    1    1    2    0    0  0.96461997969E+03  0.94669820141E+03 -0.83673796528E+03  0.15896098931E+04  0.00000000000E+00 0.  1.
<mgrwt>
<rscale>  0 0.35530510E+04</rscale>
<asrwt>0</asrwt>
<pdfrwt beam="1">  1        2 0.32965818E+00 0.35530510E+04</pdfrwt>
<pdfrwt beam="2">  1       -2 0.22659604E+00 0.35530510E+04</pdfrwt>
<totfact> 0.40858600E-01</totfact>
</mgrwt>
</event>
<event>
 6    1  0.2047711E-005  0.8728621E+03  0.7818608E-02  0.9460156E-01
          2   -1    0    0  501    0  0.00000000000E+00  0.00000000000E+00  0.16203384837E+04  0.16203384837E+04  0.00000000000E+00 0.  1.
         -2   -1    0    0    0  501 -0.00000000000E+00 -0.00000000000E+00 -0.11755077327E+03  0.11755077327E+03  0.00000000000E+00 0. -1.
         23    2    1    2    0    0  0.30379655341E+03  0.17777748109E+03  0.12567704373E+04  0.13084458063E+04  0.93066198101E+02 0.  0.
         11    1    3    3    0    0  0.27245849615E+03  0.13828394230E+03  0.11569509743E+04  0.11966167464E+04  0.00000000000E+00 0. -1.
        -11    1    3    3    0    0  0.31338057250E+02  0.39493538797E+02  0.99819463033E+02  0.11182905990E+03  0.00000000000E+00 0.  1.
         22    1    1    2    0    0 -0.30379655341E+03 -0.17777748109E+03  0.24601727307E+03  0.42944345064E+03  0.00000000000E+00 0. -1.
<mgrwt>
<rscale>  0 0.87286205E+03</rscale>
<asrwt>0</asrwt>
<pdfrwt beam="1">  1        2 0.24928283E+00 0.87286205E+03</pdfrwt>
<pdfrwt beam="2">  1       -2 0.18084735E-01 0.87286205E+03</pdfrwt>
<totfact> 0.27832161E+02</totfact>
</mgrwt>
</event>
<event>
 6    1  0.2047711E-005  0.3559039E+04  0.7818608E-02  0.8099939E-01
         -2   -1    0    0    0  501 -0.00000000000E+00  0.00000000000E+00  0.17015507043E+04  0.17015507043E+04  0.00000000000E+00 0.  1.
          2   -1    0    0  501    0  0.00000000000E+00 -0.00000000000E+00 -0.18610604968E+04  0.18610604968E+04  0.00000000000E+00 0. -1.
         23    2    1    2    0    0  0.17310602369E+04 -0.27903130951E+03 -0.37708188740E+03  0.17957593023E+04  0.90181518679E+02 0.  0.
         13    1    3    3    0    0  0.92075621333E+03 -0.11187303165E+03 -0.22682912497E+03  0.95486073934E+03  0.00000000000E+00 0. -1.
        -13    1    3    3    0    0  0.81030402361E+03 -0.16715827785E+03 -0.15025276243E+03  0.84089856294E+03  0.00000000000E+00 0.  1.
         22    1    1    2    0    0 -0.17310602369E+04  0.27903130951E+03  0.21757209491E+03  0.17668518987E+04  0.00000000000E+00 0.  1.
<mgrwt>
<rscale>  0 0.35590385E+04</rscale>
<asrwt>0</asrwt>
<pdfrwt beam="1">  1        2 0.28631700E+00 0.35590385E+04</pdfrwt>
<pdfrwt beam="2">  1       -2 0.26177703E+00 0.35590385E+04</pdfrwt>
<totfact> 0.35514739E-01</totfact>
</mgrwt>
</event>
<event>
 6    1  0.2047711E-005  0.1403898E+04  0.7818608E-02  0.8951002E-01
         -1   -1    0    0    0  501 -0.00000000000E+00  0.00000000000E+00  0.54103392876E+03  0.54103392876E+03  0.00000000000E+00 0.  1.
          1   -1    0    0  501    0  0.00000000000E+00 -0.00000000000E+00 -0.91072339050E+03  0.91072339050E+03  0.00000000000E+00 0. -1.
         23    2    1    2    0    0 -0.96531757456E+01  0.42249913716E+03  0.39048566269E+03  0.58200739859E+03  0.87492025613E+02 0.  0.
         13    1    3    3    0    0  0.37157632985E+02  0.24990667443E+03  0.23446308389E+03  0.34468387447E+03  0.00000000000E+00 0. -1.
        -13    1    3    3    0    0 -0.46810808731E+02  0.17259246272E+03  0.15602257881E+03  0.23732352412E+03  0.00000000000E+00 0.  1.
         22    1    1    2    0    0  0.96531757456E+01 -0.42249913716E+03 -0.76017512443E+03  0.86974992067E+03  0.00000000000E+00 0. -1.
<mgrwt>
<rscale>  0 0.14038978E+04</rscale>
<asrwt>0</asrwt>
<pdfrwt beam="1">  1        1 0.14011129E+00 0.14038978E+04</pdfrwt>
<pdfrwt beam="2">  1       -1 0.83235990E-01 0.14038978E+04</pdfrwt>
<totfact> 0.24911220E+01</totfact>
</mgrwt>
</event>
<event>
 6    1  0.2047711E-005  0.2423644E+04  0.7818608E-02  0.8430704E-01
          2   -1    0    0  501    0  0.00000000000E+00  0.00000000000E+00  0.16668920911E+04  0.16668920911E+04  0.00000000000E+00 0. -1.
         -2   -1    0    0    0  501 -0.00000000000E+00 -0.00000000000E+00 -0.88098833344E+03  0.88098833344E+03  0.00000000000E+00 0.  1.
         23    2    1    2    0    0  0.26039779669E+03  0.79625015351E+03  0.13114925455E+04  0.15589087903E+04  0.91447252712E+02 0.  0.
         13    1    3    3    0    0  0.10332922734E+03  0.42347419276E+03  0.73774135248E+03  0.85689534035E+03  0.00000000000E+00 0. -1.
        -13    1    3    3    0    0  0.15706856935E+03  0.37277596075E+03  0.57375119299E+03  0.70201344991E+03  0.00000000000E+00 0.  1.
         22    1    1    2    0    0 -0.26039779669E+03 -0.79625015351E+03 -0.52558878782E+03  0.98897163426E+03  0.00000000000E+00 0.  1.
<mgrwt>
<rscale>  0 0.24236439E+04</rscale>
<asrwt>0</asrwt>
<pdfrwt beam="1">  1        2 0.25644494E+00 0.24236439E+04</pdfrwt>
<pdfrwt beam="2">  1       -2 0.13553667E+00 0.24236439E+04</pdfrwt>
<totfact> 0.35869618E+00</totfact>
</mgrwt>
</event>
<event>
 6    1  0.2047711E-005  0.2132862E+04  0.7818608E-02  0.8546904E-01
         -2   -1    0    0    0  501 -0.00000000000E+00  0.00000000000E+00  0.77039286019E+03  0.77039286019E+03  0.00000000000E+00 0.  1.
          2   -1    0    0  501    0  0.00000000000E+00 -0.00000000000E+00 -0.14762275058E+04  0.14762275058E+04  0.00000000000E+00 0. -1.
         23    2    1    2    0    0  0.97475629080E+03  0.19111784057E+03  0.49213285662E+02  0.99891317520E+03  0.93433016961E+02 0.  0.
         11    1    3    3    0    0  0.47000232919E+03  0.13357724528E+03  0.10987003807E+01  0.48861669746E+03  0.00000000000E+00 0.  1.
        -11    1    3    3    0    0  0.50475396162E+03  0.57540595291E+02  0.48114585282E+02  0.51029647774E+03  0.00000000000E+00 0. -1.
         22    1    1    2    0    0 -0.97475629080E+03 -0.19111784057E+03 -0.75504793127E+03  0.12477071908E+04  0.00000000000E+00 0. -1.
<mgrwt>
<rscale>  0 0.21328620E+04</rscale>
<asrwt>0</asrwt>
<pdfrwt beam="1">  1        2 0.22711192E+00 0.21328620E+04</pdfrwt>
<pdfrwt beam="2">  1       -2 0.11852198E+00 0.21328620E+04</pdfrwt>
<totfact> 0.65908667E+00</totfact>
</mgrwt>
</event>
<event>
 6    1  0.2047711E-005  0.9152030E+03  0.7818608E-02  0.9406774E-01
          2   -1    0    0  501    0  0.00000000000E+00  0.00000000000E+00  0.29537842861E+04  0.29537842861E+04  0.00000000000E+00 0. -1.
         -2   -1    0    0    0  501 -0.00000000000E+00 -0.00000000000E+00 -0.70891819051E+02  0.70891819051E+02  0.00000000000E+00 0.  1.
         23    2    1    2    0    0 -0.21999999563E+03  0.10118830207E+03  0.27213943316E+04  0.27336078686E+04  0.89363307783E+02 0.  0.
         11    1    3    3    0    0 -0.17205333734E+03  0.54532872633E+02  0.22847853301E+04  0.22919031807E+04  0.00000000000E+00 0. -1.
        -11    1    3    3    0    0 -0.47946658295E+02  0.46655429439E+02  0.43660900153E+03  0.44170468794E+03  0.00000000000E+00 0.  1.
         22    1    1    2    0    0  0.21999999563E+03 -0.10118830207E+03  0.16149813542E+03  0.29106823650E+03  0.00000000000E+00 0.  1.
<mgrwt>
<rscale>  0 0.91520302E+03</rscale>
<asrwt>0</asrwt>
<pdfrwt beam="1">  1        2 0.45442826E+00 0.91520302E+03</pdfrwt>
<pdfrwt beam="2">  1       -2 0.10906436E-01 0.91520302E+03</pdfrwt>
<totfact> 0.11462171E+02</totfact>
</mgrwt>
</event>
<event>
 6    1  0.2047711E-005  0.1752929E+04  0.7818608E-02  0.8731740E-01
         -2   -1    0    0    0  501 -0.00000000000E+00  0.00000000000E+00  0.73970077136E+03  0.73970077136E+03  0.00000000000E+00 0. -1.
          2   -1    0    0  501    0  0.00000000000E+00 -0.00000000000E+00 -0.10385149021E+04  0.10385149021E+04  0.00000000000E+00 0.  1.
         23    2    1    2    0    0  0.19177294972E+03  0.83311110620E+03  0.35667151393E+02  0.86021310939E+03  0.88563357861E+02 0.  0.
         11    1    3    3    0    0  0.12786827591E+03  0.57255531855E+03  0.65392773661E+02  0.59029323529E+03  0.00000000000E+00 0.  1.
        -11    1    3    3    0    0  0.63904673817E+02  0.26055578765E+03 -0.29725622267E+02  0.26991987410E+03  0.00000000000E+00 0. -1.
         22    1    1    2    0    0 -0.19177294972E+03 -0.83311110620E+03 -0.33448128212E+03  0.91800256405E+03  0.00000000000E+00 0.  1.
<mgrwt>
<rscale>  0 0.17529293E+04</rscale>
<asrwt>0</asrwt>
<pdfrwt beam="1">  1        2 0.15977152E+00 0.17529293E+04</pdfrwt>
<pdfrwt beam="2">  1       -2 0.11380012E+00 0.17529293E+04</pdfrwt>
<totfact> 0.13646333E+01</totfact>
</mgrwt>
</event>
<event>
 6    1  0.2047711E-005  0.1288584E+04  0.7818608E-02  0.9038668E-01
          2   -1    0    0  501    0  0.00000000000E+00  0.00000000000E+00  0.17152550658E+04  0.17152550658E+04  0.00000000000E+00 0. -1.
         -2   -1    0    0    0  501 -0.00000000000E+00 -0.00000000000E+00 -0.24201181556E+03  0.24201181556E+03  0.00000000000E+00 0.  1.
         23    2    1    2    0    0  0.52896571034E+03  0.28584641275E+03  0.40247911671E+03  0.72924052819E+03  0.91046219992E+02 0.  0.
         11    1    3    3    0    0  0.26010374650E+03  0.18546680255E+03  0.23891008253E+03  0.39891091903E+03  0.00000000000E+00 0. -1.
        -11    1    3    3    0    0  0.26886196384E+03  0.10037961020E+03  0.16356903417E+03  0.33032960916E+03  0.00000000000E+00 0.  1.
         22    1    1    2    0    0 -0.52896571034E+03 -0.28584641275E+03  0.10707641335E+04  0.12280263531E+04  0.00000000000E+00 0.  1.
<mgrwt>
<rscale>  0 0.12885837E+04</rscale>
<asrwt>0</asrwt>
<pdfrwt beam="1">  1        2 0.26388539E+00 0.12885837E+04</pdfrwt>
<pdfrwt beam="2">  1       -2 0.37232588E-01 0.12885837E+04</pdfrwt>
<totfact> 0.64148488E+01</totfact>
</mgrwt>
</event>
<event>
 6    1  0.2047711E-005  0.4207757E+04  0.7818608E-02  0.7963898E-01
         -2   -1    0    0    0  501 -0.00000000000E+00  0.00000000000E+00  0.26980284284E+04  0.26980284284E+04  0.00000000000E+00 0.  1.
          2   -1    0    0  501    0  0.00000000000E+00 -0.00000000000E+00 -0.16405697214E+04  0.16405697214E+04  0.00000000000E+00 0. -1.
         23    2    1    2    0    0 -0.50066223757E+03 -0.92925381692E+03 -0.13463955299E+04  0.17132047460E+04  0.90079110752E+02 0.  0.
         11    1    3    3    0    0 -0.22961668347E+03 -0.38635198121E+03 -0.50826610191E+03  0.67847336356E+03  0.00000000000E+00 0. -1.
        -11    1    3    3    0    0 -0.27104555409E+03 -0.54290183570E+03 -0.83812942803E+03  0.10347313824E+04  0.00000000000E+00 0.  1.
         22    1    1    2    0    0  0.50066223757E+03  0.92925381692E+03  0.24038542369E+04  0.26253934038E+04  0.00000000000E+00 0.  1.
<mgrwt>
<rscale>  0 0.42077565E+04</rscale>
<asrwt>0</asrwt>
<pdfrwt beam="1">  1        2 0.25239534E+00 0.42077565E+04</pdfrwt>
<pdfrwt beam="2">  1       -2 0.41508130E+00 0.42077565E+04</pdfrwt>
<totfact> 0.48509404E-02</totfact>
</mgrwt>
</event>
<event>
 6    1  0.2047711E-005  0.5105312E+04  0.7818608E-02  0.7812464E-01
          2   -1    0    0  501    0  0.00000000000E+00  0.00000000000E+00  0.43869547777E+04  0.43869547777E+04  0.00000000000E+00 0. -1.
         -2   -1    0    0    0  501 -0.00000000000E+00 -0.00000000000E+00 -0.14853246011E+04  0.14853246011E+04  0.00000000000E+00 0.  1.
         23    2    1    2    0    0 -0.17298307557E+04 -0.56025845970E+03 -0.60807420531E+03  0.19195298506E+04  0.92933433687E+02 0.  0.
         11    1    3    3    0    0 -0.12400999253E+04 -0.43661682988E+03 -0.41282618332E+03  0.13780085408E+04  0.00000000000E+00 0.  1.
        -11    1    3    3    0    0 -0.48973083042E+03 -0.12364162981E+03 -0.19524802199E+03  0.54152130981E+03  0.00000000000E+00 0. -1.
         22    1    1    2    0    0  0.17298307557E+04  0.56025845970E+03  0.35097043819E+04  0.39527495283E+04  0.00000000000E+00 0. -1.
<mgrwt>
<rscale>  0 0.51053117E+04</rscale>
<asrwt>0</asrwt>
<pdfrwt beam="1">  1        2 0.67491611E+00 0.51053117E+04</pdfrwt>
<pdfrwt beam="2">  1       -2 0.22851148E+00 0.51053117E+04</pdfrwt>
<totfact> 0.98709811E-03</totfact>
</mgrwt>
</event>
<event>
 6    1  0.2047711E-005  0.1024108E+04  0.7818608E-02  0.9282492E-01
         -1   -1    0    0    0  501 -0.00000000000E+00  0.00000000000E+00  0.19915964254E+03  0.19915964254E+03  0.00000000000E+00 0.  1.
          1   -1    0    0  501    0  0.00000000000E+00 -0.00000000000E+00 -0.13165285940E+04  0.13165285940E+04  0.00000000000E+00 0. -1.
         23    2    1    2    0    0  0.19370194063E+03  0.16485226416E+03  0.87529522940E+02  0.28423501192E+03  0.91822730351E+02 0.  0.
         13    1    3    3    0    0  0.34686670006E+02  0.39803810842E+02 -0.18366026667E+02  0.55900083803E+02  0.00000000000E+00 0. -1.
        -13    1    3    3    0    0  0.15901527063E+03  0.12504845332E+03  0.10589554961E+03  0.22833492811E+03  0.00000000000E+00 0.  1.
         22    1    1    2    0    0 -0.19370194063E+03 -0.16485226416E+03 -0.12048984744E+04  0.12314532246E+04  0.00000000000E+00 0. -1.
<mgrwt>
<rscale>  0 0.10241081E+04</rscale>
<asrwt>0</asrwt>
<pdfrwt beam="1">  1        1 0.20254287E+00 0.10241081E+04</pdfrwt>
<pdfrwt beam="2">  1       -1 0.30639944E-01 0.10241081E+04</pdfrwt>
<totfact> 0.86581784E+01</totfact>
</mgrwt>
</event>
<event>
 6    1  0.2047711E-005  0.1275637E+04  0.7818608E-02  0.9049112E-01
          2   -1    0    0  501    0  0.00000000000E+00  0.00000000000E+00  0.38130756329E+03  0.38130756329E+03  0.00000000000E+00 0. -1.
         -2   -1    0    0    0  501 -0.00000000000E+00 -0.00000000000E+00 -0.10668873500E+04  0.10668873500E+04  0.00000000000E+00 0.  1.
         23    2    1    2    0    0 -0.56940574003E+03 -0.21976219938E+03 -0.14784701853E+03  0.63476092641E+03  0.92435770994E+02 0.  0.
         13    1    3    3    0    0 -0.18517291984E+03 -0.80922637091E+02 -0.56088962307E+01  0.20216068647E+03  0.00000000000E+00 0.  1.
        -13    1    3    3    0    0 -0.38423282019E+03 -0.13883956228E+03 -0.14223812230E+03  0.43260023995E+03  0.00000000000E+00 0. -1.
         22    1    1    2    0    0  0.56940574003E+03  0.21976219938E+03 -0.53773276823E+03  0.81343398692E+03  0.00000000000E+00 0.  1.
<mgrwt>
<rscale>  0 0.12756367E+04</rscale>
<asrwt>0</asrwt>
<pdfrwt beam="1">  1        2 0.58662703E-01 0.12756367E+04</pdfrwt>
<pdfrwt beam="2">  1       -2 0.16413651E+00 0.12756367E+04</pdfrwt>
<totfact> 0.19332300E+01</totfact>
</mgrwt>
</event>
<event>
 6    1  0.2047711E-005  0.3175545E+03  0.7818608E-02  0.1076780E+00
          2   -1    0    0  501    0  0.00000000000E+00  0.00000000000E+00  0.14775474899E+03  0.14775474899E+03  0.00000000000E+00 0.  1.
         -2   -1    0    0    0  501 -0.00000000000E+00 -0.00000000000E+00 -0.17062203547E+03  0.17062203547E+03  0.00000000000E+00 0. -1.
         23    2    1    2    0    0 -0.12294164346E+03 -0.69944663055E+02  0.21996932054E+02  0.16998641520E+03  0.91676675035E+02 0.  0.
         11    1    3    3    0    0 -0.59094927280E+02  0.16193646834E+02  0.10241522716E+02  0.62123533508E+02  0.00000000000E+00 0.  1.
        -11    1    3    3    0    0 -0.63846716177E+02 -0.86138309890E+02  0.11755409337E+02  0.10786288169E+03  0.00000000000E+00 0. -1.
         22    1    1    2    0    0  0.12294164346E+03  0.69944663055E+02 -0.44864218540E+02  0.14839036927E+03  0.00000000000E+00 0. -1.
<mgrwt>
<rscale>  0 0.31755451E+03</rscale>
<asrwt>0</asrwt>
<pdfrwt beam="1">  1        2 0.22731500E-01 0.31755451E+03</pdfrwt>
<pdfrwt beam="2">  1       -2 0.26249544E-01 0.31755451E+03</pdfrwt>
<totfact> 0.31253359E+03</totfact>
</mgrwt>
</event>
<event>
 6    1  0.2047711E-005  0.1708190E+04  0.7818608E-02  0.8756707E-01
         -2   -1    0    0    0  501 -0.00000000000E+00  0.00000000000E+00  0.53317521458E+03  0.53317521458E+03  0.00000000000E+00 0.  1.
          2   -1    0    0  501    0  0.00000000000E+00 -0.00000000000E+00 -0.13681780204E+04  0.13681780204E+04  0.00000000000E+00 0. -1.
         23    2    1    2    0    0  0.14456055940E+03 -0.25728050458E+03  0.47047365885E+03  0.56293632939E+03  0.91982791330E+02 0.  0.
         11    1    3    3    0    0  0.74749886715E+01 -0.61242135693E+02  0.50996668009E+02  0.80044580004E+02  0.00000000000E+00 0. -1.
        -11    1    3    3    0    0  0.13708557073E+03 -0.19603836889E+03  0.41947699084E+03  0.48289174938E+03  0.00000000000E+00 0.  1.
         22    1    1    2    0    0 -0.14456055940E+03  0.25728050458E+03 -0.13054764647E+04  0.13384169056E+04  0.00000000000E+00 0. -1.
<mgrwt>
<rscale>  0 0.17081904E+04</rscale>
<asrwt>0</asrwt>
<pdfrwt beam="1">  1        2 0.21048893E+00 0.17081904E+04</pdfrwt>
<pdfrwt beam="2">  1       -2 0.82026956E-01 0.17081904E+04</pdfrwt>
<totfact> 0.18750864E+01</totfact>
</mgrwt>
</event>
<event>
 6    1  0.2047711E-005  0.1665415E+04  0.7818608E-02  0.8781339E-01
         -2   -1    0    0    0  501 -0.00000000000E+00  0.00000000000E+00  0.28327493061E+03  0.28327493061E+03  0.00000000000E+00 0. -1.
          2   -1    0    0  501    0  0.00000000000E+00 -0.00000000000E+00 -0.24478045677E+04  0.24478045677E+04  0.00000000000E+00 0.  1.
         23    2    1    2    0    0  0.22059481804E+03  0.21652736860E+03 -0.23490824708E+04  0.23710712712E+04  0.90798368164E+02 0.  0.
         11    1    3    3    0    0  0.17260838949E+03  0.18976800329E+03 -0.16487487400E+04  0.16685856163E+04  0.00000000000E+00 0. -1.
        -11    1    3    3    0    0  0.47986428550E+02  0.26759365317E+02 -0.70033373080E+03  0.70248565498E+03  0.00000000000E+00 0.  1.
         22    1    1    2    0    0 -0.22059481804E+03 -0.21652736860E+03  0.18455283373E+03  0.36000822704E+03  0.00000000000E+00 0. -1.
<mgrwt>
<rscale>  0 0.16654149E+04</rscale>
<asrwt>0</asrwt>
<pdfrwt beam="1">  1        2 0.37658533E+00 0.16654149E+04</pdfrwt>
<pdfrwt beam="2">  1       -2 0.43580757E-01 0.16654149E+04</pdfrwt>
<totfact> 0.17803805E+01</totfact>
</mgrwt>
</event>
<event>
 6    1  0.2047711E-005  0.1476865E+04  0.7818608E-02  0.8899985E-01
          2   -1    0    0  501    0  0.00000000000E+00  0.00000000000E+00  0.10280166808E+04  0.10280166808E+04  0.00000000000E+00 0. -1.
         -2   -1    0    0    0  501 -0.00000000000E+00 -0.00000000000E+00 -0.53042175146E+03  0.53042175146E+03  0.00000000000E+00 0.  1.
         23    2    1    2    0    0  0.61498801561E+03 -0.75239280918E+01  0.67559640320E+03  0.91816396486E+03  0.91256218990E+02 0.  0.
         11    1    3    3    0    0  0.26351646343E+03 -0.19254794102E+02  0.35310442932E+03  0.44101520563E+03  0.00000000000E+00 0.  1.
        -11    1    3    3    0    0  0.35147155219E+03  0.11730866010E+02  0.32249197388E+03  0.47714875923E+03  0.00000000000E+00 0. -1.
         22    1    1    2    0    0 -0.61498801561E+03  0.75239280918E+01 -0.17800147390E+03  0.64027446736E+03  0.00000000000E+00 0. -1.
<mgrwt>
<rscale>  0 0.14768648E+04</rscale>
<asrwt>0</asrwt>
<pdfrwt beam="1">  1        2 0.15815641E+00 0.14768648E+04</pdfrwt>
<pdfrwt beam="2">  1       -2 0.81603347E-01 0.14768648E+04</pdfrwt>
<totfact> 0.30928201E+01</totfact>
</mgrwt>
</event>
<event>
 6    1  0.2047711E-005  0.2402115E+04  0.7818608E-02  0.8438712E-01
         -2   -1    0    0    0  501 -0.00000000000E+00  0.00000000000E+00  0.44467494816E+03  0.44467494816E+03  0.00000000000E+00 0.  1.
          2   -1    0    0  501    0  0.00000000000E+00 -0.00000000000E+00 -0.32440315466E+04  0.32440315466E+04  0.00000000000E+00 0. -1.
         23    2    1    2    0    0 -0.18103265521E+03 -0.85172001016E+03 -0.26681767327E+04  0.28081339792E+04  0.90827145692E+02 0.  0.
         13    1    3    3    0    0 -0.31156302185E+02 -0.70701491923E+02 -0.30940766087E+03  0.31890832026E+03  0.00000000000E+00 0. -1.
        -13    1    3    3    0    0 -0.14987635302E+03 -0.78101851824E+03 -0.23587690718E+04  0.24892256589E+04  0.00000000000E+00 0.  1.
         22    1    1    2    0    0  0.18103265521E+03  0.85172001016E+03 -0.13117986577E+03  0.88057251555E+03  0.00000000000E+00 0.  1.
<mgrwt>
<rscale>  0 0.24021154E+04</rscale>
<asrwt>0</asrwt>
<pdfrwt beam="1">  1        2 0.49908180E+00 0.24021154E+04</pdfrwt>
<pdfrwt beam="2">  1       -2 0.68411528E-01 0.24021154E+04</pdfrwt>
<totfact> 0.21341491E+00</totfact>
</mgrwt>
</event>
<event>
 6    1  0.2047711E-005  0.5117538E+04  0.7818608E-02  0.7810627E-01
         -2   -1    0    0    0  501 -0.00000000000E+00  0.00000000000E+00  0.27421094350E+04  0.27421094350E+04  0.00000000000E+00 0.  1.
          2   -1    0    0  501    0  0.00000000000E+00 -0.00000000000E+00 -0.23876870868E+04  0.23876870868E+04  0.00000000000E+00 0. -1.
         23    2    1    2    0    0  0.82542912744E+03  0.24122882319E+04  0.38152794627E+03  0.25800509518E+04  0.10310956260E+03 0.  0.
         13    1    3    3    0    0  0.67380520345E+03  0.19582937820E+04  0.35028652535E+03  0.21003877353E+04  0.00000000000E+00 0. -1.
        -13    1    3    3    0    0  0.15162392400E+03  0.45399444994E+03  0.31241420920E+02  0.47966321652E+03  0.00000000000E+00 0.  1.
         22    1    1    2    0    0 -0.82542912744E+03 -0.24122882319E+04 -0.27105598106E+02  0.25497455700E+04  0.00000000000E+00 0. -1.
<mgrwt>
<rscale>  0 0.51175382E+04</rscale>
<asrwt>0</asrwt>
<pdfrwt beam="1">  1        2 0.36733648E+00 0.51175382E+04</pdfrwt>
<pdfrwt beam="2">  1       -2 0.42186299E+00 0.51175382E+04</pdfrwt>
<totfact> 0.15557120E-02</totfact>
</mgrwt>
</event>
<event>
 6    1  0.2047711E-005  0.1138078E+04  0.7818608E-02  0.9168853E-01
          2   -1    0    0  501    0  0.00000000000E+00  0.00000000000E+00  0.10246832096E+04  0.10246832096E+04  0.00000000000E+00 0. -1.
         -2   -1    0    0    0  501 -0.00000000000E+00 -0.00000000000E+00 -0.31600529787E+03  0.31600529787E+03  0.00000000000E+00 0.  1.
         23    2    1    2    0    0  0.53759477762E+03 -0.16777703152E+03  0.30110079384E+03  0.64550767900E+03  0.94133938473E+02 0.  0.
         13    1    3    3    0    0  0.23069908671E+02  0.59838215028E-01  0.36255209504E+02  0.42972834243E+02  0.00000000000E+00 0. -1.
        -13    1    3    3    0    0  0.51452486895E+03 -0.16783686973E+03  0.26484558434E+03  0.60253484476E+03  0.00000000000E+00 0.  1.
         22    1    1    2    0    0 -0.53759477762E+03  0.16777703152E+03  0.40757711785E+03  0.69518082844E+03  0.00000000000E+00 0. -1.
<mgrwt>
<rscale>  0 0.11380779E+04</rscale>
<asrwt>0</asrwt>
<pdfrwt beam="1">  1        2 0.15764357E+00 0.11380779E+04</pdfrwt>
<pdfrwt beam="2">  1       -2 0.48616200E-01 0.11380779E+04</pdfrwt>
<totfact> 0.96382592E+01</totfact>
</mgrwt>
</event>
<event>
 6    1  0.2047711E-005  0.3725573E+04  0.7818608E-02  0.8062318E-01
          2   -1    0    0  501    0  0.00000000000E+00  0.00000000000E+00  0.23045641799E+04  0.23045641799E+04  0.00000000000E+00 0. -1.
         -2   -1    0    0    0  501 -0.00000000000E+00 -0.00000000000E+00 -0.15056959585E+04  0.15056959585E+04  0.00000000000E+00 0.  1.
         23    2    1    2    0    0  0.86113892873E+03 -0.66579349910E+03 -0.11447927684E+04  0.15825574469E+04  0.95374799363E+02 0.  0.
         13    1    3    3    0    0  0.24722873179E+03 -0.24727338368E+03 -0.36974326837E+03  0.50889709825E+03  0.00000000000E+00 0.  1.
        -13    1    3    3    0    0  0.61391019695E+03 -0.41852011542E+03 -0.77504949999E+03  0.10736603487E+04  0.00000000000E+00 0. -1.
         22    1    1    2    0    0 -0.86113892873E+03  0.66579349910E+03  0.19436609898E+04  0.22277026914E+04  0.00000000000E+00 0. -1.
<mgrwt>
<rscale>  0 0.37255727E+04</rscale>
<asrwt>0</asrwt>
<pdfrwt beam="1">  1        2 0.35454834E+00 0.37255727E+04</pdfrwt>
<pdfrwt beam="2">  1       -2 0.23164553E+00 0.37255727E+04</pdfrwt>
<totfact> 0.30356303E-01</totfact>
</mgrwt>
</event>
<event>
 6    1  0.2047711E-005  0.1620943E+04  0.7818608E-02  0.8807784E-01
          2   -1    0    0  501    0  0.00000000000E+00  0.00000000000E+00  0.10511880022E+04  0.10511880022E+04  0.00000000000E+00 0. -1.
         -2   -1    0    0    0  501 -0.00000000000E+00 -0.00000000000E+00 -0.62487800800E+03  0.62487800800E+03  0.00000000000E+00 0.  1.
         23    2    1    2    0    0 -0.25310758048E+03 -0.23801830348E+02  0.10068127363E+04  0.10423362508E+04  0.90349317433E+02 0.  0.
         11    1    3    3    0    0 -0.16194040259E+03 -0.27886891118E+02  0.79326901101E+03  0.81010992866E+03  0.00000000000E+00 0.  1.
        -11    1    3    3    0    0 -0.91167177893E+02  0.40850607706E+01  0.21354372533E+03  0.23222632210E+03  0.00000000000E+00 0. -1.
         22    1    1    2    0    0  0.25310758048E+03  0.23801830348E+02 -0.58050274211E+03  0.63372975946E+03  0.00000000000E+00 0.  1.
<mgrwt>
<rscale>  0 0.16209433E+04</rscale>
<asrwt>0</asrwt>
<pdfrwt beam="1">  1        2 0.16172123E+00 0.16209433E+04</pdfrwt>
<pdfrwt beam="2">  1       -2 0.96135078E-01 0.16209433E+04</pdfrwt>
<totfact> 0.20283244E+01</totfact>
</mgrwt>
</event>
<event>
 6    1  0.2047711E-005  0.1525531E+04  0.7818608E-02  0.8867650E-01
         -2   -1    0    0    0  501 -0.00000000000E+00  0.00000000000E+00  0.52431985438E+03  0.52431985438E+03  0.00000000000E+00 0.  1.
          2   -1    0    0  501    0  0.00000000000E+00 -0.00000000000E+00 -0.11096494465E+04  0.11096494465E+04  0.00000000000E+00 0. -1.
         23    2    1    2    0    0  0.50719092204E+03  0.54627904998E+03 -0.13437397835E+03  0.76274923832E+03  0.89814267496E+02 0.  0.
         13    1    3    3    0    0  0.34113418826E+03  0.41472115444E+03 -0.12107751534E+03  0.55047791514E+03  0.00000000000E+00 0.  1.
        -13    1    3    3    0    0  0.16605673378E+03  0.13155789554E+03 -0.13296463007E+02  0.21227132317E+03  0.00000000000E+00 0. -1.
         22    1    1    2    0    0 -0.50719092204E+03 -0.54627904998E+03 -0.45095561381E+03  0.87122006260E+03  0.00000000000E+00 0.  1.
<mgrwt>
<rscale>  0 0.15255310E+04</rscale>
<asrwt>0</asrwt>
<pdfrwt beam="1">  1        2 0.17071530E+00 0.15255310E+04</pdfrwt>
<pdfrwt beam="2">  1       -2 0.80664594E-01 0.15255310E+04</pdfrwt>
<totfact> 0.28122010E+01</totfact>
</mgrwt>
</event>
<event>
 6    1  0.2047711E-005  0.1267881E+04  0.7818608E-02  0.9055430E-01
         -1   -1    0    0    0  501 -0.00000000000E+00  0.00000000000E+00  0.46266013958E+03  0.46266013958E+03  0.00000000000E+00 0.  1.
          1   -1    0    0  501    0  0.00000000000E+00 -0.00000000000E+00 -0.86863085504E+03  0.86863085504E+03  0.00000000000E+00 0. -1.
         23    2    1    2    0    0 -0.25591595503E+03 -0.54187139046E+02  0.39859457570E+03  0.48526822317E+03  0.90434454501E+02 0.  0.
         13    1    3    3    0    0 -0.53657093530E+02 -0.16144883239E+02  0.16340985976E+03  0.17274988627E+03  0.00000000000E+00 0. -1.
        -13    1    3    3    0    0 -0.20225886150E+03 -0.38042255807E+02  0.23518471594E+03  0.31251833689E+03  0.00000000000E+00 0.  1.
         22    1    1    2    0    0  0.25591595503E+03  0.54187139046E+02 -0.80456529116E+03  0.84602277145E+03  0.00000000000E+00 0. -1.
<mgrwt>
<rscale>  0 0.12678815E+04</rscale>
<asrwt>0</asrwt>
<pdfrwt beam="1">  1        1 0.13363551E+00 0.12678815E+04</pdfrwt>
<pdfrwt beam="2">  1       -1 0.71178484E-01 0.12678815E+04</pdfrwt>
<totfact> 0.37937595E+01</totfact>
</mgrwt>
</event>
<event>
 6    1  0.2047711E-005  0.2600346E+04  0.7818608E-02  0.8368084E-01
         -2   -1    0    0    0  501 -0.00000000000E+00  0.00000000000E+00  0.82412567629E+03  0.82412567629E+03  0.00000000000E+00 0.  1.
          2   -1    0    0  501    0  0.00000000000E+00 -0.00000000000E+00 -0.20512035356E+04  0.20512035356E+04  0.00000000000E+00 0. -1.
         23    2    1    2    0    0 -0.45894591740E+03  0.40876421861E+03 -0.18792140945E+04  0.19792258637E+04  0.90387305274E+02 0.  0.
         11    1    3    3    0    0 -0.14570896438E+03  0.93130096638E+02 -0.62645793577E+03  0.64988757681E+03  0.00000000000E+00 0. -1.
        -11    1    3    3    0    0 -0.31323695302E+03  0.31563412198E+03 -0.12527561587E+04  0.13293382869E+04  0.00000000000E+00 0.  1.
         22    1    1    2    0    0  0.45894591740E+03 -0.40876421861E+03  0.65213623516E+03  0.89610334824E+03  0.00000000000E+00 0.  1.
<mgrwt>
<rscale>  0 0.26003457E+04</rscale>
<asrwt>0</asrwt>
<pdfrwt beam="1">  1        2 0.31556977E+00 0.26003457E+04</pdfrwt>
<pdfrwt beam="2">  1       -2 0.12678857E+00 0.26003457E+04</pdfrwt>
<totfact> 0.25602721E+00</totfact>
</mgrwt>
</event>
<event>
 6    1  0.2047711E-005  0.4306440E+04  0.7818608E-02  0.7945428E-01
         -2   -1    0    0    0  501 -0.00000000000E+00  0.00000000000E+00  0.25610922004E+04  0.25610922004E+04  0.00000000000E+00 0.  1.
          2   -1    0    0  501    0  0.00000000000E+00 -0.00000000000E+00 -0.18103042974E+04  0.18103042974E+04  0.00000000000E+00 0. -1.
         23    2    1    2    0    0 -0.29350939796E+03  0.19118128674E+04 -0.58263615374E+03  0.20220995983E+04  0.90805788369E+02 0.  0.
         13    1    3    3    0    0 -0.13815868604E+02  0.29285396577E+03 -0.77312248329E+02  0.30320208975E+03  0.00000000000E+00 0.  1.
        -13    1    3    3    0    0 -0.27969352936E+03  0.16189589017E+04 -0.50532390541E+03  0.17188975086E+04  0.00000000000E+00 0. -1.
         22    1    1    2    0    0  0.29350939796E+03 -0.19118128674E+04  0.13334240567E+04  0.23492968995E+04  0.00000000000E+00 0.  1.
<mgrwt>
<rscale>  0 0.43064399E+04</rscale>
<asrwt>0</asrwt>
<pdfrwt beam="1">  1        2 0.27850835E+00 0.43064399E+04</pdfrwt>
<pdfrwt beam="2">  1       -2 0.39401418E+00 0.43064399E+04</pdfrwt>
<totfact> 0.53221263E-02</totfact>
</mgrwt>
</event>
<event>
 6    1  0.2047711E-005  0.2451112E+04  0.7818608E-02  0.8420612E-01
          2   -1    0    0  501    0  0.00000000000E+00  0.00000000000E+00  0.31072972380E+04  0.31072972380E+04  0.00000000000E+00 0. -1.
         -2   -1    0    0    0  501 -0.00000000000E+00 -0.00000000000E+00 -0.48337439577E+03  0.48337439577E+03  0.00000000000E+00 0.  1.
         23    2    1    2    0    0  0.68542227011E+03 -0.77372665571E+03  0.35543462950E+03  0.10977826676E+04  0.10166800587E+03 0.  0.
         11    1    3    3    0    0  0.49475101343E+03 -0.52738407179E+03  0.20363412887E+03  0.75125187714E+03  0.00000000000E+00 0. -1.
        -11    1    3    3    0    0  0.19067125668E+03 -0.24634258392E+03  0.15180050063E+03  0.34653079050E+03  0.00000000000E+00 0.  1.
         22    1    1    2    0    0 -0.68542227011E+03  0.77372665571E+03  0.22684882127E+04  0.24928889661E+04  0.00000000000E+00 0. -1.
<mgrwt>
<rscale>  0 0.24511123E+04</rscale>
<asrwt>0</asrwt>
<pdfrwt beam="1">  1        2 0.47804572E+00 0.24511123E+04</pdfrwt>
<pdfrwt beam="2">  1       -2 0.74365294E-01 0.24511123E+04</pdfrwt>
<totfact> 0.21703533E+00</totfact>
</mgrwt>
</event>
<event>
 6    1  0.2047711E-005  0.6384635E+04  0.7818608E-02  0.7644459E-01
         -2   -1    0    0    0  501 -0.00000000000E+00  0.00000000000E+00  0.52796571541E+04  0.52796571541E+04  0.00000000000E+00 0.  1.
          2   -1    0    0  501    0  0.00000000000E+00 -0.00000000000E+00 -0.19302185123E+04  0.19302185123E+04  0.00000000000E+00 0. -1.
         23    2    1    2    0    0  0.99650658576E+03  0.26933455348E+04  0.32477336984E+04  0.43362926346E+04  0.92326007633E+02 0.  0.
         13    1    3    3    0    0  0.72367148717E+03  0.20641617979E+04  0.24901792262E+04  0.33144316147E+04  0.00000000000E+00 0.  1.
        -13    1    3    3    0    0  0.27283509860E+03  0.62918373690E+03  0.75755447214E+03  0.10218610199E+04  0.00000000000E+00 0. -1.
         22    1    1    2    0    0 -0.99650658576E+03 -0.26933455348E+04  0.10170494340E+03  0.28735830319E+04  0.00000000000E+00 0. -1.
<mgrwt>
<rscale>  0 0.63846353E+04</rscale>
<asrwt>0</asrwt>
<pdfrwt beam="1">  1        2 0.29695670E+00 0.63846353E+04</pdfrwt>
<pdfrwt beam="2">  1       -2 0.81225494E+00 0.63846353E+04</pdfrwt>
<totfact> 0.31117020E-04</totfact>
</mgrwt>
</event>
<event>
 6    1  0.2047711E-005  0.4318809E+04  0.7818608E-02  0.7943149E-01
         -1   -1    0    0    0  501 -0.00000000000E+00  0.00000000000E+00  0.14624872852E+04  0.14624872852E+04  0.00000000000E+00 0.  1.
          1   -1    0    0  501    0  0.00000000000E+00 -0.00000000000E+00 -0.31884223231E+04  0.31884223231E+04  0.00000000000E+00 0. -1.
         23    2    1    2    0    0  0.19637204974E+04  0.23116967968E+03 -0.17955003569E+04  0.26724058943E+04  0.91072056823E+02 0.  0.
         13    1    3    3    0    0  0.21208670336E+03  0.14668145526E+02 -0.22986363979E+03  0.31310256647E+03  0.00000000000E+00 0.  1.
        -13    1    3    3    0    0  0.17516337940E+04  0.21650153415E+03 -0.15656367171E+04  0.23593033278E+04  0.00000000000E+00 0. -1.
         22    1    1    2    0    0 -0.19637204974E+04 -0.23116967968E+03  0.69565318967E+02  0.19785037140E+04  0.00000000000E+00 0. -1.
<mgrwt>
<rscale>  0 0.43188087E+04</rscale>
<asrwt>0</asrwt>
<pdfrwt beam="1">  1        1 0.49052651E+00 0.43188087E+04</pdfrwt>
<pdfrwt beam="2">  1       -1 0.22499805E+00 0.43188087E+04</pdfrwt>
<totfact> 0.33676722E-02</totfact>
</mgrwt>
</event>
<event>
 6    1  0.2047711E-005  0.1925888E+04  0.7818608E-02  0.8642077E-01
         -2   -1    0    0    0  501 -0.00000000000E+00  0.00000000000E+00  0.18972318272E+04  0.18972318272E+04  0.00000000000E+00 0.  1.
          2   -1    0    0  501    0  0.00000000000E+00 -0.00000000000E+00 -0.48874403941E+03  0.48874403941E+03  0.00000000000E+00 0. -1.
         23    2    1    2    0    0  0.42074475346E+03  0.10487249024E+03  0.17678531397E+04  0.18227993020E+04  0.96271414704E+02 0.  0.
         13    1    3    3    0    0  0.34234531293E+03  0.49821068845E+02  0.13003935320E+04  0.13456246841E+04  0.00000000000E+00 0.  1.
        -13    1    3    3    0    0  0.78399440529E+02  0.55051421392E+02  0.46745960764E+03  0.47717461799E+03  0.00000000000E+00 0. -1.
         22    1    1    2    0    0 -0.42074475346E+03 -0.10487249024E+03 -0.35936535187E+03  0.56317656458E+03  0.00000000000E+00 0. -1.
<mgrwt>
<rscale>  0 0.19258876E+04</rscale>
<asrwt>0</asrwt>
<pdfrwt beam="1">  1        2 0.75191392E-01 0.19258876E+04</pdfrwt>
<pdfrwt beam="2">  1       -2 0.29188182E+00 0.19258876E+04</pdfrwt>
<totfact> 0.21079517E+00</totfact>
</mgrwt>
</event>
<event>
 6    1  0.2047711E-005  0.2381508E+04  0.7818608E-02  0.8446459E-01
         -1   -1    0    0    0  501 -0.00000000000E+00  0.00000000000E+00  0.78800974437E+03  0.78800974437E+03  0.00000000000E+00 0.  1.
          1   -1    0    0  501    0  0.00000000000E+00 -0.00000000000E+00 -0.17993365193E+04  0.17993365193E+04  0.00000000000E+00 0. -1.
         23    2    1    2    0    0 -0.31467616764E+03 -0.10505792634E+04 -0.64842018830E+01  0.10999167777E+04  0.83886791436E+02 0.  0.
         13    1    3    3    0    0 -0.28139201730E+03 -0.82840848361E+03  0.60634474478E+01  0.87491648087E+03  0.00000000000E+00 0.  1.
        -13    1    3    3    0    0 -0.33284150342E+02 -0.22217077980E+03 -0.12547649331E+02  0.22500029681E+03  0.00000000000E+00 0. -1.
         22    1    1    2    0    0  0.31467616764E+03  0.10505792634E+04 -0.10048425731E+04  0.14874294860E+04  0.00000000000E+00 0. -1.
<mgrwt>
<rscale>  0 0.23815077E+04</rscale>
<asrwt>0</asrwt>
<pdfrwt beam="1">  1        1 0.27682100E+00 0.23815077E+04</pdfrwt>
<pdfrwt beam="2">  1       -1 0.12123227E+00 0.23815077E+04</pdfrwt>
<totfact> 0.22096833E+00</totfact>
</mgrwt>
</event>
<event>
 6    1  0.2047711E-005  0.2507456E+04  0.7818608E-02  0.8400334E-01
          2   -1    0    0  501    0  0.00000000000E+00  0.00000000000E+00  0.21997602339E+04  0.21997602339E+04  0.00000000000E+00 0. -1.
         -2   -1    0    0    0  501 -0.00000000000E+00 -0.00000000000E+00 -0.71454796491E+03  0.71454796491E+03  0.00000000000E+00 0.  1.
         23    2    1    2    0    0  0.12471681203E+04  0.37024552982E+02  0.85932794998E+03  0.15184105239E+04  0.10162113766E+03 0.  0.
         13    1    3    3    0    0  0.77005074906E+03  0.70377458651E+02  0.54722833385E+03  0.94730670439E+03  0.00000000000E+00 0.  1.
        -13    1    3    3    0    0  0.47711737128E+03 -0.33352905669E+02  0.31209961613E+03  0.57110381953E+03  0.00000000000E+00 0. -1.
         22    1    1    2    0    0 -0.12471681203E+04 -0.37024552982E+02  0.62588431900E+03  0.13958976749E+04  0.00000000000E+00 0.  1.
<mgrwt>
<rscale>  0 0.25074562E+04</rscale>
<asrwt>0</asrwt>
<pdfrwt beam="1">  1        2 0.33842465E+00 0.25074562E+04</pdfrwt>
<pdfrwt beam="2">  1       -2 0.10993046E+00 0.25074562E+04</pdfrwt>
<totfact> 0.30292633E+00</totfact>
</mgrwt>
</event>
<event>
 6    1  0.2047711E-005  0.4820497E+04  0.7818608E-02  0.7856810E-01
         -2   -1    0    0    0  501 -0.00000000000E+00  0.00000000000E+00  0.16425509973E+04  0.16425509973E+04  0.00000000000E+00 0.  1.
          2   -1    0    0  501    0  0.00000000000E+00 -0.00000000000E+00 -0.35367527726E+04  0.35367527726E+04  0.00000000000E+00 0. -1.
         23    2    1    2    0    0 -0.21958122246E+04  0.46518694914E+03 -0.63940079056E+01  0.22464197984E+04  0.91492098293E+02 0.  0.
         11    1    3    3    0    0 -0.45029240531E+03  0.12648793724E+03  0.19989594536E+02  0.46814744733E+03  0.00000000000E+00 0.  1.
        -11    1    3    3    0    0 -0.17455198193E+04  0.33869901190E+03 -0.26383602441E+02  0.17782723511E+04  0.00000000000E+00 0. -1.
         22    1    1    2    0    0  0.21958122246E+04 -0.46518694914E+03 -0.18878077674E+04  0.29328839715E+04  0.00000000000E+00 0. -1.
<mgrwt>
<rscale>  0 0.48204966E+04</rscale>
<asrwt>0</asrwt>
<pdfrwt beam="1">  1        2 0.54411580E+00 0.48204966E+04</pdfrwt>
<pdfrwt beam="2">  1       -2 0.25270016E+00 0.48204966E+04</pdfrwt>
<totfact> 0.34911155E-02</totfact>
</mgrwt>
</event>
<event>
 6    1  0.2047711E-005  0.3227012E+04  0.7818608E-02  0.8181720E-01
         -2   -1    0    0    0  501 -0.00000000000E+00  0.00000000000E+00  0.10866092193E+04  0.10866092193E+04  0.00000000000E+00 0.  1.
          2   -1    0    0  501    0  0.00000000000E+00 -0.00000000000E+00 -0.23958945067E+04  0.23958945067E+04  0.00000000000E+00 0. -1.
         23    2    1    2    0    0 -0.70486916696E+03 -0.12848594832E+04 -0.13805765424E+04  0.20152658867E+04  0.87181252557E+02 0.  0.
         13    1    3    3    0    0 -0.23788947465E+03 -0.43205263983E+03 -0.52197941313E+03  0.71813883996E+03  0.00000000000E+00 0. -1.
        -13    1    3    3    0    0 -0.46697969231E+03 -0.85280684334E+03 -0.85859712926E+03  0.12971270468E+04  0.00000000000E+00 0.  1.
         22    1    1    2    0    0  0.70486916696E+03  0.12848594832E+04  0.71291254996E+02  0.14672378393E+04  0.00000000000E+00 0.  1.
<mgrwt>
<rscale>  0 0.32270117E+04</rscale>
<asrwt>0</asrwt>
<pdfrwt beam="1">  1        2 0.36859915E+00 0.32270117E+04</pdfrwt>
<pdfrwt beam="2">  1       -2 0.16717065E+00 0.32270117E+04</pdfrwt>
<totfact> 0.74985547E-01</totfact>
</mgrwt>
</event>
<event>
 6    1  0.2047711E-005  0.1715385E+04  0.7818608E-02  0.8752638E-01
         -2   -1    0    0    0  501 -0.00000000000E+00  0.00000000000E+00  0.24156128371E+03  0.24156128371E+03  0.00000000000E+00 0.  1.
          2   -1    0    0  501    0  0.00000000000E+00 -0.00000000000E+00 -0.30453392595E+04  0.30453392595E+04  0.00000000000E+00 0. -1.
         23    2    1    2    0    0  0.20712652309E+03 -0.60275823068E+03 -0.31294354327E+03  0.71581613163E+03  0.90775502292E+02 0.  0.
         13    1    3    3    0    0  0.11510242239E+03 -0.25277493680E+03 -0.95892283022E+02  0.29383510045E+03  0.00000000000E+00 0.  1.
        -13    1    3    3    0    0  0.92024100701E+02 -0.34998329388E+03 -0.21705126025E+03  0.42198103119E+03  0.00000000000E+00 0. -1.
         22    1    1    2    0    0 -0.20712652309E+03  0.60275823068E+03 -0.24908344325E+04  0.25710844115E+04  0.00000000000E+00 0. -1.
<mgrwt>
<rscale>  0 0.17153846E+04</rscale>
<asrwt>0</asrwt>
<pdfrwt beam="1">  1        2 0.46851373E+00 0.17153846E+04</pdfrwt>
<pdfrwt beam="2">  1       -2 0.37163275E-01 0.17153846E+04</pdfrwt>
<totfact> 0.10629201E+01</totfact>
</mgrwt>
</event>
<event>
 6    1  0.2047711E-005  0.3073228E+04  0.7818608E-02  0.8223124E-01
          2   -1    0    0  501    0  0.00000000000E+00  0.00000000000E+00  0.24669621601E+04  0.24669621601E+04  0.00000000000E+00 0. -1.
         -2   -1    0    0    0  501 -0.00000000000E+00 -0.00000000000E+00 -0.95712142431E+03  0.95712142431E+03  0.00000000000E+00 0.  1.
         23    2    1    2    0    0  0.12466219670E+04  0.88649938876E+02  0.17494026973E+04  0.21515604712E+04  0.82930836589E+02 0.  0.
         13    1    3    3    0    0  0.98486316189E+02 -0.68264634024E+01  0.10977908109E+03  0.14764010879E+03  0.00000000000E+00 0.  1.
        -13    1    3    3    0    0  0.11481356508E+04  0.95476402278E+02  0.16396236163E+04  0.20039203624E+04  0.00000000000E+00 0. -1.
         22    1    1    2    0    0 -0.12466219670E+04 -0.88649938876E+02 -0.23956196152E+03  0.12725231132E+04  0.00000000000E+00 0.  1.
<mgrwt>
<rscale>  0 0.30732278E+04</rscale>
<asrwt>0</asrwt>
<pdfrwt beam="1">  1        2 0.37953264E+00 0.30732278E+04</pdfrwt>
<pdfrwt beam="2">  1       -2 0.14724945E+00 0.30732278E+04</pdfrwt>
<totfact> 0.97381972E-01</totfact>
</mgrwt>
</event>
<event>
 6    1  0.2047711E-005  0.1503466E+04  0.7818608E-02  0.8882151E-01
          2   -1    0    0  501    0  0.00000000000E+00  0.00000000000E+00  0.82484823298E+03  0.82484823298E+03  0.00000000000E+00 0. -1.
         -2   -1    0    0    0  501 -0.00000000000E+00 -0.00000000000E+00 -0.68509914678E+03  0.68509914678E+03  0.00000000000E+00 0.  1.
         23    2    1    2    0    0  0.26218780580E+03 -0.28129949165E+03  0.71561811643E+03  0.81749016846E+03  0.91153921835E+02 0.  0.
         11    1    3    3    0    0  0.14137022958E+03 -0.12764079663E+03  0.26542117149E+03  0.32668962801E+03  0.00000000000E+00 0.  1.
        -11    1    3    3    0    0  0.12081757622E+03 -0.15365869502E+03  0.45019694493E+03  0.49080054045E+03  0.00000000000E+00 0. -1.
         22    1    1    2    0    0 -0.26218780580E+03  0.28129949165E+03 -0.57586903023E+03  0.69245721130E+03  0.00000000000E+00 0.  1.
<mgrwt>
<rscale>  0 0.15034664E+04</rscale>
<asrwt>0</asrwt>
<pdfrwt beam="1">  1        2 0.12689973E+00 0.15034664E+04</pdfrwt>
<pdfrwt beam="2">  1       -2 0.10539987E+00 0.15034664E+04</pdfrwt>
<totfact> 0.23265195E+01</totfact>
</mgrwt>
</event>
<event>
 6    1  0.2047711E-005  0.1184375E+04  0.7818608E-02  0.9126644E-01
          1   -1    0    0  501    0  0.00000000000E+00  0.00000000000E+00  0.71668616812E+03  0.71668616812E+03  0.00000000000E+00 0. -1.
         -1   -1    0    0    0  501 -0.00000000000E+00 -0.00000000000E+00 -0.48931592316E+03  0.48931592316E+03  0.00000000000E+00 0.  1.
         23    2    1    2    0    0 -0.51410278258E+03  0.11718184221E+03 -0.15269102385E+03  0.55601761205E+03  0.88361648658E+02 0.  0.
         11    1    3    3    0    0 -0.37563235532E+03  0.12094294819E+03 -0.13106375919E+03  0.41581795543E+03  0.00000000000E+00 0.  1.
        -11    1    3    3    0    0 -0.13847042725E+03 -0.37611059774E+01 -0.21627264658E+02  0.14019965663E+03  0.00000000000E+00 0. -1.
         22    1    1    2    0    0  0.51410278258E+03 -0.11718184221E+03  0.38006126880E+03  0.64998447923E+03  0.00000000000E+00 0. -1.
<mgrwt>
<rscale>  0 0.11843749E+04</rscale>
<asrwt>0</asrwt>
<pdfrwt beam="1">  1        1 0.11025941E+00 0.11843749E+04</pdfrwt>
<pdfrwt beam="2">  1       -1 0.75279373E-01 0.11843749E+04</pdfrwt>
<totfact> 0.46212358E+01</totfact>
</mgrwt>
</event>
<event>
 6    1  0.2047711E-005  0.4144957E+04  0.7818608E-02  0.7975926E-01
         -2   -1    0    0    0  501 -0.00000000000E+00  0.00000000000E+00  0.15119329701E+04  0.15119329701E+04  0.00000000000E+00 0.  1.
          2   -1    0    0  501    0  0.00000000000E+00 -0.00000000000E+00 -0.28408442852E+04  0.28408442852E+04  0.00000000000E+00 0. -1.
         23    2    1    2    0    0 -0.12613815152E+03  0.17844679865E+04 -0.17614400661E+04  0.25123104806E+04  0.93787082267E+02 0.  0.
         13    1    3    3    0    0 -0.68905747367E+02  0.89736458908E+03 -0.95146658186E+03  0.13096945690E+04  0.00000000000E+00 0.  1.
        -13    1    3    3    0    0 -0.57232404149E+02  0.88710339737E+03 -0.80997348423E+03  0.12026159116E+04  0.00000000000E+00 0. -1.
         22    1    1    2    0    0  0.12613815152E+03 -0.17844679865E+04  0.43252875103E+03  0.18404667746E+04  0.00000000000E+00 0. -1.
<mgrwt>
<rscale>  0 0.41449565E+04</rscale>
<asrwt>0</asrwt>
<pdfrwt beam="1">  1        2 0.43705296E+00 0.41449565E+04</pdfrwt>
<pdfrwt beam="2">  1       -2 0.23260508E+00 0.41449565E+04</pdfrwt>
<totfact> 0.14018940E-01</totfact>
</mgrwt>
</event>
<event>
 6    1  0.2047711E-005  0.2649100E+04  0.7818608E-02  0.8351712E-01
         -2   -1    0    0    0  501 -0.00000000000E+00  0.00000000000E+00  0.16571989982E+04  0.16571989982E+04  0.00000000000E+00 0.  1.
          2   -1    0    0  501    0  0.00000000000E+00 -0.00000000000E+00 -0.10586735675E+04  0.10586735675E+04  0.00000000000E+00 0. -1.
         23    2    1    2    0    0 -0.60001335824E+03 -0.74953073014E+03 -0.63330971343E+03  0.11540690672E+04  0.94772744890E+02 0.  0.
         13    1    3    3    0    0 -0.28458742689E+03 -0.36415766968E+03 -0.24867630771E+03  0.52482446393E+03  0.00000000000E+00 0. -1.
        -13    1    3    3    0    0 -0.31542593135E+03 -0.38537306046E+03 -0.38463340572E+03  0.62924460323E+03  0.00000000000E+00 0.  1.
         22    1    1    2    0    0  0.60001335824E+03  0.74953073014E+03  0.12318351441E+04  0.15618034985E+04  0.00000000000E+00 0.  1.
<mgrwt>
<rscale>  0 0.26491001E+04</rscale>
<asrwt>0</asrwt>
<pdfrwt beam="1">  1        2 0.16287286E+00 0.26491001E+04</pdfrwt>
<pdfrwt beam="2">  1       -2 0.25495369E+00 0.26491001E+04</pdfrwt>
<totfact> 0.12200054E+00</totfact>
</mgrwt>
</event>
<event>
 6    1  0.2047711E-005  0.2397840E+04  0.7818608E-02  0.8440313E-01
         -2   -1    0    0    0  501 -0.00000000000E+00  0.00000000000E+00  0.82130524774E+03  0.82130524774E+03  0.00000000000E+00 0.  1.
          2   -1    0    0  501    0  0.00000000000E+00 -0.00000000000E+00 -0.17501527707E+04  0.17501527707E+04  0.00000000000E+00 0. -1.
         23    2    1    2    0    0  0.10577706104E+04  0.54996951538E+03 -0.58449484865E+03  0.13305213172E+04  0.85484591719E+02 0.  0.
         13    1    3    3    0    0  0.10078106655E+04  0.50315314244E+03 -0.54319594574E+03  0.12505627764E+04  0.00000000000E+00 0.  1.
        -13    1    3    3    0    0  0.49959944891E+02  0.46816372940E+02 -0.41298902906E+02  0.79958540820E+02  0.00000000000E+00 0. -1.
         22    1    1    2    0    0 -0.10577706104E+04 -0.54996951538E+03 -0.34435267428E+03  0.12409367012E+04  0.00000000000E+00 0.  1.
<mgrwt>
<rscale>  0 0.23978404E+04</rscale>
<asrwt>0</asrwt>
<pdfrwt beam="1">  1        2 0.26925427E+00 0.23978404E+04</pdfrwt>
<pdfrwt beam="2">  1       -2 0.12635465E+00 0.23978404E+04</pdfrwt>
<totfact> 0.38604013E+00</totfact>
</mgrwt>
</event>
<event>
 6    1  0.2047711E-005  0.5959193E+04  0.7818608E-02  0.7695482E-01
          2   -1    0    0  501    0  0.00000000000E+00  0.00000000000E+00  0.26148352265E+04  0.26148352265E+04  0.00000000000E+00 0. -1.
         -2   -1    0    0    0  501 -0.00000000000E+00 -0.00000000000E+00 -0.33952407192E+04  0.33952407192E+04  0.00000000000E+00 0.  1.
         23    2    1    2    0    0  0.16410363285E+04 -0.10913011837E+04 -0.26432217179E+04  0.32982457899E+04  0.88688985116E+02 0.  0.
         13    1    3    3    0    0  0.14155288854E+04 -0.90475128277E+03 -0.22375623259E+04  0.27980318210E+04  0.00000000000E+00 0. -1.
        -13    1    3    3    0    0  0.22550744309E+03 -0.18654990090E+03 -0.40565939193E+03  0.50021396889E+03  0.00000000000E+00 0.  1.
         22    1    1    2    0    0 -0.16410363285E+04  0.10913011837E+04  0.18628162252E+04  0.27118301558E+04  0.00000000000E+00 0. -1.
<mgrwt>
<rscale>  0 0.59591929E+04</rscale>
<asrwt>0</asrwt>
<pdfrwt beam="1">  1        2 0.40228234E+00 0.59591929E+04</pdfrwt>
<pdfrwt beam="2">  1       -2 0.52234473E+00 0.59591929E+04</pdfrwt>
<totfact> 0.24739264E-03</totfact>
</mgrwt>
</event>
<event>
 6    1  0.2047711E-005  0.3777923E+03  0.7818608E-02  0.1051753E+00
         -2   -1    0    0    0  501 -0.00000000000E+00  0.00000000000E+00  0.58654973708E+02  0.58654973708E+02  0.00000000000E+00 0.  1.
          2   -1    0    0  501    0  0.00000000000E+00 -0.00000000000E+00 -0.60833302639E+03  0.60833302639E+03  0.00000000000E+00 0. -1.
         23    2    1    2    0    0 -0.15034694471E+03 -0.69382755280E+02 -0.40525932553E+03  0.44727241288E+03  0.91647803445E+02 0.  0.
         13    1    3    3    0    0 -0.67377989016E+02 -0.62356247213E+01 -0.75324103647E+02  0.10125412095E+03  0.00000000000E+00 0.  1.
        -13    1    3    3    0    0 -0.82968955698E+02 -0.63147130559E+02 -0.32993522189E+03  0.34601829193E+03  0.00000000000E+00 0. -1.
         22    1    1    2    0    0  0.15034694471E+03  0.69382755280E+02 -0.14441872714E+03  0.21971558721E+03  0.00000000000E+00 0.  1.
<mgrwt>
<rscale>  0 0.37779231E+03</rscale>
<asrwt>0</asrwt>
<pdfrwt beam="1">  1        2 0.93589692E-01 0.37779231E+03</pdfrwt>
<pdfrwt beam="2">  1       -2 0.90238425E-02 0.37779231E+03</pdfrwt>
<totfact> 0.39009051E+03</totfact>
</mgrwt>
</event>
<event>
 6    1  0.2047711E-005  0.6866059E+03  0.7818608E-02  0.9740416E-01
         -2   -1    0    0    0  501 -0.00000000000E+00  0.00000000000E+00  0.59912594890E+02  0.59912594890E+02  0.00000000000E+00 0.  1.
          2   -1    0    0  501    0  0.00000000000E+00 -0.00000000000E+00 -0.19671476493E+04  0.19671476493E+04  0.00000000000E+00 0. -1.
         23    2    1    2    0    0 -0.21509852359E+03  0.78392665936E+02 -0.17014442709E+04  0.17192248474E+04  0.91698877807E+02 0.  0.
         11    1    3    3    0    0 -0.38562515243E+02  0.54715494300E+02 -0.55592783340E+03  0.55994339790E+03  0.00000000000E+00 0. -1.
        -11    1    3    3    0    0 -0.17653600835E+03  0.23677171636E+02 -0.11455164375E+04  0.11592814495E+04  0.00000000000E+00 0.  1.
         22    1    1    2    0    0  0.21509852359E+03 -0.78392665936E+02 -0.20579078358E+03  0.30783539681E+03  0.00000000000E+00 0.  1.
<mgrwt>
<rscale>  0 0.68660591E+03</rscale>
<asrwt>0</asrwt>
<pdfrwt beam="1">  1        2 0.30263805E+00 0.68660591E+03</pdfrwt>
<pdfrwt beam="2">  1       -2 0.92173238E-02 0.68660591E+03</pdfrwt>
<totfact> 0.56077606E+02</totfact>
</mgrwt>
</event>
<event>
 6    1  0.2047711E-005  0.2718405E+04  0.7818608E-02  0.8329058E-01
          2   -1    0    0  501    0  0.00000000000E+00  0.00000000000E+00  0.15503135554E+04  0.15503135554E+04  0.00000000000E+00 0. -1.
         -2   -1    0    0    0  501 -0.00000000000E+00 -0.00000000000E+00 -0.11916503329E+04  0.11916503329E+04  0.00000000000E+00 0.  1.
         23    2    1    2    0    0  0.65591544462E+03  0.34668182619E+03 -0.96775315219E+03  0.12221633230E+04  0.81997959986E+02 0.  0.
         11    1    3    3    0    0  0.57709547084E+02  0.66306509310E+01 -0.83617112750E+02  0.10181443366E+03  0.00000000000E+00 0. -1.
        -11    1    3    3    0    0  0.59820589754E+03  0.34005117526E+03 -0.88413603944E+03  0.11203488894E+04  0.00000000000E+00 0.  1.
         22    1    1    2    0    0 -0.65591544462E+03 -0.34668182619E+03  0.13264163747E+04  0.15198005653E+04  0.00000000000E+00 0. -1.
<mgrwt>
<rscale>  0 0.27184052E+04</rscale>
<asrwt>0</asrwt>
<pdfrwt beam="1">  1        2 0.23850978E+00 0.27184052E+04</pdfrwt>
<pdfrwt beam="2">  1       -2 0.18333082E+00 0.27184052E+04</pdfrwt>
<totfact> 0.17919771E+00</totfact>
</mgrwt>
</event>
<event>
 6    1  0.2047711E-005  0.1176479E+04  0.7818608E-02  0.9133697E-01
          2   -1    0    0  501    0  0.00000000000E+00  0.00000000000E+00  0.12000123082E+04  0.12000123082E+04  0.00000000000E+00 0. -1.
         -2   -1    0    0    0  501 -0.00000000000E+00 -0.00000000000E+00 -0.28835196718E+03  0.28835196718E+03  0.00000000000E+00 0.  1.
         23    2    1    2    0    0  0.21349646588E+03 -0.48911884550E+03  0.76060215303E+03  0.93371432982E+03  0.92134838903E+02 0.  0.
         11    1    3    3    0    0  0.76329520431E+02 -0.18889074249E+03  0.21622833831E+03  0.29708686032E+03  0.00000000000E+00 0.  1.
        -11    1    3    3    0    0  0.13716694545E+03 -0.30022810302E+03  0.54437381472E+03  0.63662746950E+03  0.00000000000E+00 0. -1.
         22    1    1    2    0    0 -0.21349646588E+03  0.48911884550E+03  0.15105818801E+03  0.55464994558E+03  0.00000000000E+00 0.  1.
<mgrwt>
<rscale>  0 0.11764793E+04</rscale>
<asrwt>0</asrwt>
<pdfrwt beam="1">  1        2 0.18461728E+00 0.11764793E+04</pdfrwt>
<pdfrwt beam="2">  1       -2 0.44361842E-01 0.11764793E+04</pdfrwt>
<totfact> 0.90152410E+01</totfact>
</mgrwt>
</event>
<event>
 6    1  0.2047711E-005  0.2443143E+04  0.7818608E-02  0.8423526E-01
         -2   -1    0    0    0  501 -0.00000000000E+00  0.00000000000E+00  0.60745880773E+03  0.60745880773E+03  0.00000000000E+00 0.  1.
          2   -1    0    0  501    0  0.00000000000E+00 -0.00000000000E+00 -0.24565233289E+04  0.24565233289E+04  0.00000000000E+00 0. -1.
         23    2    1    2    0    0 -0.99396590041E+03 -0.58922053902E+03 -0.43606589051E+03  0.12386837542E+04  0.95052233940E+02 0.  0.
         13    1    3    3    0    0 -0.39643871195E+03 -0.27765983371E+03 -0.15119127093E+03  0.50706748663E+03  0.00000000000E+00 0.  1.
        -13    1    3    3    0    0 -0.59752718846E+03 -0.31156070532E+03 -0.28487461958E+03  0.73161626754E+03  0.00000000000E+00 0. -1.
         22    1    1    2    0    0  0.99396590041E+03  0.58922053902E+03 -0.14129986306E+04  0.18252983824E+04  0.00000000000E+00 0. -1.
<mgrwt>
<rscale>  0 0.24431428E+04</rscale>
<asrwt>0</asrwt>
<pdfrwt beam="1">  1        2 0.37792666E+00 0.24431428E+04</pdfrwt>
<pdfrwt beam="2">  1       -2 0.93455202E-01 0.24431428E+04</pdfrwt>
<totfact> 0.32002695E+00</totfact>
</mgrwt>
</event>
<event>
 6    1  0.2047711E-005  0.1590824E+04  0.7818608E-02  0.8826205E-01
         -2   -1    0    0    0  501 -0.00000000000E+00  0.00000000000E+00  0.76096527188E+03  0.76096527188E+03  0.00000000000E+00 0.  1.
          2   -1    0    0  501    0  0.00000000000E+00 -0.00000000000E+00 -0.83141779908E+03  0.83141779908E+03  0.00000000000E+00 0. -1.
         23    2    1    2    0    0 -0.15648963438E+03 -0.46610105181E+03 -0.65782187231E+03  0.82639224611E+03  0.91952882357E+02 0.  0.
         13    1    3    3    0    0  0.17661610003E+01 -0.72635386464E+02 -0.64987415442E+02  0.97480166482E+02  0.00000000000E+00 0.  1.
        -13    1    3    3    0    0 -0.15825579538E+03 -0.39346566535E+03 -0.59283445687E+03  0.72891207963E+03  0.00000000000E+00 0. -1.
         22    1    1    2    0    0  0.15648963438E+03  0.46610105181E+03  0.58736934511E+03  0.76599082484E+03  0.00000000000E+00 0.  1.
<mgrwt>
<rscale>  0 0.15908238E+04</rscale>
<asrwt>0</asrwt>
<pdfrwt beam="1">  1        2 0.12791043E+00 0.15908238E+04</pdfrwt>
<pdfrwt beam="2">  1       -2 0.11707158E+00 0.15908238E+04</pdfrwt>
<totfact> 0.17715774E+01</totfact>
</mgrwt>
</event>
<event>
 6    1  0.2047711E-005  0.2630037E+04  0.7818608E-02  0.8358069E-01
         -2   -1    0    0    0  501 -0.00000000000E+00  0.00000000000E+00  0.11137807058E+04  0.11137807058E+04  0.00000000000E+00 0.  1.
          2   -1    0    0  501    0  0.00000000000E+00 -0.00000000000E+00 -0.15526161743E+04  0.15526161743E+04  0.00000000000E+00 0. -1.
         23    2    1    2    0    0  0.86870257864E+02  0.77319978407E+03 -0.12918212821E+04  0.15118540502E+04  0.10731307705E+03 0.  0.
         11    1    3    3    0    0  0.74531902460E+02  0.54500725295E+03 -0.81733076124E+03  0.98519921007E+03  0.00000000000E+00 0. -1.
        -11    1    3    3    0    0  0.12338355404E+02  0.22819253112E+03 -0.47449052085E+03  0.52665484015E+03  0.00000000000E+00 0.  1.
         22    1    1    2    0    0 -0.86870257864E+02 -0.77319978407E+03  0.85298581361E+03  0.11545428299E+04  0.00000000000E+00 0.  1.
<mgrwt>
<rscale>  0 0.26300372E+04</rscale>
<asrwt>0</asrwt>
<pdfrwt beam="1">  1        2 0.23886403E+00 0.26300372E+04</pdfrwt>
<pdfrwt beam="2">  1       -2 0.17135088E+00 0.26300372E+04</pdfrwt>
<totfact> 0.21812674E+00</totfact>
</mgrwt>
</event>
<event>
 6    1  0.2047711E-005  0.2696912E+04  0.7818608E-02  0.8336008E-01
         -2   -1    0    0    0  501 -0.00000000000E+00  0.00000000000E+00  0.11314918276E+04  0.11314918276E+04  0.00000000000E+00 0.  1.
          2   -1    0    0  501    0  0.00000000000E+00 -0.00000000000E+00 -0.16070233508E+04  0.16070233508E+04  0.00000000000E+00 0. -1.
         23    2    1    2    0    0 -0.32482262554E+03  0.11043414781E+04  0.47197929909E+03  0.12475904330E+04  0.92938643477E+02 0.  0.
         11    1    3    3    0    0 -0.16902221932E+02  0.16365291480E+03  0.54080192339E+02  0.17318380072E+03  0.00000000000E+00 0.  1.
        -11    1    3    3    0    0 -0.30792040360E+03  0.94068856329E+03  0.41789910675E+03  0.10744066323E+04  0.00000000000E+00 0. -1.
         22    1    1    2    0    0  0.32482262554E+03 -0.11043414781E+04 -0.94751082228E+03  0.14909247455E+04  0.00000000000E+00 0. -1.
<mgrwt>
<rscale>  0 0.26969122E+04</rscale>
<asrwt>0</asrwt>
<pdfrwt beam="1">  1        2 0.24723436E+00 0.26969122E+04</pdfrwt>
<pdfrwt beam="2">  1       -2 0.17407567E+00 0.26969122E+04</pdfrwt>
<totfact> 0.19344766E+00</totfact>
</mgrwt>
</event>
<event>
 6    1  0.2047711E-005  0.2184446E+04  0.7818608E-02  0.8524930E-01
         -2   -1    0    0    0  501 -0.00000000000E+00  0.00000000000E+00  0.60064381771E+03  0.60064381771E+03  0.00000000000E+00 0.  1.
          2   -1    0    0  501    0  0.00000000000E+00 -0.00000000000E+00 -0.19861199380E+04  0.19861199380E+04  0.00000000000E+00 0. -1.
         23    2    1    2    0    0  0.45195742669E+03  0.97437144519E+03 -0.91556746519E+03  0.14143818329E+04  0.92449755063E+02 0.  0.
         13    1    3    3    0    0  0.13250112395E+03  0.39029622311E+03 -0.33846408133E+03  0.53333443914E+03  0.00000000000E+00 0.  1.
        -13    1    3    3    0    0  0.31945630274E+03  0.58407522208E+03 -0.57710338386E+03  0.88104739377E+03  0.00000000000E+00 0. -1.
         22    1    1    2    0    0 -0.45195742669E+03 -0.97437144519E+03 -0.46990865509E+03  0.11723819228E+04  0.00000000000E+00 0.  1.
<mgrwt>
<rscale>  0 0.21844456E+04</rscale>
<asrwt>0</asrwt>
<pdfrwt beam="1">  1        2 0.30555691E+00 0.21844456E+04</pdfrwt>
<pdfrwt beam="2">  1       -2 0.92406742E-01 0.21844456E+04</pdfrwt>
<totfact> 0.61873980E+00</totfact>
</mgrwt>
</event>
<event>
 6    1  0.2047711E-005  0.1462545E+04  0.7818608E-02  0.8909749E-01
         -2   -1    0    0    0  501 -0.00000000000E+00  0.00000000000E+00  0.15987738342E+03  0.15987738342E+03  0.00000000000E+00 0. -1.
          2   -1    0    0  501    0  0.00000000000E+00 -0.00000000000E+00 -0.33448089180E+04  0.33448089180E+04  0.00000000000E+00 0.  1.
         23    2    1    2    0    0 -0.65244987121E+03  0.99807478607E+02 -0.86026630020E+03  0.10881348703E+04  0.91252515189E+02 0.  0.
         11    1    3    3    0    0 -0.55428757398E+03  0.11623056574E+03 -0.71703990018E+03  0.91372341413E+03  0.00000000000E+00 0. -1.
        -11    1    3    3    0    0 -0.98162297225E+02 -0.16423087137E+02 -0.14322640002E+03  0.17441145619E+03  0.00000000000E+00 0.  1.
         22    1    1    2    0    0  0.65244987121E+03 -0.99807478607E+02 -0.23246652344E+04  0.24165514311E+04  0.00000000000E+00 0.  1.
<mgrwt>
<rscale>  0 0.14625448E+04</rscale>
<asrwt>0</asrwt>
<pdfrwt beam="1">  1        2 0.51458596E+00 0.14625448E+04</pdfrwt>
<pdfrwt beam="2">  1       -2 0.24596522E-01 0.14625448E+04</pdfrwt>
<totfact> 0.15069760E+01</totfact>
</mgrwt>
</event>
<event>
 6    1  0.2047711E-005  0.2279055E+04  0.7818608E-02  0.8486225E-01
          2   -1    0    0  501    0  0.00000000000E+00  0.00000000000E+00  0.21955926681E+04  0.21955926681E+04  0.00000000000E+00 0. -1.
         -2   -1    0    0    0  501 -0.00000000000E+00 -0.00000000000E+00 -0.59142262288E+03  0.59142262288E+03  0.00000000000E+00 0.  1.
         23    2    1    2    0    0  0.61672049389E+03 -0.83749367369E+03  0.23939188069E+03  0.10711017560E+04  0.90612792494E+02 0.  0.
         11    1    3    3    0    0  0.46206224236E+03 -0.65528995722E+03  0.21931571251E+03  0.83126760168E+03  0.00000000000E+00 0. -1.
        -11    1    3    3    0    0  0.15465825153E+03 -0.18220371647E+03  0.20076168180E+02  0.23983415434E+03  0.00000000000E+00 0.  1.
         22    1    1    2    0    0 -0.61672049389E+03  0.83749367369E+03  0.13647781646E+04  0.17159135350E+04  0.00000000000E+00 0. -1.
<mgrwt>
<rscale>  0 0.22790552E+04</rscale>
<asrwt>0</asrwt>
<pdfrwt beam="1">  1        2 0.33778348E+00 0.22790552E+04</pdfrwt>
<pdfrwt beam="2">  1       -2 0.90988097E-01 0.22790552E+04</pdfrwt>
<totfact> 0.48594762E+00</totfact>
</mgrwt>
</event>
<event>
 6    1  0.2047711E-005  0.5700814E+04  0.7818608E-02  0.7728646E-01
         -2   -1    0    0    0  501 -0.00000000000E+00  0.00000000000E+00  0.27903716973E+04  0.27903716973E+04  0.00000000000E+00 0.  1.
          2   -1    0    0  501    0  0.00000000000E+00 -0.00000000000E+00 -0.29117338566E+04  0.29117338566E+04  0.00000000000E+00 0. -1.
         23    2    1    2    0    0  0.28121153635E+04  0.37559373442E+03 -0.32795928607E+03  0.28575061368E+04  0.93383923348E+02 0.  0.
         13    1    3    3    0    0  0.99487888926E+03  0.89683137093E+02 -0.10286209650E+03  0.10041950409E+04  0.00000000000E+00 0. -1.
        -13    1    3    3    0    0  0.18172364743E+04  0.28591059733E+03 -0.22509718957E+03  0.18533110958E+04  0.00000000000E+00 0.  1.
         22    1    1    2    0    0 -0.28121153635E+04 -0.37559373442E+03  0.20659712675E+03  0.28445994171E+04  0.00000000000E+00 0.  1.
<mgrwt>
<rscale>  0 0.57008139E+04</rscale>
<asrwt>0</asrwt>
<pdfrwt beam="1">  1        2 0.44795905E+00 0.57008139E+04</pdfrwt>
<pdfrwt beam="2">  1       -2 0.42928796E+00 0.57008139E+04</pdfrwt>
<totfact> 0.64936173E-03</totfact>
</mgrwt>
</event>
<event>
 6    1  0.2047711E-005  0.5776070E+03  0.7818608E-02  0.9952985E-01
         -2   -1    0    0    0  501 -0.00000000000E+00  0.00000000000E+00  0.54111907157E+02  0.54111907157E+02  0.00000000000E+00 0.  1.
          2   -1    0    0  501    0  0.00000000000E+00 -0.00000000000E+00 -0.15413882215E+04  0.15413882215E+04  0.00000000000E+00 0. -1.
         23    2    1    2    0    0 -0.18336463367E+03  0.14493464330E+03 -0.11868338650E+04  0.12148502829E+04  0.11250754214E+03 0.  0.
         11    1    3    3    0    0 -0.48582581682E+02  0.10986390155E+03 -0.54903236338E+03  0.56202035563E+03  0.00000000000E+00 0.  1.
        -11    1    3    3    0    0 -0.13478205199E+03  0.35070741749E+02 -0.63780150163E+03  0.65282992727E+03  0.00000000000E+00 0. -1.
         22    1    1    2    0    0  0.18336463367E+03 -0.14493464330E+03 -0.30044244934E+03  0.38064984576E+03  0.00000000000E+00 0.  1.
<mgrwt>
<rscale>  0 0.57760698E+03</rscale>
<asrwt>0</asrwt>
<pdfrwt beam="1">  1        2 0.23713661E+00 0.57760698E+03</pdfrwt>
<pdfrwt beam="2">  1       -2 0.83249103E-02 0.57760698E+03</pdfrwt>
<totfact> 0.11330423E+03</totfact>
</mgrwt>
</event>
<event>
 6    1  0.2047711E-005  0.3089211E+04  0.7818608E-02  0.8218705E-01
         -2   -1    0    0    0  501 -0.00000000000E+00  0.00000000000E+00  0.23130285455E+04  0.23130285455E+04  0.00000000000E+00 0.  1.
          2   -1    0    0  501    0  0.00000000000E+00 -0.00000000000E+00 -0.10314639559E+04  0.10314639559E+04  0.00000000000E+00 0. -1.
         23    2    1    2    0    0 -0.40226005565E+03  0.13040585462E+04  0.14215739753E+04  0.19726381096E+04  0.89703398952E+02 0.  0.
         11    1    3    3    0    0 -0.74879955822E+02  0.37285484911E+03  0.41276419108E+03  0.56125041089E+03  0.00000000000E+00 0. -1.
        -11    1    3    3    0    0 -0.32738009983E+03  0.93120369711E+03  0.10088097842E+04  0.14113876987E+04  0.00000000000E+00 0.  1.
         22    1    1    2    0    0  0.40226005565E+03 -0.13040585462E+04 -0.14000938573E+03  0.13718543918E+04  0.00000000000E+00 0. -1.
<mgrwt>
<rscale>  0 0.30892106E+04</rscale>
<asrwt>0</asrwt>
<pdfrwt beam="1">  1        2 0.15868676E+00 0.30892106E+04</pdfrwt>
<pdfrwt beam="2">  1       -2 0.35585054E+00 0.30892106E+04</pdfrwt>
<totfact> 0.29188339E-01</totfact>
</mgrwt>
</event>
<event>
 6    1  0.2047711E-005  0.2160862E+04  0.7818608E-02  0.8534897E-01
         -2   -1    0    0    0  501 -0.00000000000E+00  0.00000000000E+00  0.64933547957E+03  0.64933547957E+03  0.00000000000E+00 0. -1.
          2   -1    0    0  501    0  0.00000000000E+00 -0.00000000000E+00 -0.17977327909E+04  0.17977327909E+04  0.00000000000E+00 0.  1.
         23    2    1    2    0    0  0.30048245202E+03 -0.10206988460E+04 -0.77514250285E+03  0.13194890093E+04  0.89941691245E+02 0.  0.
         11    1    3    3    0    0  0.24681617245E+03 -0.78399478448E+03 -0.63981822097E+03  0.10416013637E+04  0.00000000000E+00 0. -1.
        -11    1    3    3    0    0  0.53666279571E+02 -0.23670406149E+03 -0.13532428188E+03  0.27788764556E+03  0.00000000000E+00 0.  1.
         22    1    1    2    0    0 -0.30048245202E+03  0.10206988460E+04 -0.37325480848E+03  0.11275792612E+04  0.00000000000E+00 0.  1.
<mgrwt>
<rscale>  0 0.21608625E+04</rscale>
<asrwt>0</asrwt>
<pdfrwt beam="1">  1        2 0.27657427E+00 0.21608625E+04</pdfrwt>
<pdfrwt beam="2">  1       -2 0.99897767E-01 0.21608625E+04</pdfrwt>
<totfact> 0.65707229E+00</totfact>
</mgrwt>
</event>
<event>
 6    1  0.2047711E-005  0.1145033E+04  0.7818608E-02  0.9162378E-01
          2   -1    0    0  501    0  0.00000000000E+00  0.00000000000E+00  0.79508361944E+03  0.79508361944E+03  0.00000000000E+00 0.  1.
         -2   -1    0    0    0  501 -0.00000000000E+00 -0.00000000000E+00 -0.41225272694E+03  0.41225272694E+03  0.00000000000E+00 0. -1.
         23    2    1    2    0    0 -0.45442972572E+03  0.53999935476E+02 -0.16330746534E+03  0.49481303129E+03  0.93532021547E+02 0.  0.
         13    1    3    3    0    0 -0.29865470331E+03  0.82044425616E+01 -0.67537539800E+02  0.30630583404E+03  0.00000000000E+00 0. -1.
        -13    1    3    3    0    0 -0.15577502241E+03  0.45795492915E+02 -0.95769925537E+02  0.18850719725E+03  0.00000000000E+00 0.  1.
         22    1    1    2    0    0  0.45442972572E+03 -0.53999935476E+02  0.54613835784E+03  0.71252331509E+03  0.00000000000E+00 0.  1.
<mgrwt>
<rscale>  0 0.11450334E+04</rscale>
<asrwt>0</asrwt>
<pdfrwt beam="1">  1        2 0.12232056E+00 0.11450334E+04</pdfrwt>
<pdfrwt beam="2">  1       -2 0.63423496E-01 0.11450334E+04</pdfrwt>
<totfact> 0.79171195E+01</totfact>
</mgrwt>
</event>
<event>
 6    1  0.2047711E-005  0.1300552E+04  0.7818608E-02  0.9029127E-01
          2   -1    0    0  501    0  0.00000000000E+00  0.00000000000E+00  0.83530531114E+03  0.83530531114E+03  0.00000000000E+00 0. -1.
         -2   -1    0    0    0  501 -0.00000000000E+00 -0.00000000000E+00 -0.50623282821E+03  0.50623282821E+03  0.00000000000E+00 0.  1.
         23    2    1    2    0    0 -0.62842479352E+03 -0.10054393728E+03  0.28420257915E+03  0.70354118584E+03  0.95772071843E+02 0.  0.
         13    1    3    3    0    0 -0.36843446088E+03 -0.10219776462E+03  0.14762210557E+03  0.40985439013E+03  0.00000000000E+00 0.  1.
        -13    1    3    3    0    0 -0.25999033264E+03  0.16538273396E+01  0.13658047358E+03  0.29368679571E+03  0.00000000000E+00 0. -1.
         22    1    1    2    0    0  0.62842479352E+03  0.10054393728E+03  0.44869903784E+02  0.63799695352E+03  0.00000000000E+00 0. -1.
<mgrwt>
<rscale>  0 0.13005521E+04</rscale>
<asrwt>0</asrwt>
<pdfrwt beam="1">  1        2 0.12850851E+00 0.13005521E+04</pdfrwt>
<pdfrwt beam="2">  1       -2 0.77881974E-01 0.13005521E+04</pdfrwt>
<totfact> 0.46787323E+01</totfact>
</mgrwt>
</event>
<event>
 6    1  0.2047711E-005  0.4712168E+04  0.7818608E-02  0.7874510E-01
         -2   -1    0    0    0  501 -0.00000000000E+00  0.00000000000E+00  0.20589645661E+04  0.20589645661E+04  0.00000000000E+00 0.  1.
          2   -1    0    0  501    0  0.00000000000E+00 -0.00000000000E+00 -0.26960795216E+04  0.26960795216E+04  0.00000000000E+00 0. -1.
         23    2    1    2    0    0  0.22996045323E+04 -0.39921595706E+03 -0.46454165129E+00  0.23357718553E+04  0.90970096820E+02 0.  0.
         13    1    3    3    0    0  0.11167346743E+04 -0.23806430143E+03 -0.13328388708E+02  0.11419056837E+04  0.00000000000E+00 0.  1.
        -13    1    3    3    0    0  0.11828698580E+04 -0.16115165563E+03  0.12863847056E+02  0.11938661716E+04  0.00000000000E+00 0. -1.
         22    1    1    2    0    0 -0.22996045323E+04  0.39921595706E+03 -0.63665041384E+03  0.24192722325E+04  0.00000000000E+00 0. -1.
<mgrwt>
<rscale>  0 0.47121682E+04</rscale>
<asrwt>0</asrwt>
<pdfrwt beam="1">  1        2 0.41478147E+00 0.47121682E+04</pdfrwt>
<pdfrwt beam="2">  1       -2 0.31676378E+00 0.47121682E+04</pdfrwt>
<totfact> 0.49852371E-02</totfact>
</mgrwt>
</event>
<event>
 6    1  0.2047711E-005  0.2036382E+04  0.7818608E-02  0.8589797E-01
          2   -1    0    0  501    0  0.00000000000E+00  0.00000000000E+00  0.14614397884E+04  0.14614397884E+04  0.00000000000E+00 0.  1.
         -2   -1    0    0    0  501 -0.00000000000E+00 -0.00000000000E+00 -0.70937790457E+03  0.70937790457E+03  0.00000000000E+00 0. -1.
         23    2    1    2    0    0 -0.58987444297E+03 -0.28296398450E+03 -0.45205677986E+03  0.80044466666E+03  0.91300915544E+02 0.  0.
         11    1    3    3    0    0 -0.47533759829E+03 -0.22134519560E+03 -0.40345437060E+03  0.66160030012E+03  0.00000000000E+00 0. -1.
        -11    1    3    3    0    0 -0.11453684468E+03 -0.61618788900E+02 -0.48602409261E+02  0.13884436655E+03  0.00000000000E+00 0.  1.
         22    1    1    2    0    0  0.58987444297E+03  0.28296398450E+03  0.12041186637E+04  0.13703730264E+04  0.00000000000E+00 0.  1.
<mgrwt>
<rscale>  0 0.20363822E+04</rscale>
<asrwt>0</asrwt>
<pdfrwt beam="1">  1        2 0.22483689E+00 0.20363822E+04</pdfrwt>
<pdfrwt beam="2">  1       -2 0.10913506E+00 0.20363822E+04</pdfrwt>
<totfact> 0.82823170E+00</totfact>
</mgrwt>
</event>
<event>
 6    1  0.2047711E-005  0.8865980E+03  0.7818608E-02  0.9442491E-01
          2   -1    0    0  501    0  0.00000000000E+00  0.00000000000E+00  0.12329200886E+04  0.12329200886E+04  0.00000000000E+00 0. -1.
         -2   -1    0    0    0  501 -0.00000000000E+00 -0.00000000000E+00 -0.15938910149E+03  0.15938910149E+03  0.00000000000E+00 0.  1.
         23    2    1    2    0    0  0.33608614975E+03 -0.95331134624E+02  0.95821598790E+03  0.10244240527E+04  0.96046004337E+02 0.  0.
         13    1    3    3    0    0  0.22721712640E+03 -0.18083556341E+02  0.63817410884E+03  0.67765834366E+03  0.00000000000E+00 0. -1.
        -13    1    3    3    0    0  0.10886902335E+03 -0.77247578283E+02  0.32004187907E+03  0.34676570902E+03  0.00000000000E+00 0.  1.
         22    1    1    2    0    0 -0.33608614975E+03  0.95331134624E+02  0.11531499920E+03  0.36788513741E+03  0.00000000000E+00 0.  1.
<mgrwt>
<rscale>  0 0.88659805E+03</rscale>
<asrwt>0</asrwt>
<pdfrwt beam="1">  1        2 0.18968001E+00 0.88659805E+03</pdfrwt>
<pdfrwt beam="2">  1       -2 0.24521401E-01 0.88659805E+03</pdfrwt>
<totfact> 0.26943514E+02</totfact>
</mgrwt>
</event>
<event>
 6    1  0.2047711E-005  0.3484151E+04  0.7818608E-02  0.8117556E-01
          2   -1    0    0  501    0  0.00000000000E+00  0.00000000000E+00  0.39054426475E+04  0.39054426475E+04  0.00000000000E+00 0. -1.
         -2   -1    0    0    0  501 -0.00000000000E+00 -0.00000000000E+00 -0.77707625834E+03  0.77707625834E+03  0.00000000000E+00 0.  1.
         23    2    1    2    0    0 -0.86631833105E+03  0.49700239858E+03  0.34811972691E+04  0.36232698961E+04  0.10877260137E+03 0.  0.
         11    1    3    3    0    0 -0.68574777711E+03  0.42189115930E+03  0.29202523400E+04  0.30292104406E+04  0.00000000000E+00 0.  1.
        -11    1    3    3    0    0 -0.18057055395E+03  0.75111239277E+02  0.56094492909E+03  0.59405945552E+03  0.00000000000E+00 0. -1.
         22    1    1    2    0    0  0.86631833105E+03 -0.49700239858E+03 -0.35283087988E+03  0.10592490098E+04  0.00000000000E+00 0.  1.
<mgrwt>
<rscale>  0 0.34841508E+04</rscale>
<asrwt>0</asrwt>
<pdfrwt beam="1">  1        2 0.60083732E+00 0.34841508E+04</pdfrwt>
<pdfrwt beam="2">  1       -2 0.11955020E+00 0.34841508E+04</pdfrwt>
<totfact> 0.17907235E-01</totfact>
</mgrwt>
</event>
<event>
 6    1  0.2047711E-005  0.1347998E+04  0.7818608E-02  0.8992345E-01
          2   -1    0    0  501    0  0.00000000000E+00  0.00000000000E+00  0.19530321277E+04  0.19530321277E+04  0.00000000000E+00 0. -1.
         -2   -1    0    0    0  501 -0.00000000000E+00 -0.00000000000E+00 -0.23259969002E+03  0.23259969002E+03  0.00000000000E+00 0.  1.
         23    2    1    2    0    0 -0.11886811199E+02 -0.53247320383E+03  0.15261496128E+04  0.16186972315E+04  0.85901556069E+02 0.  0.
         13    1    3    3    0    0  0.17968020798E+01 -0.35413577059E+03  0.88967277425E+03  0.95756619498E+03  0.00000000000E+00 0. -1.
        -13    1    3    3    0    0 -0.13683613279E+02 -0.17833743324E+03  0.63647683859E+03  0.66113103650E+03  0.00000000000E+00 0.  1.
         22    1    1    2    0    0  0.11886811199E+02  0.53247320383E+03  0.19428282485E+03  0.56693458627E+03  0.00000000000E+00 0.  1.
<mgrwt>
<rscale>  0 0.13479980E+04</rscale>
<asrwt>0</asrwt>
<pdfrwt beam="1">  1        2 0.30046647E+00 0.13479980E+04</pdfrwt>
<pdfrwt beam="2">  1       -2 0.35784569E-01 0.13479980E+04</pdfrwt>
<totfact> 0.50918032E+01</totfact>
</mgrwt>
</event>
<event>
 6    1  0.2047711E-005  0.2461066E+04  0.7818608E-02  0.8416989E-01
          2   -1    0    0  501    0  0.00000000000E+00  0.00000000000E+00  0.11172318512E+04  0.11172318512E+04  0.00000000000E+00 0. -1.
         -2   -1    0    0    0  501 -0.00000000000E+00 -0.00000000000E+00 -0.13553245740E+04  0.13553245740E+04  0.00000000000E+00 0.  1.
         23    2    1    2    0    0  0.10286575608E+04  0.23183687514E+03 -0.75327420343E+03  0.12989735896E+04  0.89585975788E+02 0.  0.
         11    1    3    3    0    0  0.81577028207E+03  0.15005306387E+03 -0.61059128393E+03  0.10299605774E+04  0.00000000000E+00 0. -1.
        -11    1    3    3    0    0  0.21288727869E+03  0.81783811271E+02 -0.14268291949E+03  0.26901301220E+03  0.00000000000E+00 0.  1.
         22    1    1    2    0    0 -0.10286575608E+04 -0.23183687514E+03  0.51518148065E+03  0.11735828356E+04  0.00000000000E+00 0. -1.
<mgrwt>
<rscale>  0 0.24610663E+04</rscale>
<asrwt>0</asrwt>
<pdfrwt beam="1">  1        2 0.17188182E+00 0.24610663E+04</pdfrwt>
<pdfrwt beam="2">  1       -2 0.20851147E+00 0.24610663E+04</pdfrwt>
<totfact> 0.22266330E+00</totfact>
</mgrwt>
</event>
<event>
 6    1  0.2047711E-005  0.2599563E+04  0.7818608E-02  0.8368350E-01
          2   -1    0    0  501    0  0.00000000000E+00  0.00000000000E+00  0.34895534313E+04  0.34895534313E+04  0.00000000000E+00 0. -1.
         -2   -1    0    0    0  501 -0.00000000000E+00 -0.00000000000E+00 -0.48413985459E+03  0.48413985459E+03  0.00000000000E+00 0.  1.
         23    2    1    2    0    0  0.11005233956E+04  0.45282193977E+03  0.22967911350E+04  0.25886498865E+04  0.98281551913E+02 0.  0.
         13    1    3    3    0    0  0.89707408311E+03  0.39719389575E+03  0.18291003832E+04  0.20755994587E+04  0.00000000000E+00 0.  1.
        -13    1    3    3    0    0  0.20344931249E+03  0.55628044023E+02  0.46769075187E+03  0.51305042776E+03  0.00000000000E+00 0. -1.
         22    1    1    2    0    0 -0.11005233956E+04 -0.45282193977E+03  0.70862244170E+03  0.13850433994E+04  0.00000000000E+00 0.  1.
<mgrwt>
<rscale>  0 0.25995630E+04</rscale>
<asrwt>0</asrwt>
<pdfrwt beam="1">  1        2 0.53685436E+00 0.25995630E+04</pdfrwt>
<pdfrwt beam="2">  1       -2 0.74483057E-01 0.25995630E+04</pdfrwt>
<totfact> 0.11867183E+00</totfact>
</mgrwt>
</event>
<event>
 6    1  0.2047711E-005  0.1316406E+04  0.7818608E-02  0.9016655E-01
         -1   -1    0    0    0  501 -0.00000000000E+00  0.00000000000E+00  0.49497740939E+03  0.49497740939E+03  0.00000000000E+00 0.  1.
          1   -1    0    0  501    0  0.00000000000E+00 -0.00000000000E+00 -0.87525442649E+03  0.87525442649E+03  0.00000000000E+00 0. -1.
         23    2    1    2    0    0  0.52329169730E+03 -0.38417922562E+03 -0.28439231628E+03  0.71401407194E+03  0.86655799049E+02 0.  0.
         11    1    3    3    0    0  0.21898401902E+03 -0.19934989991E+03 -0.96641871442E+02  0.31150286435E+03  0.00000000000E+00 0. -1.
        -11    1    3    3    0    0  0.30430767827E+03 -0.18482932571E+03 -0.18775044484E+03  0.40251120759E+03  0.00000000000E+00 0.  1.
         22    1    1    2    0    0 -0.52329169730E+03  0.38417922562E+03 -0.95884700824E+02  0.65621776394E+03  0.00000000000E+00 0.  1.
<mgrwt>
<rscale>  0 0.13164060E+04</rscale>
<asrwt>0</asrwt>
<pdfrwt beam="1">  1        1 0.13465453E+00 0.13164060E+04</pdfrwt>
<pdfrwt beam="2">  1       -1 0.76150371E-01 0.13164060E+04</pdfrwt>
<totfact> 0.32424003E+01</totfact>
</mgrwt>
</event>
<event>
 6    1  0.2047711E-005  0.2147749E+04  0.7818608E-02  0.8540496E-01
         -2   -1    0    0    0  501 -0.00000000000E+00  0.00000000000E+00  0.84574757626E+03  0.84574757626E+03  0.00000000000E+00 0.  1.
          2   -1    0    0  501    0  0.00000000000E+00 -0.00000000000E+00 -0.13635353953E+04  0.13635353953E+04  0.00000000000E+00 0. -1.
         23    2    1    2    0    0  0.78777897519E+03  0.90455654843E+02 -0.10013438560E+04  0.12805179958E+04  0.90878382104E+02 0.  0.
         13    1    3    3    0    0  0.29872615584E+03  0.67113193005E+02 -0.43386669581E+03  0.53101959154E+03  0.00000000000E+00 0. -1.
        -13    1    3    3    0    0  0.48905281934E+03  0.23342461838E+02 -0.56747716018E+03  0.74949840424E+03  0.00000000000E+00 0.  1.
         22    1    1    2    0    0 -0.78777897519E+03 -0.90455654843E+02  0.48355603700E+03  0.92876497574E+03  0.00000000000E+00 0.  1.
<mgrwt>
<rscale>  0 0.21477493E+04</rscale>
<asrwt>0</asrwt>
<pdfrwt beam="1">  1        2 0.20977467E+00 0.21477493E+04</pdfrwt>
<pdfrwt beam="2">  1       -2 0.13011501E+00 0.21477493E+04</pdfrwt>
<totfact> 0.60418351E+00</totfact>
</mgrwt>
</event>
<event>
 6    1  0.2047711E-005  0.1927952E+04  0.7818608E-02  0.8641067E-01
          2   -1    0    0  501    0  0.00000000000E+00  0.00000000000E+00  0.14600215737E+04  0.14600215737E+04  0.00000000000E+00 0. -1.
         -2   -1    0    0    0  501 -0.00000000000E+00 -0.00000000000E+00 -0.63646317027E+03  0.63646317027E+03  0.00000000000E+00 0.  1.
         23    2    1    2    0    0  0.26584936324E+02  0.95577253453E+03  0.29928778005E+03  0.10060409888E+04  0.91309360521E+02 0.  0.
         11    1    3    3    0    0  0.44446475858E+02  0.35756844410E+03  0.14159749500E+03  0.38714407140E+03  0.00000000000E+00 0. -1.
        -11    1    3    3    0    0 -0.17861539534E+02  0.59820409043E+03  0.15769028505E+03  0.61889691743E+03  0.00000000000E+00 0.  1.
         22    1    1    2    0    0 -0.26584936324E+02 -0.95577253453E+03  0.52427062340E+03  0.10904437552E+04  0.00000000000E+00 0.  1.
<mgrwt>
<rscale>  0 0.19279522E+04</rscale>
<asrwt>0</asrwt>
<pdfrwt beam="1">  1        2 0.22461870E+00 0.19279522E+04</pdfrwt>
<pdfrwt beam="2">  1       -2 0.97917411E-01 0.19279522E+04</pdfrwt>
<totfact> 0.10850209E+01</totfact>
</mgrwt>
</event>
<event>
 6    1  0.2047711E-005  0.4309578E+04  0.7818608E-02  0.7944849E-01
         -2   -1    0    0    0  501 -0.00000000000E+00  0.00000000000E+00  0.14507072152E+04  0.14507072152E+04  0.00000000000E+00 0.  1.
          2   -1    0    0  501    0  0.00000000000E+00 -0.00000000000E+00 -0.32005882525E+04  0.32005882525E+04  0.00000000000E+00 0. -1.
         23    2    1    2    0    0 -0.11292199302E+04 -0.98377596350E+03 -0.25460202219E+04  0.29551850944E+04  0.89146928113E+02 0.  0.
         11    1    3    3    0    0 -0.26676115833E+03 -0.25767425736E+03 -0.69781498474E+03  0.79025520652E+03  0.00000000000E+00 0. -1.
        -11    1    3    3    0    0 -0.86245877187E+03 -0.72610170615E+03 -0.18482052371E+04  0.21649298879E+04  0.00000000000E+00 0.  1.
         22    1    1    2    0    0  0.11292199302E+04  0.98377596350E+03  0.79613918466E+03  0.16961103733E+04  0.00000000000E+00 0.  1.
<mgrwt>
<rscale>  0 0.43095784E+04</rscale>
<asrwt>0</asrwt>
<pdfrwt beam="1">  1        2 0.49239819E+00 0.43095784E+04</pdfrwt>
<pdfrwt beam="2">  1       -2 0.22318573E+00 0.43095784E+04</pdfrwt>
<totfact> 0.93969073E-02</totfact>
</mgrwt>
</event>
<event>
 6    1  0.2047711E-005  0.3225380E+04  0.7818608E-02  0.8182146E-01
         -2   -1    0    0    0  501 -0.00000000000E+00  0.00000000000E+00  0.78489781252E+03  0.78489781252E+03  0.00000000000E+00 0. -1.
          2   -1    0    0  501    0  0.00000000000E+00 -0.00000000000E+00 -0.33135135756E+04  0.33135135756E+04  0.00000000000E+00 0.  1.
         23    2    1    2    0    0  0.15158551345E+04  0.31017105984E+03 -0.18375089103E+04  0.24038165820E+04  0.88725921752E+02 0.  0.
         11    1    3    3    0    0  0.99552104067E+03  0.16340790865E+03 -0.12197613954E+04  0.15829030763E+04  0.00000000000E+00 0.  1.
        -11    1    3    3    0    0  0.52033409383E+03  0.14676315120E+03 -0.61774751487E+03  0.82091350572E+03  0.00000000000E+00 0. -1.
         22    1    1    2    0    0 -0.15158551345E+04 -0.31017105984E+03 -0.69110685281E+03  0.16945948062E+04  0.00000000000E+00 0. -1.
<mgrwt>
<rscale>  0 0.32253803E+04</rscale>
<asrwt>0</asrwt>
<pdfrwt beam="1">  1        2 0.50977131E+00 0.32253803E+04</pdfrwt>
<pdfrwt beam="2">  1       -2 0.12075351E+00 0.32253803E+04</pdfrwt>
<totfact> 0.47871346E-01</totfact>
</mgrwt>
</event>
<event>
 6    1  0.2047711E-005  0.1070849E+04  0.7818608E-02  0.9234079E-01
          2   -1    0    0  501    0  0.00000000000E+00  0.00000000000E+00  0.74008459428E+03  0.74008459428E+03  0.00000000000E+00 0. -1.
         -2   -1    0    0    0  501 -0.00000000000E+00 -0.00000000000E+00 -0.38736056884E+03  0.38736056884E+03  0.00000000000E+00 0.  1.
         23    2    1    2    0    0 -0.22429499357E+01  0.92611184416E+02  0.72833815049E+03  0.74057589160E+03  0.96924338806E+02 0.  0.
         13    1    3    3    0    0  0.37904664895E+02  0.57286156572E+02  0.55339873261E+03  0.55764560844E+03  0.00000000000E+00 0. -1.
        -13    1    3    3    0    0 -0.40147614831E+02  0.35325027844E+02  0.17493941788E+03  0.18293028316E+03  0.00000000000E+00 0.  1.
         22    1    1    2    0    0  0.22429499357E+01 -0.92611184416E+02 -0.37561412505E+03  0.38686927152E+03  0.00000000000E+00 0.  1.
<mgrwt>
<rscale>  0 0.10708494E+04</rscale>
<asrwt>0</asrwt>
<pdfrwt beam="1">  1        2 0.11385917E+00 0.10708494E+04</pdfrwt>
<pdfrwt beam="2">  1       -2 0.59593934E-01 0.10708494E+04</pdfrwt>
<totfact> 0.99737748E+01</totfact>
</mgrwt>
</event>
<event>
 6    1  0.2047711E-005  0.3409586E+04  0.7818608E-02  0.8135558E-01
          2   -1    0    0  501    0  0.00000000000E+00  0.00000000000E+00  0.23454284204E+04  0.23454284204E+04  0.00000000000E+00 0. -1.
         -2   -1    0    0    0  501 -0.00000000000E+00 -0.00000000000E+00 -0.12391423458E+04  0.12391423458E+04  0.00000000000E+00 0.  1.
         23    2    1    2    0    0  0.64624927227E+03  0.14799426024E+04 -0.16754928840E+02  0.16175706840E+04  0.91574897179E+02 0.  0.
         13    1    3    3    0    0  0.34599107912E+03  0.68348138022E+03 -0.21831068494E+02  0.76637668251E+03  0.00000000000E+00 0.  1.
        -13    1    3    3    0    0  0.30025819316E+03  0.79646122214E+03  0.50761396540E+01  0.85119400146E+03  0.00000000000E+00 0. -1.
         22    1    1    2    0    0 -0.64624927227E+03 -0.14799426024E+04  0.11230410034E+04  0.19670000823E+04  0.00000000000E+00 0. -1.
<mgrwt>
<rscale>  0 0.34095863E+04</rscale>
<asrwt>0</asrwt>
<pdfrwt beam="1">  1        2 0.36083514E+00 0.34095863E+04</pdfrwt>
<pdfrwt beam="2">  1       -2 0.19063728E+00 0.34095863E+04</pdfrwt>
<totfact> 0.54269638E-01</totfact>
</mgrwt>
</event>
<event>
 6    1  0.2047711E-005  0.4267009E+04  0.7818608E-02  0.7952747E-01
         -2   -1    0    0    0  501 -0.00000000000E+00  0.00000000000E+00  0.11717963151E+04  0.11717963151E+04  0.00000000000E+00 0.  1.
          2   -1    0    0  501    0  0.00000000000E+00 -0.00000000000E+00 -0.38844991647E+04  0.38844991647E+04  0.00000000000E+00 0. -1.
         23    2    1    2    0    0 -0.15049365872E+04 -0.44427858988E+03 -0.30681904809E+04  0.34473862055E+04  0.91984921037E+02 0.  0.
         11    1    3    3    0    0 -0.10740015294E+04 -0.33280785188E+03 -0.21113487420E+04  0.23920773110E+04  0.00000000000E+00 0. -1.
        -11    1    3    3    0    0 -0.43093505782E+03 -0.11147073800E+03 -0.95684173892E+03  0.10553088945E+04  0.00000000000E+00 0.  1.
         22    1    1    2    0    0  0.15049365872E+04  0.44427858988E+03  0.35548763138E+03  0.16089092743E+04  0.00000000000E+00 0.  1.
<mgrwt>
<rscale>  0 0.42670092E+04</rscale>
<asrwt>0</asrwt>
<pdfrwt beam="1">  1        2 0.59761527E+00 0.42670092E+04</pdfrwt>
<pdfrwt beam="2">  1       -2 0.18027635E+00 0.42670092E+04</pdfrwt>
<totfact> 0.58721005E-02</totfact>
</mgrwt>
</event>
<event>
 6    1  0.2047711E-005  0.2107741E+04  0.7818608E-02  0.8557841E-01
         -2   -1    0    0    0  501 -0.00000000000E+00  0.00000000000E+00  0.43961147819E+03  0.43961147819E+03  0.00000000000E+00 0.  1.
          2   -1    0    0  501    0  0.00000000000E+00 -0.00000000000E+00 -0.25264195714E+04  0.25264195714E+04  0.00000000000E+00 0. -1.
         23    2    1    2    0    0 -0.70695359114E+03  0.77606207832E+03 -0.95130827478E+03  0.14196108069E+04  0.90838757726E+02 0.  0.
         11    1    3    3    0    0 -0.43621945739E+03  0.42147543034E+03 -0.51724937944E+03  0.79716740645E+03  0.00000000000E+00 0. -1.
        -11    1    3    3    0    0 -0.27073413375E+03  0.35458664798E+03 -0.43405889534E+03  0.62244340042E+03  0.00000000000E+00 0.  1.
         22    1    1    2    0    0  0.70695359114E+03 -0.77606207832E+03 -0.11354998184E+04  0.15464202427E+04  0.00000000000E+00 0. -1.
<mgrwt>
<rscale>  0 0.21077410E+04</rscale>
<asrwt>0</asrwt>
<pdfrwt beam="1">  1        2 0.38867993E+00 0.21077410E+04</pdfrwt>
<pdfrwt beam="2">  1       -2 0.67632536E-01 0.21077410E+04</pdfrwt>
<totfact> 0.62025730E+00</totfact>
</mgrwt>
</event>
<event>
 6    1  0.2047711E-005  0.1440149E+04  0.7818608E-02  0.8925258E-01
          2   -1    0    0  501    0  0.00000000000E+00  0.00000000000E+00  0.92951525355E+03  0.92951525355E+03  0.00000000000E+00 0.  1.
         -2   -1    0    0    0  501 -0.00000000000E+00 -0.00000000000E+00 -0.55782578540E+03  0.55782578540E+03  0.00000000000E+00 0. -1.
         23    2    1    2    0    0  0.28723830786E+03 -0.60783733882E+03 -0.70925780732E+02  0.68243089831E+03  0.93324105281E+02 0.  0.
         13    1    3    3    0    0  0.52344022681E+02 -0.10971598993E+03  0.23091546385E+02  0.12373647268E+03  0.00000000000E+00 0. -1.
        -13    1    3    3    0    0  0.23489428518E+03 -0.49812134889E+03 -0.94017327117E+02  0.55869442563E+03  0.00000000000E+00 0.  1.
         22    1    1    2    0    0 -0.28723830786E+03  0.60783733882E+03  0.44261524887E+03  0.80491014064E+03  0.00000000000E+00 0.  1.
<mgrwt>
<rscale>  0 0.14401494E+04</rscale>
<asrwt>0</asrwt>
<pdfrwt beam="1">  1        2 0.14300235E+00 0.14401494E+04</pdfrwt>
<pdfrwt beam="2">  1       -2 0.85819352E-01 0.14401494E+04</pdfrwt>
<totfact> 0.32055865E+01</totfact>
</mgrwt>
</event>
<event>
 6    1  0.2047711E-005  0.9595668E+03  0.7818608E-02  0.9354038E-01
         -2   -1    0    0    0  501 -0.00000000000E+00  0.00000000000E+00  0.16175072759E+03  0.16175072759E+03  0.00000000000E+00 0.  1.
          2   -1    0    0  501    0  0.00000000000E+00 -0.00000000000E+00 -0.14231286183E+04  0.14231286183E+04  0.00000000000E+00 0. -1.
         23    2    1    2    0    0  0.58187507240E+02 -0.28989776722E+03 -0.23527062660E+02  0.31220453512E+03  0.97425087296E+02 0.  0.
         13    1    3    3    0    0 -0.60874655920E+01 -0.16150625836E+03 -0.43166169520E+02  0.16728612291E+03  0.00000000000E+00 0.  1.
        -13    1    3    3    0    0  0.64274972832E+02 -0.12839150886E+03  0.19639106860E+02  0.14491841221E+03  0.00000000000E+00 0. -1.
         22    1    1    2    0    0 -0.58187507240E+02  0.28989776722E+03 -0.12378508281E+04  0.12726748108E+04  0.00000000000E+00 0. -1.
<mgrwt>
<rscale>  0 0.95956676E+03</rscale>
<asrwt>0</asrwt>
<pdfrwt beam="1">  1        2 0.21894287E+00 0.95956676E+03</pdfrwt>
<pdfrwt beam="2">  1       -2 0.24884727E-01 0.95956676E+03</pdfrwt>
<totfact> 0.20290951E+02</totfact>
</mgrwt>
</event>
<event>
 6    1  0.2047711E-005  0.1585819E+04  0.7818608E-02  0.8829307E-01
         -2   -1    0    0    0  501 -0.00000000000E+00  0.00000000000E+00  0.64780911368E+03  0.64780911368E+03  0.00000000000E+00 0.  1.
          2   -1    0    0  501    0  0.00000000000E+00 -0.00000000000E+00 -0.97051064894E+03  0.97051064894E+03  0.00000000000E+00 0. -1.
         23    2    1    2    0    0  0.31159018742E+02 -0.52852260565E+03  0.43673708627E+03  0.69254762596E+03  0.92606169207E+02 0.  0.
         11    1    3    3    0    0  0.65115425452E+01 -0.21542219875E+03  0.23702495712E+03  0.32035910195E+03  0.00000000000E+00 0. -1.
        -11    1    3    3    0    0  0.24647476196E+02 -0.31310040689E+03  0.19971212915E+03  0.37218852401E+03  0.00000000000E+00 0.  1.
         22    1    1    2    0    0 -0.31159018742E+02  0.52852260565E+03 -0.75943862154E+03  0.92577213666E+03  0.00000000000E+00 0. -1.
<mgrwt>
<rscale>  0 0.15858192E+04</rscale>
<asrwt>0</asrwt>
<pdfrwt beam="1">  1        2 0.14930933E+00 0.15858192E+04</pdfrwt>
<pdfrwt beam="2">  1       -2 0.99662942E-01 0.15858192E+04</pdfrwt>
<totfact> 0.21043422E+01</totfact>
</mgrwt>
</event>
<event>
 6    1  0.2047711E-005  0.2433437E+04  0.7818608E-02  0.8427090E-01
          2   -1    0    0  501    0  0.00000000000E+00  0.00000000000E+00  0.23746694226E+04  0.23746694226E+04  0.00000000000E+00 0. -1.
         -2   -1    0    0    0  501 -0.00000000000E+00 -0.00000000000E+00 -0.62341474150E+03  0.62341474150E+03  0.00000000000E+00 0.  1.
         23    2    1    2    0    0  0.50888667645E+03 -0.11027954847E+04  0.83658321138E+03  0.14776409958E+04  0.91803662118E+02 0.  0.
         13    1    3    3    0    0  0.35749314481E+03 -0.83299605083E+03  0.58455598854E+03  0.10786053370E+04  0.00000000000E+00 0.  1.
        -13    1    3    3    0    0  0.15139353164E+03 -0.26979943387E+03  0.25202722285E+03  0.39903565880E+03  0.00000000000E+00 0. -1.
         22    1    1    2    0    0 -0.50888667645E+03  0.11027954847E+04  0.91467146973E+03  0.15204431683E+04  0.00000000000E+00 0. -1.
<mgrwt>
<rscale>  0 0.24334370E+04</rscale>
<asrwt>0</asrwt>
<pdfrwt beam="1">  1        2 0.36533375E+00 0.24334370E+04</pdfrwt>
<pdfrwt beam="2">  1       -2 0.95909961E-01 0.24334370E+04</pdfrwt>
<totfact> 0.33592011E+00</totfact>
</mgrwt>
</event>
<event>
 6    1  0.2047711E-005  0.2987010E+04  0.7818608E-02  0.8247450E-01
         -2   -1    0    0    0  501 -0.00000000000E+00  0.00000000000E+00  0.78344117082E+03  0.78344117082E+03  0.00000000000E+00 0.  1.
          2   -1    0    0  501    0  0.00000000000E+00 -0.00000000000E+00 -0.28471272373E+04  0.28471272373E+04  0.00000000000E+00 0. -1.
         23    2    1    2    0    0 -0.32517707264E+03 -0.11585445044E+04 -0.21052664959E+04  0.24265358382E+04  0.89239328994E+02 0.  0.
         13    1    3    3    0    0 -0.68807138994E+02 -0.15864044342E+03 -0.34564914062E+03  0.38649002714E+03  0.00000000000E+00 0. -1.
        -13    1    3    3    0    0 -0.25636993364E+03 -0.99990406102E+03 -0.17596173553E+04  0.20400458111E+04  0.00000000000E+00 0.  1.
         22    1    1    2    0    0  0.32517707264E+03  0.11585445044E+04  0.41580429440E+02  0.12040325699E+04  0.00000000000E+00 0.  1.
<mgrwt>
<rscale>  0 0.29870097E+04</rscale>
<asrwt>0</asrwt>
<pdfrwt beam="1">  1        2 0.43801957E+00 0.29870097E+04</pdfrwt>
<pdfrwt beam="2">  1       -2 0.12052941E+00 0.29870097E+04</pdfrwt>
<totfact> 0.97384145E-01</totfact>
</mgrwt>
</event>
<event>
 6    1  0.2047711E-005  0.2904182E+04  0.7818608E-02  0.8271634E-01
         -2   -1    0    0    0  501 -0.00000000000E+00  0.00000000000E+00  0.13429362469E+04  0.13429362469E+04  0.00000000000E+00 0.  1.
          2   -1    0    0  501    0  0.00000000000E+00 -0.00000000000E+00 -0.15701182929E+04  0.15701182929E+04  0.00000000000E+00 0. -1.
         23    2    1    2    0    0 -0.55695705517E+03 -0.60400426628E+03  0.10860298093E+04  0.13640071901E+04  0.77669511299E+02 0.  0.
         11    1    3    3    0    0 -0.33467112974E+03 -0.41607682545E+03  0.71747921094E+03  0.89437190692E+03  0.00000000000E+00 0. -1.
        -11    1    3    3    0    0 -0.22228592542E+03 -0.18792744083E+03  0.36855059833E+03  0.46963528316E+03  0.00000000000E+00 0.  1.
         22    1    1    2    0    0  0.55695705517E+03  0.60400426628E+03 -0.13132118552E+04  0.15490473497E+04  0.00000000000E+00 0. -1.
<mgrwt>
<rscale>  0 0.29041823E+04</rscale>
<asrwt>0</asrwt>
<pdfrwt beam="1">  1        2 0.24155666E+00 0.29041823E+04</pdfrwt>
<pdfrwt beam="2">  1       -2 0.20660558E+00 0.29041823E+04</pdfrwt>
<totfact> 0.12044694E+00</totfact>
</mgrwt>
</event>
<event>
 6    1  0.2047711E-005  0.9550919E+03  0.7818608E-02  0.9359219E-01
         -2   -1    0    0    0  501 -0.00000000000E+00  0.00000000000E+00  0.45352985604E+03  0.45352985604E+03  0.00000000000E+00 0.  1.
          2   -1    0    0  501    0  0.00000000000E+00 -0.00000000000E+00 -0.50283378653E+03  0.50283378653E+03  0.00000000000E+00 0. -1.
         23    2    1    2    0    0  0.42987318114E+03  0.72275998191E+01  0.17303614233E+03  0.47234060796E+03  0.91219259540E+02 0.  0.
         13    1    3    3    0    0  0.15661792505E+03  0.46601515302E+02  0.66673730722E+02  0.17648303614E+03  0.00000000000E+00 0. -1.
        -13    1    3    3    0    0  0.27325525609E+03 -0.39373915483E+02  0.10636241160E+03  0.29585757182E+03  0.00000000000E+00 0.  1.
         22    1    1    2    0    0 -0.42987318114E+03 -0.72275998191E+01 -0.22234007282E+03  0.48402303462E+03  0.00000000000E+00 0. -1.
<mgrwt>
<rscale>  0 0.95509190E+03</rscale>
<asrwt>0</asrwt>
<pdfrwt beam="1">  1        2 0.77359044E-01 0.95509190E+03</pdfrwt>
<pdfrwt beam="2">  1       -2 0.69773824E-01 0.95509190E+03</pdfrwt>
<totfact> 0.11469631E+02</totfact>
</mgrwt>
</event>
<event>
 6    1  0.2047711E-005  0.1169496E+04  0.7818608E-02  0.9139984E-01
         -1   -1    0    0    0  501 -0.00000000000E+00  0.00000000000E+00  0.13174710383E+04  0.13174710383E+04  0.00000000000E+00 0.  1.
          1   -1    0    0  501    0  0.00000000000E+00 -0.00000000000E+00 -0.25953516647E+03  0.25953516647E+03  0.00000000000E+00 0. -1.
         23    2    1    2    0    0 -0.17512047786E+03  0.22514379805E+03  0.12149305215E+04  0.12514232943E+04  0.92990203971E+02 0.  0.
         11    1    3    3    0    0 -0.11823156476E+03  0.18573673426E+03  0.75968124897E+03  0.79094401660E+03  0.00000000000E+00 0. -1.
        -11    1    3    3    0    0 -0.56888913101E+02  0.39407063791E+02  0.45524927248E+03  0.46047927772E+03  0.00000000000E+00 0.  1.
         22    1    1    2    0    0  0.17512047786E+03 -0.22514379805E+03 -0.15699464962E+03  0.32558291045E+03  0.00000000000E+00 0. -1.
<mgrwt>
<rscale>  0 0.11694957E+04</rscale>
<asrwt>0</asrwt>
<pdfrwt beam="1">  1        1 0.39928488E-01 0.11694957E+04</pdfrwt>
<pdfrwt beam="2">  1       -1 0.20268785E+00 0.11694957E+04</pdfrwt>
<totfact> 0.15158650E+01</totfact>
</mgrwt>
</event>
<event>
 6    1  0.2047711E-005  0.3186935E+04  0.7818608E-02  0.8192276E-01
          2   -1    0    0  501    0  0.00000000000E+00  0.00000000000E+00  0.18504229222E+04  0.18504229222E+04  0.00000000000E+00 0. -1.
         -2   -1    0    0    0  501 -0.00000000000E+00 -0.00000000000E+00 -0.13721937177E+04  0.13721937177E+04  0.00000000000E+00 0.  1.
         23    2    1    2    0    0  0.12982099504E+04 -0.64840389956E+03 -0.42259834275E+03  0.15146157727E+04  0.98462619459E+02 0.  0.
         11    1    3    3    0    0  0.10109393273E+04 -0.48002973324E+03 -0.28896665750E+03  0.11558237744E+04  0.00000000000E+00 0.  1.
        -11    1    3    3    0    0  0.28727062313E+03 -0.16837416632E+03 -0.13363168524E+03  0.35879199838E+03  0.00000000000E+00 0. -1.
         22    1    1    2    0    0 -0.12982099504E+04  0.64840389956E+03  0.90082754722E+03  0.17080008671E+04  0.00000000000E+00 0. -1.
<mgrwt>
<rscale>  0 0.31869350E+04</rscale>
<asrwt>0</asrwt>
<pdfrwt beam="1">  1        2 0.28468045E+00 0.31869350E+04</pdfrwt>
<pdfrwt beam="2">  1       -2 0.21110673E+00 0.31869350E+04</pdfrwt>
<totfact> 0.76828903E-01</totfact>
</mgrwt>
</event>
<event>
 6    1  0.2047711E-005  0.1384146E+04  0.7818608E-02  0.8965375E-01
          2   -1    0    0  501    0  0.00000000000E+00  0.00000000000E+00  0.13675074677E+04  0.13675074677E+04  0.00000000000E+00 0. -1.
         -2   -1    0    0    0  501 -0.00000000000E+00 -0.00000000000E+00 -0.35024678966E+03  0.35024678966E+03  0.00000000000E+00 0.  1.
         23    2    1    2    0    0 -0.50306423003E+03  0.40197461467E+03  0.20641818142E+03  0.68232064542E+03  0.91081211967E+02 0.  0.
         13    1    3    3    0    0 -0.21121817140E+03  0.17220169924E+03  0.13480404684E+03  0.30403728751E+03  0.00000000000E+00 0.  1.
        -13    1    3    3    0    0 -0.29184605863E+03  0.22977291543E+03  0.71614134579E+02  0.37828335792E+03  0.00000000000E+00 0. -1.
         22    1    1    2    0    0  0.50306423003E+03 -0.40197461467E+03  0.81084249659E+03  0.10354336119E+04  0.00000000000E+00 0. -1.
<mgrwt>
<rscale>  0 0.13841461E+04</rscale>
<asrwt>0</asrwt>
<pdfrwt beam="1">  1        2 0.21038576E+00 0.13841461E+04</pdfrwt>
<pdfrwt beam="2">  1       -2 0.53884122E-01 0.13841461E+04</pdfrwt>
<totfact> 0.47745729E+01</totfact>
</mgrwt>
</event>
<event>
 6    1  0.2047711E-005  0.1653766E+04  0.7818608E-02  0.8788181E-01
          2   -1    0    0  501    0  0.00000000000E+00  0.00000000000E+00  0.20098047472E+04  0.20098047472E+04  0.00000000000E+00 0. -1.
         -2   -1    0    0    0  501 -0.00000000000E+00 -0.00000000000E+00 -0.34020010791E+03  0.34020010791E+03  0.00000000000E+00 0.  1.
         23    2    1    2    0    0  0.50416551377E+03 -0.37035441442E+03  0.16004111647E+04  0.17206138840E+04  0.88605780426E+02 0.  0.
         13    1    3    3    0    0  0.39335040573E+03 -0.30585959343E+03  0.13553222699E+04  0.14440128420E+04  0.00000000000E+00 0. -1.
        -13    1    3    3    0    0  0.11081510804E+03 -0.64494820983E+02  0.24508889475E+03  0.27660104199E+03  0.00000000000E+00 0.  1.
         22    1    1    2    0    0 -0.50416551377E+03  0.37035441442E+03  0.69193474606E+02  0.62939097108E+03  0.00000000000E+00 0. -1.
<mgrwt>
<rscale>  0 0.16537664E+04</rscale>
<asrwt>0</asrwt>
<pdfrwt beam="1">  1        2 0.30920072E+00 0.16537664E+04</pdfrwt>
<pdfrwt beam="2">  1       -2 0.52338479E-01 0.16537664E+04</pdfrwt>
<totfact> 0.21712369E+01</totfact>
</mgrwt>
</event>
<event>
 6    1  0.2047711E-005  0.2110289E+04  0.7818608E-02  0.8556725E-01
         -2   -1    0    0    0  501 -0.00000000000E+00  0.00000000000E+00  0.61096622955E+03  0.61096622955E+03  0.00000000000E+00 0.  1.
          2   -1    0    0  501    0  0.00000000000E+00 -0.00000000000E+00 -0.18222444073E+04  0.18222444073E+04  0.00000000000E+00 0. -1.
         23    2    1    2    0    0  0.49072365258E+03  0.88229705452E+03 -0.95281717769E+03  0.13910686676E+04  0.89183340206E+02 0.  0.
         13    1    3    3    0    0  0.41151322345E+03  0.78692472234E+03 -0.85995638439E+03  0.12361709569E+04  0.00000000000E+00 0.  1.
        -13    1    3    3    0    0  0.79210429129E+02  0.95372332186E+02 -0.92860793298E+02  0.15489771064E+03  0.00000000000E+00 0. -1.
         22    1    1    2    0    0 -0.49072365258E+03 -0.88229705452E+03 -0.25846100007E+03  0.10421419693E+04  0.00000000000E+00 0. -1.
<mgrwt>
<rscale>  0 0.21102889E+04</rscale>
<asrwt>0</asrwt>
<pdfrwt beam="1">  1        2 0.28034528E+00 0.21102889E+04</pdfrwt>
<pdfrwt beam="2">  1       -2 0.93994807E-01 0.21102889E+04</pdfrwt>
<totfact> 0.73783050E+00</totfact>
</mgrwt>
</event>
<event>
 6    1  0.2047711E-005  0.2012585E+04  0.7818608E-02  0.8600759E-01
         -2   -1    0    0    0  501 -0.00000000000E+00  0.00000000000E+00  0.65985084685E+03  0.65985084685E+03  0.00000000000E+00 0.  1.
          2   -1    0    0  501    0  0.00000000000E+00 -0.00000000000E+00 -0.15346260246E+04  0.15346260246E+04  0.00000000000E+00 0. -1.
         23    2    1    2    0    0  0.49009010167E+03 -0.37539620794E+03 -0.13019900077E+04  0.14437284903E+04  0.89796173897E+02 0.  0.
         13    1    3    3    0    0  0.44265093658E+02 -0.17512921783E+02 -0.15518539080E+03  0.16232253837E+03  0.00000000000E+00 0. -1.
        -13    1    3    3    0    0  0.44582500802E+03 -0.35788328615E+03 -0.11468046169E+04  0.12814059520E+04  0.00000000000E+00 0.  1.
         22    1    1    2    0    0 -0.49009010167E+03  0.37539620794E+03  0.42721483003E+03  0.75074838108E+03  0.00000000000E+00 0.  1.
<mgrwt>
<rscale>  0 0.20125847E+04</rscale>
<asrwt>0</asrwt>
<pdfrwt beam="1">  1        2 0.23609631E+00 0.20125847E+04</pdfrwt>
<pdfrwt beam="2">  1       -2 0.10151552E+00 0.20125847E+04</pdfrwt>
<totfact> 0.89770723E+00</totfact>
</mgrwt>
</event>
<event>
 6    1  0.2047711E-005  0.2127283E+04  0.7818608E-02  0.8549319E-01
         -2   -1    0    0    0  501 -0.00000000000E+00  0.00000000000E+00  0.66576445732E+03  0.66576445732E+03  0.00000000000E+00 0.  1.
          2   -1    0    0  501    0  0.00000000000E+00 -0.00000000000E+00 -0.16993001969E+04  0.16993001969E+04  0.00000000000E+00 0. -1.
         23    2    1    2    0    0 -0.75936719910E+03  0.22097433037E+03 -0.13051808360E+04  0.15288474240E+04  0.91701873036E+02 0.  0.
         13    1    3    3    0    0 -0.25853616034E+03  0.96898329462E+02 -0.38315662449E+03  0.47227029480E+03  0.00000000000E+00 0. -1.
        -13    1    3    3    0    0 -0.50083103875E+03  0.12407600091E+03 -0.92202421153E+03  0.10565771292E+04  0.00000000000E+00 0.  1.
         22    1    1    2    0    0  0.75936719910E+03 -0.22097433037E+03  0.27164509639E+03  0.83621723023E+03  0.00000000000E+00 0.  1.
<mgrwt>
<rscale>  0 0.21272834E+04</rscale>
<asrwt>0</asrwt>
<pdfrwt beam="1">  1        2 0.26143080E+00 0.21272834E+04</pdfrwt>
<pdfrwt beam="2">  1       -2 0.10242530E+00 0.21272834E+04</pdfrwt>
<totfact> 0.70416385E+00</totfact>
</mgrwt>
</event>
<event>
 6    1  0.2047711E-005  0.2035049E+04  0.7818608E-02  0.8590407E-01
          2   -1    0    0  501    0  0.00000000000E+00  0.00000000000E+00  0.95637875479E+03  0.95637875479E+03  0.00000000000E+00 0. -1.
         -2   -1    0    0    0  501 -0.00000000000E+00 -0.00000000000E+00 -0.10825792948E+04  0.10825792948E+04  0.00000000000E+00 0.  1.
         23    2    1    2    0    0  0.29814999468E+03  0.29586620669E+02 -0.10353886898E+04  0.10816744557E+04  0.90670291508E+02 0.  0.
         13    1    3    3    0    0  0.53867026239E+02 -0.10103710764E+02 -0.32067042982E+03  0.32532025152E+03  0.00000000000E+00 0.  1.
        -13    1    3    3    0    0  0.24428296844E+03  0.39690331432E+02 -0.71471825999E+03  0.75635420422E+03  0.00000000000E+00 0. -1.
         22    1    1    2    0    0 -0.29814999468E+03 -0.29586620669E+02  0.90918814976E+03  0.95728359388E+03  0.00000000000E+00 0. -1.
<mgrwt>
<rscale>  0 0.20350487E+04</rscale>
<asrwt>0</asrwt>
<pdfrwt beam="1">  1        2 0.14713519E+00 0.20350487E+04</pdfrwt>
<pdfrwt beam="2">  1       -2 0.16655066E+00 0.20350487E+04</pdfrwt>
<totfact> 0.56188563E+00</totfact>
</mgrwt>
</event>
<event>
 6    1  0.2047711E-005  0.2908235E+04  0.7818608E-02  0.8270431E-01
          2   -1    0    0  501    0  0.00000000000E+00  0.00000000000E+00  0.22868616218E+04  0.22868616218E+04  0.00000000000E+00 0. -1.
         -2   -1    0    0    0  501 -0.00000000000E+00 -0.00000000000E+00 -0.92461131164E+03  0.92461131164E+03  0.00000000000E+00 0.  1.
         23    2    1    2    0    0 -0.39259791570E+03  0.68225625830E+03  0.20299702729E+04  0.21792633258E+04  0.93822218951E+02 0.  0.
         13    1    3    3    0    0 -0.24794658985E+03  0.38360970601E+03  0.12837278097E+04  0.13625677992E+04  0.00000000000E+00 0.  1.
        -13    1    3    3    0    0 -0.14465132586E+03  0.29864655229E+03  0.74624246324E+03  0.81669552662E+03  0.00000000000E+00 0. -1.
         22    1    1    2    0    0  0.39259791570E+03 -0.68225625830E+03 -0.66771996278E+03  0.10322096076E+04  0.00000000000E+00 0.  1.
<mgrwt>
<rscale>  0 0.29082353E+04</rscale>
<asrwt>0</asrwt>
<pdfrwt beam="1">  1        2 0.35182486E+00 0.29082353E+04</pdfrwt>
<pdfrwt beam="2">  1       -2 0.14224789E+00 0.29082353E+04</pdfrwt>
<totfact> 0.13704559E+00</totfact>
</mgrwt>
</event>
<event>
 6    1  0.2047711E-005  0.6763098E+04  0.7818608E-02  0.7602373E-01
         -2   -1    0    0    0  501 -0.00000000000E+00  0.00000000000E+00  0.35494476127E+04  0.35494476127E+04  0.00000000000E+00 0.  1.
          2   -1    0    0  501    0  0.00000000000E+00 -0.00000000000E+00 -0.32215920752E+04  0.32215920752E+04  0.00000000000E+00 0. -1.
         23    2    1    2    0    0  0.29068587490E+04  0.11544925610E+04  0.14492005177E+04  0.34483757830E+04  0.91828864170E+02 0.  0.
         13    1    3    3    0    0  0.19318574856E+04  0.74363526826E+03  0.10001916959E+04  0.22990106971E+04  0.00000000000E+00 0.  1.
        -13    1    3    3    0    0  0.97500126341E+03  0.41085729269E+03  0.44900882172E+03  0.11493650859E+04  0.00000000000E+00 0. -1.
         22    1    1    2    0    0 -0.29068587490E+04 -0.11544925610E+04 -0.11213449801E+04  0.33226639048E+04  0.00000000000E+00 0. -1.
<mgrwt>
<rscale>  0 0.67630976E+04</rscale>
<asrwt>0</asrwt>
<pdfrwt beam="1">  1        2 0.49562955E+00 0.67630976E+04</pdfrwt>
<pdfrwt beam="2">  1       -2 0.54606886E+00 0.67630976E+04</pdfrwt>
<totfact> 0.72852000E-04</totfact>
</mgrwt>
</event>
<event>
 6    1  0.2047711E-005  0.2001571E+04  0.7818608E-02  0.8605887E-01
          2   -1    0    0  501    0  0.00000000000E+00  0.00000000000E+00  0.22805267269E+04  0.22805267269E+04  0.00000000000E+00 0. -1.
         -2   -1    0    0    0  501 -0.00000000000E+00 -0.00000000000E+00 -0.43918430819E+03  0.43918430819E+03  0.00000000000E+00 0.  1.
         23    2    1    2    0    0  0.95938229068E+03  0.11054269206E+03  0.12687187329E+04  0.15969768938E+04  0.89743577213E+02 0.  0.
         13    1    3    3    0    0  0.33916448277E+03  0.24550546108E+02  0.51441952645E+03  0.61665446149E+03  0.00000000000E+00 0. -1.
        -13    1    3    3    0    0  0.62021780791E+03  0.85992145952E+02  0.75429920648E+03  0.98032243232E+03  0.00000000000E+00 0.  1.
         22    1    1    2    0    0 -0.95938229068E+03 -0.11054269206E+03  0.57262368578E+03  0.11227341413E+04  0.00000000000E+00 0.  1.
<mgrwt>
<rscale>  0 0.20015709E+04</rscale>
<asrwt>0</asrwt>
<pdfrwt beam="1">  1        2 0.35085026E+00 0.20015709E+04</pdfrwt>
<pdfrwt beam="2">  1       -2 0.67566818E-01 0.20015709E+04</pdfrwt>
<totfact> 0.86748565E+00</totfact>
</mgrwt>
</event>
<event>
 6    1  0.2047711E-005  0.3724980E+04  0.7818608E-02  0.8062448E-01
          2   -1    0    0  501    0  0.00000000000E+00  0.00000000000E+00  0.23829107035E+04  0.23829107035E+04  0.00000000000E+00 0. -1.
         -2   -1    0    0    0  501 -0.00000000000E+00 -0.00000000000E+00 -0.14557277460E+04  0.14557277460E+04  0.00000000000E+00 0.  1.
         23    2    1    2    0    0  0.72930044691E+03 -0.16144910557E+04  0.10521563587E+04  0.20626657971E+04  0.95376498945E+02 0.  0.
         13    1    3    3    0    0  0.27436274601E+03 -0.50014874537E+03  0.34524074913E+03  0.66679446515E+03  0.00000000000E+00 0.  1.
        -13    1    3    3    0    0  0.45493770090E+03 -0.11143423104E+04  0.70691560955E+03  0.13958713320E+04  0.00000000000E+00 0. -1.
         22    1    1    2    0    0 -0.72930044691E+03  0.16144910557E+04 -0.12497340117E+03  0.17759726524E+04  0.00000000000E+00 0.  1.
<mgrwt>
<rscale>  0 0.37249801E+04</rscale>
<asrwt>0</asrwt>
<pdfrwt beam="1">  1        2 0.36660165E+00 0.37249801E+04</pdfrwt>
<pdfrwt beam="2">  1       -2 0.22395811E+00 0.37249801E+04</pdfrwt>
<totfact> 0.30606927E-01</totfact>
</mgrwt>
</event>
<event>
 6    1  0.2047711E-005  0.1420458E+04  0.7818608E-02  0.8939141E-01
          2   -1    0    0  501    0  0.00000000000E+00  0.00000000000E+00  0.81983261949E+03  0.81983261949E+03  0.00000000000E+00 0. -1.
         -2   -1    0    0    0  501 -0.00000000000E+00 -0.00000000000E+00 -0.61527866419E+03  0.61527866419E+03  0.00000000000E+00 0.  1.
         23    2    1    2    0    0  0.36388448212E+03 -0.60454840654E+03  0.52292504189E+02  0.71325656030E+03  0.90053998449E+02 0.  0.
         13    1    3    3    0    0  0.21416385635E+03 -0.42035339665E+03  0.61208580506E+02  0.47572011285E+03  0.00000000000E+00 0. -1.
        -13    1    3    3    0    0  0.14972062578E+03 -0.18419500989E+03 -0.89160763168E+01  0.23753644745E+03  0.00000000000E+00 0.  1.
         22    1    1    2    0    0 -0.36388448212E+03  0.60454840654E+03  0.15226145110E+03  0.72185472338E+03  0.00000000000E+00 0.  1.
<mgrwt>
<rscale>  0 0.14204584E+04</rscale>
<asrwt>0</asrwt>
<pdfrwt beam="1">  1        2 0.12612810E+00 0.14204584E+04</pdfrwt>
<pdfrwt beam="2">  1       -2 0.94658256E-01 0.14204584E+04</pdfrwt>
<totfact> 0.30457819E+01</totfact>
</mgrwt>
</event>
<event>
 6    1  0.2047711E-005  0.4758178E+04  0.7818608E-02  0.7866933E-01
          2   -1    0    0  501    0  0.00000000000E+00  0.00000000000E+00  0.31590441783E+04  0.31590441783E+04  0.00000000000E+00 0. -1.
         -2   -1    0    0    0  501 -0.00000000000E+00 -0.00000000000E+00 -0.17917017182E+04  0.17917017182E+04  0.00000000000E+00 0.  1.
         23    2    1    2    0    0  0.16450171421E+03  0.11439216718E+04 -0.14787732423E+04  0.18789398810E+04  0.89594470423E+02 0.  0.
         11    1    3    3    0    0  0.73671289568E+02  0.77241812275E+03 -0.10227664080E+04  0.12837867192E+04  0.00000000000E+00 0. -1.
        -11    1    3    3    0    0  0.90830424639E+02  0.37150354908E+03 -0.45600683431E+03  0.59515316176E+03  0.00000000000E+00 0.  1.
         22    1    1    2    0    0 -0.16450171421E+03 -0.11439216718E+04  0.28461157024E+04  0.30718060155E+04  0.00000000000E+00 0. -1.
<mgrwt>
<rscale>  0 0.47581782E+04</rscale>
<asrwt>0</asrwt>
<pdfrwt beam="1">  1        2 0.48600680E+00 0.47581782E+04</pdfrwt>
<pdfrwt beam="2">  1       -2 0.27564642E+00 0.47581782E+04</pdfrwt>
<totfact> 0.45768585E-02</totfact>
</mgrwt>
</event>
<event>
 6    1  0.2047711E-005  0.1907659E+04  0.7818608E-02  0.8651054E-01
         -1   -1    0    0    0  501 -0.00000000000E+00  0.00000000000E+00  0.46381448382E+03  0.46381448382E+03  0.00000000000E+00 0.  1.
          1   -1    0    0  501    0  0.00000000000E+00 -0.00000000000E+00 -0.19615391202E+04  0.19615391202E+04  0.00000000000E+00 0. -1.
         23    2    1    2    0    0  0.25053916773E+03 -0.27552566290E+03 -0.18639323992E+04  0.19030582938E+04  0.93287810964E+02 0.  0.
         13    1    3    3    0    0  0.16529584406E+03 -0.11336209283E+03 -0.93792505220E+03  0.95910222797E+03  0.00000000000E+00 0.  1.
        -13    1    3    3    0    0  0.85243323670E+02 -0.16216357007E+03 -0.92600734696E+03  0.94395606588E+03  0.00000000000E+00 0. -1.
         22    1    1    2    0    0 -0.25053916773E+03  0.27552566290E+03  0.36620776279E+03  0.52229531015E+03  0.00000000000E+00 0.  1.
<mgrwt>
<rscale>  0 0.19076585E+04</rscale>
<asrwt>0</asrwt>
<pdfrwt beam="1">  1        1 0.30177524E+00 0.19076585E+04</pdfrwt>
<pdfrwt beam="2">  1       -1 0.71356076E-01 0.19076585E+04</pdfrwt>
<totfact> 0.58679606E+00</totfact>
</mgrwt>
</event>
<event>
 6    1  0.2047711E-005  0.9025666E+03  0.7818608E-02  0.9422379E-01
         -2   -1    0    0    0  501 -0.00000000000E+00  0.00000000000E+00  0.32789101200E+03  0.32789101200E+03  0.00000000000E+00 0.  1.
          2   -1    0    0  501    0  0.00000000000E+00 -0.00000000000E+00 -0.62111067236E+03  0.62111067236E+03  0.00000000000E+00 0. -1.
         23    2    1    2    0    0 -0.20852241082E+03 -0.21490647430E+03  0.20020822531E+03  0.37182106543E+03  0.92201858460E+02 0.  0.
         13    1    3    3    0    0 -0.21203284108E+03 -0.22100989460E+03  0.19594285394E+03  0.36358891790E+03  0.00000000000E+00 0. -1.
        -13    1    3    3    0    0  0.35104302543E+01  0.61034203071E+01  0.42653713659E+01  0.82321475269E+01  0.00000000000E+00 0.  1.
         22    1    1    2    0    0  0.20852241082E+03  0.21490647430E+03 -0.49342788567E+03  0.57718061893E+03  0.00000000000E+00 0. -1.
<mgrwt>
<rscale>  0 0.90256658E+03</rscale>
<asrwt>0</asrwt>
<pdfrwt beam="1">  1        2 0.95555487E-01 0.90256658E+03</pdfrwt>
<pdfrwt beam="2">  1       -2 0.50444772E-01 0.90256658E+03</pdfrwt>
<totfact> 0.17728899E+02</totfact>
</mgrwt>
</event>
<event>
 6    1  0.2047711E-005  0.6103967E+03  0.7818608E-02  0.9884068E-01
         -2   -1    0    0    0  501 -0.00000000000E+00  0.00000000000E+00  0.14466208743E+04  0.14466208743E+04  0.00000000000E+00 0.  1.
          2   -1    0    0  501    0  0.00000000000E+00 -0.00000000000E+00 -0.64388698176E+02  0.64388698176E+02  0.00000000000E+00 0. -1.
         23    2    1    2    0    0 -0.14665098146E+03  0.24069407284E+03  0.94849986486E+03  0.99374381399E+03  0.91840226123E+02 0.  0.
         13    1    3    3    0    0 -0.14457077706E+03  0.21197955318E+03  0.73903902972E+03  0.78231370179E+03  0.00000000000E+00 0. -1.
        -13    1    3    3    0    0 -0.20802043967E+01  0.28714519668E+02  0.20946083514E+03  0.21143011220E+03  0.00000000000E+00 0.  1.
         22    1    1    2    0    0  0.14665098146E+03 -0.24069407284E+03  0.43373231124E+03  0.51726575847E+03  0.00000000000E+00 0. -1.
<mgrwt>
<rscale>  0 0.61039671E+03</rscale>
<asrwt>0</asrwt>
<pdfrwt beam="1">  1        2 0.99059546E-02 0.61039671E+03</pdfrwt>
<pdfrwt beam="2">  1       -2 0.22255703E+00 0.61039671E+03</pdfrwt>
<totfact> 0.66025808E+01</totfact>
</mgrwt>
</event>
<event>
 6    1  0.2047711E-005  0.3406982E+03  0.7818608E-02  0.1066499E+00
         -2   -1    0    0    0  501 -0.00000000000E+00  0.00000000000E+00  0.26307201878E+03  0.26307201878E+03  0.00000000000E+00 0. -1.
          2   -1    0    0  501    0  0.00000000000E+00 -0.00000000000E+00 -0.11030747504E+03  0.11030747504E+03  0.00000000000E+00 0.  1.
         23    2    1    2    0    0 -0.53877117101E+02 -0.10578871894E+03  0.19638169296E+03  0.24690241088E+03  0.91110012425E+02 0.  0.
         11    1    3    3    0    0 -0.24176349862E+01 -0.95128165000E+02  0.10679747494E+03  0.14304164914E+03  0.00000000000E+00 0.  1.
        -11    1    3    3    0    0 -0.51459482115E+02 -0.10660553939E+02  0.89584218022E+02  0.10386076174E+03  0.00000000000E+00 0. -1.
         22    1    1    2    0    0  0.53877117101E+02  0.10578871894E+03 -0.43617149220E+02  0.12647708294E+03  0.00000000000E+00 0.  1.
<mgrwt>
<rscale>  0 0.34069817E+03</rscale>
<asrwt>0</asrwt>
<pdfrwt beam="1">  1        2 0.16970381E-01 0.34069817E+03</pdfrwt>
<pdfrwt beam="2">  1       -2 0.40472618E-01 0.34069817E+03</pdfrwt>
<totfact> 0.19682961E+03</totfact>
</mgrwt>
</event>
<event>
 6    1  0.2047711E-005  0.5447876E+03  0.7818608E-02  0.1002708E+00
          4   -1    0    0  501    0  0.00000000000E+00  0.00000000000E+00  0.86030614232E+02  0.86030614232E+02  0.00000000000E+00 0. -1.
         -4   -1    0    0    0  501 -0.00000000000E+00 -0.00000000000E+00 -0.86246500528E+03  0.86246500528E+03  0.00000000000E+00 0.  1.
         23    2    1    2    0    0 -0.23353121920E+03  0.10769510012E+03 -0.29761897371E+03  0.40498916251E+03  0.96457779910E+02 0.  0.
         11    1    3    3    0    0 -0.17985226438E+03  0.11413522024E+03 -0.19399993762E+03  0.28811397276E+03  0.00000000000E+00 0.  1.
        -11    1    3    3    0    0 -0.53678954816E+02 -0.64401201290E+01 -0.10361903609E+03  0.11687518974E+03  0.00000000000E+00 0. -1.
         22    1    1    2    0    0  0.23353121920E+03 -0.10769510012E+03 -0.47881541734E+03  0.54350645701E+03  0.00000000000E+00 0.  1.
<mgrwt>
<rscale>  0 0.54478764E+03</rscale>
<asrwt>0</asrwt>
<pdfrwt beam="1">  1        4 0.13235480E-01 0.54478764E+03</pdfrwt>
<pdfrwt beam="2">  1       -4 0.13268692E+00 0.54478764E+03</pdfrwt>
<totfact> 0.39336741E+01</totfact>
</mgrwt>
</event>
<event>
 6    1  0.2047711E-005  0.4002623E+04  0.7818608E-02  0.8004018E-01
         -2   -1    0    0    0  501 -0.00000000000E+00  0.00000000000E+00  0.14728187414E+04  0.14728187414E+04  0.00000000000E+00 0.  1.
          2   -1    0    0  501    0  0.00000000000E+00 -0.00000000000E+00 -0.27194438890E+04  0.27194438890E+04  0.00000000000E+00 0. -1.
         23    2    1    2    0    0 -0.15264804585E+04 -0.19747998396E+03  0.71458638350E+03  0.16991738627E+04  0.86123063424E+02 0.  0.
         13    1    3    3    0    0 -0.84165016773E+03 -0.65693394693E+02  0.39313652798E+03  0.93126094977E+03  0.00000000000E+00 0. -1.
        -13    1    3    3    0    0 -0.68483029074E+03 -0.13178658927E+03  0.32144985553E+03  0.76791291293E+03  0.00000000000E+00 0.  1.
         22    1    1    2    0    0  0.15264804585E+04  0.19747998396E+03 -0.19612115311E+04  0.24930887678E+04  0.00000000000E+00 0. -1.
<mgrwt>
<rscale>  0 0.40026231E+04</rscale>
<asrwt>0</asrwt>
<pdfrwt beam="1">  1        2 0.41837598E+00 0.40026231E+04</pdfrwt>
<pdfrwt beam="2">  1       -2 0.22658750E+00 0.40026231E+04</pdfrwt>
<totfact> 0.18311999E-01</totfact>
</mgrwt>
</event>
<event>
 6    1  0.2047711E-005  0.2461469E+04  0.7818608E-02  0.8416842E-01
         -2   -1    0    0    0  501 -0.00000000000E+00  0.00000000000E+00  0.77885446635E+03  0.77885446635E+03  0.00000000000E+00 0.  1.
          2   -1    0    0  501    0  0.00000000000E+00 -0.00000000000E+00 -0.19447886643E+04  0.19447886643E+04  0.00000000000E+00 0. -1.
         23    2    1    2    0    0  0.97604130051E+03  0.10969179262E+03 -0.14016501940E+04  0.17135684104E+04  0.83693018398E+02 0.  0.
         13    1    3    3    0    0  0.45210140717E+03  0.11050881367E+02 -0.62011501687E+03  0.76750272865E+03  0.00000000000E+00 0. -1.
        -13    1    3    3    0    0  0.52393989334E+03  0.98640911255E+02 -0.78153517708E+03  0.94606568177E+03  0.00000000000E+00 0.  1.
         22    1    1    2    0    0 -0.97604130051E+03 -0.10969179262E+03  0.23571599599E+03  0.10100747202E+04  0.00000000000E+00 0.  1.
<mgrwt>
<rscale>  0 0.24614689E+04</rscale>
<asrwt>0</asrwt>
<pdfrwt beam="1">  1        2 0.29919825E+00 0.24614689E+04</pdfrwt>
<pdfrwt beam="2">  1       -2 0.11982376E+00 0.24614689E+04</pdfrwt>
<totfact> 0.34192993E+00</totfact>
</mgrwt>
</event>
<event>
 6    1  0.2047711E-005  0.9127571E+03  0.7818608E-02  0.9409773E-01
          1   -1    0    0  501    0  0.00000000000E+00  0.00000000000E+00  0.12089234353E+04  0.12089234353E+04  0.00000000000E+00 0. -1.
         -1   -1    0    0    0  501 -0.00000000000E+00 -0.00000000000E+00 -0.17228664665E+03  0.17228664665E+03  0.00000000000E+00 0.  1.
         23    2    1    2    0    0 -0.88567015616E+02  0.43964163043E+03  0.60787986129E+03  0.76075751950E+03  0.90028874552E+02 0.  0.
         11    1    3    3    0    0 -0.83968554917E+02  0.31057382862E+03  0.48823250229E+03  0.58470317044E+03  0.00000000000E+00 0. -1.
        -11    1    3    3    0    0 -0.45984606993E+01  0.12906780181E+03  0.11964735900E+03  0.17605434906E+03  0.00000000000E+00 0.  1.
         22    1    1    2    0    0  0.88567015616E+02 -0.43964163043E+03  0.42875692732E+03  0.62045256240E+03  0.00000000000E+00 0. -1.
<mgrwt>
<rscale>  0 0.91275706E+03</rscale>
<asrwt>0</asrwt>
<pdfrwt beam="1">  1        1 0.18598822E+00 0.91275706E+03</pdfrwt>
<pdfrwt beam="2">  1       -1 0.26505639E-01 0.91275706E+03</pdfrwt>
<totfact> 0.13410677E+02</totfact>
</mgrwt>
</event>
<event>
 6    1  0.2047711E-005  0.2236600E+04  0.7818608E-02  0.8503347E-01
         -1   -1    0    0    0  501 -0.00000000000E+00  0.00000000000E+00  0.12904234507E+04  0.12904234507E+04  0.00000000000E+00 0.  1.
          1   -1    0    0  501    0  0.00000000000E+00 -0.00000000000E+00 -0.96913548015E+03  0.96913548015E+03  0.00000000000E+00 0. -1.
         23    2    1    2    0    0  0.42597072650E+03 -0.12586727103E+03  0.11956839405E+04  0.12788133258E+04  0.91704999461E+02 0.  0.
         11    1    3    3    0    0  0.22686996468E+03 -0.94189581986E+02  0.54942836626E+03  0.60184149731E+03  0.00000000000E+00 0. -1.
        -11    1    3    3    0    0  0.19910076182E+03 -0.31677689044E+02  0.64625557422E+03  0.67697182847E+03  0.00000000000E+00 0.  1.
         22    1    1    2    0    0 -0.42597072650E+03  0.12586727103E+03 -0.87439596990E+03  0.98074560510E+03  0.00000000000E+00 0. -1.
<mgrwt>
<rscale>  0 0.22366002E+04</rscale>
<asrwt>0</asrwt>
<pdfrwt beam="1">  1        1 0.14909777E+00 0.22366002E+04</pdfrwt>
<pdfrwt beam="2">  1       -1 0.19852668E+00 0.22366002E+04</pdfrwt>
<totfact> 0.22407764E+00</totfact>
</mgrwt>
</event>
<event>
 6    1  0.2047711E-005  0.1749170E+04  0.7818608E-02  0.8733808E-01
         -2   -1    0    0    0  501 -0.00000000000E+00  0.00000000000E+00  0.15531923268E+04  0.15531923268E+04  0.00000000000E+00 0.  1.
          2   -1    0    0  501    0  0.00000000000E+00 -0.00000000000E+00 -0.49246868573E+03  0.49246868573E+03  0.00000000000E+00 0. -1.
         23    2    1    2    0    0  0.50151959013E+03  0.24582294780E+03  0.13152730080E+04  0.14318644654E+04  0.91334226858E+02 0.  0.
         13    1    3    3    0    0  0.20996057813E+03  0.96714819409E+02  0.66014653583E+03  0.69945024800E+03  0.00000000000E+00 0.  1.
        -13    1    3    3    0    0  0.29155901200E+03  0.14910812839E+03  0.65512647213E+03  0.73241421744E+03  0.00000000000E+00 0. -1.
         22    1    1    2    0    0 -0.50151959013E+03 -0.24582294780E+03 -0.25454936693E+03  0.61379654704E+03  0.00000000000E+00 0. -1.
<mgrwt>
<rscale>  0 0.17491696E+04</rscale>
<asrwt>0</asrwt>
<pdfrwt beam="1">  1        2 0.75764414E-01 0.17491696E+04</pdfrwt>
<pdfrwt beam="2">  1       -2 0.23895266E+00 0.17491696E+04</pdfrwt>
<totfact> 0.44657210E+00</totfact>
</mgrwt>
</event>
<event>
 6    1  0.2047711E-005  0.1000284E+04  0.7818608E-02  0.9308234E-01
         -2   -1    0    0    0  501 -0.00000000000E+00  0.00000000000E+00  0.10091986579E+03  0.10091986579E+03  0.00000000000E+00 0.  1.
          2   -1    0    0  501    0  0.00000000000E+00 -0.00000000000E+00 -0.24786180526E+04  0.24786180526E+04  0.00000000000E+00 0. -1.
         23    2    1    2    0    0 -0.25432548386E+03 -0.27947776994E+03 -0.37377580426E+03  0.54029928819E+03  0.97086010030E+02 0.  0.
         13    1    3    3    0    0 -0.56659126682E+02 -0.12370998579E+03 -0.10319854026E+03  0.17077574749E+03  0.00000000000E+00 0. -1.
        -13    1    3    3    0    0 -0.19766635717E+03 -0.15576778415E+03 -0.27057726400E+03  0.36952354070E+03  0.00000000000E+00 0.  1.
         22    1    1    2    0    0  0.25432548386E+03  0.27947776994E+03 -0.20039223826E+04  0.20392386302E+04  0.00000000000E+00 0. -1.
<mgrwt>
<rscale>  0 0.10002836E+04</rscale>
<asrwt>0</asrwt>
<pdfrwt beam="1">  1        2 0.38132587E+00 0.10002836E+04</pdfrwt>
<pdfrwt beam="2">  1       -2 0.15526133E-01 0.10002836E+04</pdfrwt>
<totfact> 0.11984969E+02</totfact>
</mgrwt>
</event>
<event>
 6    1  0.2047711E-005  0.4399098E+04  0.7818608E-02  0.7928544E-01
          2   -1    0    0  501    0  0.00000000000E+00  0.00000000000E+00  0.49715051460E+04  0.49715051460E+04  0.00000000000E+00 0. -1.
         -2   -1    0    0    0  501 -0.00000000000E+00 -0.00000000000E+00 -0.97314918570E+03  0.97314918570E+03  0.00000000000E+00 0.  1.
         23    2    1    2    0    0 -0.11153336835E+04  0.48624307618E+03 -0.47453946634E+03  0.13092260826E+04  0.92106871145E+02 0.  0.
         11    1    3    3    0    0 -0.42009386903E+03  0.23211527572E+03 -0.18983718194E+03  0.51613420316E+03  0.00000000000E+00 0.  1.
        -11    1    3    3    0    0 -0.69523981444E+03  0.25412780046E+03 -0.28470228439E+03  0.79309187947E+03  0.00000000000E+00 0. -1.
         22    1    1    2    0    0  0.11153336835E+04 -0.48624307618E+03  0.44728954266E+04  0.46354282490E+04  0.00000000000E+00 0. -1.
<mgrwt>
<rscale>  0 0.43990982E+04</rscale>
<asrwt>0</asrwt>
<pdfrwt beam="1">  1        2 0.76484693E+00 0.43990982E+04</pdfrwt>
<pdfrwt beam="2">  1       -2 0.14971526E+00 0.43990982E+04</pdfrwt>
<totfact> 0.84558953E-03</totfact>
</mgrwt>
</event>
<event>
 6    1  0.2047711E-005  0.6011835E+04  0.7818608E-02  0.7688936E-01
         -2   -1    0    0    0  501 -0.00000000000E+00  0.00000000000E+00  0.18672109553E+04  0.18672109553E+04  0.00000000000E+00 0.  1.
          2   -1    0    0  501    0  0.00000000000E+00 -0.00000000000E+00 -0.48390569748E+04  0.48390569748E+04  0.00000000000E+00 0. -1.
         23    2    1    2    0    0  0.49416324224E+03 -0.12973660875E+04  0.14869427029E+04  0.20363479151E+04  0.91422944525E+02 0.  0.
         13    1    3    3    0    0  0.33858160237E+03 -0.99514207930E+03  0.11080405718E+04  0.15273176383E+04  0.00000000000E+00 0.  1.
        -13    1    3    3    0    0  0.15558163987E+03 -0.30222400818E+03  0.37890213110E+03  0.50903027684E+03  0.00000000000E+00 0. -1.
         22    1    1    2    0    0 -0.49416324224E+03  0.12973660875E+04 -0.44587887224E+04  0.46699200149E+04  0.00000000000E+00 0. -1.
<mgrwt>
<rscale>  0 0.60118351E+04</rscale>
<asrwt>0</asrwt>
<pdfrwt beam="1">  1        2 0.74447030E+00 0.60118351E+04</pdfrwt>
<pdfrwt beam="2">  1       -2 0.28726322E+00 0.60118351E+04</pdfrwt>
<totfact> 0.13490482E-03</totfact>
</mgrwt>
</event>
<event>
 6    1  0.2047711E-005  0.2267539E+04  0.7818608E-02  0.8490831E-01
          2   -1    0    0  501    0  0.00000000000E+00  0.00000000000E+00  0.18067579916E+04  0.18067579916E+04  0.00000000000E+00 0. -1.
         -2   -1    0    0    0  501 -0.00000000000E+00 -0.00000000000E+00 -0.71145865174E+03  0.71145865174E+03  0.00000000000E+00 0.  1.
         23    2    1    2    0    0  0.87532330497E+03 -0.49377507937E+03  0.11268841173E+04  0.15127305344E+04  0.92093097708E+02 0.  0.
         11    1    3    3    0    0  0.16344750363E+03 -0.69931299972E+02  0.24515811994E+03  0.30283324938E+03  0.00000000000E+00 0. -1.
        -11    1    3    3    0    0  0.71187580134E+03 -0.42384377940E+03  0.88172599735E+03  0.12098972850E+04  0.00000000000E+00 0.  1.
         22    1    1    2    0    0 -0.87532330497E+03  0.49377507937E+03 -0.31584777390E+02  0.10054861090E+04  0.00000000000E+00 0.  1.
<mgrwt>
<rscale>  0 0.22675393E+04</rscale>
<asrwt>0</asrwt>
<pdfrwt beam="1">  1        2 0.27796277E+00 0.22675393E+04</pdfrwt>
<pdfrwt beam="2">  1       -2 0.10945518E+00 0.22675393E+04</pdfrwt>
<totfact> 0.51711572E+00</totfact>
</mgrwt>
</event>
<event>
 6    1  0.2047711E-005  0.3480338E+04  0.7818608E-02  0.8118465E-01
          2   -1    0    0  501    0  0.00000000000E+00  0.00000000000E+00  0.23854677597E+04  0.23854677597E+04  0.00000000000E+00 0. -1.
         -2   -1    0    0    0  501 -0.00000000000E+00 -0.00000000000E+00 -0.12694319387E+04  0.12694319387E+04  0.00000000000E+00 0.  1.
         23    2    1    2    0    0  0.41808032529E+03 -0.16877502071E+04  0.53371281226E+03  0.18212170633E+04  0.93221808998E+02 0.  0.
         11    1    3    3    0    0  0.28315660796E+03 -0.12660135438E+04  0.42683744039E+03  0.13657079330E+04  0.00000000000E+00 0.  1.
        -11    1    3    3    0    0  0.13492371733E+03 -0.42173666332E+03  0.10687537187E+03  0.45550913031E+03  0.00000000000E+00 0. -1.
         22    1    1    2    0    0 -0.41808032529E+03  0.16877502071E+04  0.58232300878E+03  0.18336826352E+04  0.00000000000E+00 0. -1.
<mgrwt>
<rscale>  0 0.34803385E+04</rscale>
<asrwt>0</asrwt>
<pdfrwt beam="1">  1        2 0.36699504E+00 0.34803385E+04</pdfrwt>
<pdfrwt beam="2">  1       -2 0.19529722E+00 0.34803385E+04</pdfrwt>
<totfact> 0.47648044E-01</totfact>
</mgrwt>
</event>
<event>
 6    1  0.2047711E-005  0.3687127E+04  0.7818608E-02  0.8070821E-01
          1   -1    0    0  501    0  0.00000000000E+00  0.00000000000E+00  0.21720104419E+04  0.21720104419E+04  0.00000000000E+00 0. -1.
         -1   -1    0    0    0  501 -0.00000000000E+00 -0.00000000000E+00 -0.15647834942E+04  0.15647834942E+04  0.00000000000E+00 0.  1.
         23    2    1    2    0    0 -0.12250973776E+04 -0.91693538101E+03  0.13437098005E+04  0.20385474669E+04  0.92117691808E+02 0.  0.
         11    1    3    3    0    0 -0.63091968093E+03 -0.45950928429E+03  0.74499124158E+03  0.10789904430E+04  0.00000000000E+00 0. -1.
        -11    1    3    3    0    0 -0.59417769667E+03 -0.45742609671E+03  0.59871855893E+03  0.95955702383E+03  0.00000000000E+00 0.  1.
         22    1    1    2    0    0  0.12250973776E+04  0.91693538101E+03 -0.73648285286E+03  0.16982464692E+04  0.00000000000E+00 0.  1.
<mgrwt>
<rscale>  0 0.36871268E+04</rscale>
<asrwt>0</asrwt>
<pdfrwt beam="1">  1        1 0.33415545E+00 0.36871268E+04</pdfrwt>
<pdfrwt beam="2">  1       -1 0.24073592E+00 0.36871268E+04</pdfrwt>
<totfact> 0.14660465E-01</totfact>
</mgrwt>
</event>
<event>
 6    1  0.2047711E-005  0.1367743E+04  0.7818608E-02  0.8977504E-01
          2   -1    0    0  501    0  0.00000000000E+00  0.00000000000E+00  0.35153173926E+04  0.35153173926E+04  0.00000000000E+00 0. -1.
         -2   -1    0    0    0  501 -0.00000000000E+00 -0.00000000000E+00 -0.13304071342E+03  0.13304071342E+03  0.00000000000E+00 0.  1.
         23    2    1    2    0    0  0.38209900919E+03 -0.55932108686E+03  0.18828191266E+04  0.20029971477E+04  0.90277236174E+02 0.  0.
         11    1    3    3    0    0  0.31615053802E+02 -0.10384284914E+03  0.31188576314E+03  0.33023564040E+03  0.00000000000E+00 0. -1.
        -11    1    3    3    0    0  0.35048395539E+03 -0.45547823772E+03  0.15709333634E+04  0.16727615073E+04  0.00000000000E+00 0.  1.
         22    1    1    2    0    0 -0.38209900919E+03  0.55932108686E+03  0.14994575526E+04  0.16453609583E+04  0.00000000000E+00 0.  1.
<mgrwt>
<rscale>  0 0.13677432E+04</rscale>
<asrwt>0</asrwt>
<pdfrwt beam="1">  1        2 0.54081799E+00 0.13677432E+04</pdfrwt>
<pdfrwt beam="2">  1       -2 0.20467805E-01 0.13677432E+04</pdfrwt>
<totfact> 0.16176545E+01</totfact>
</mgrwt>
</event>
<event>
 6    1  0.2047711E-005  0.7149096E+04  0.7818608E-02  0.7562252E-01
         -2   -1    0    0    0  501 -0.00000000000E+00  0.00000000000E+00  0.53403966246E+04  0.53403966246E+04  0.00000000000E+00 0.  1.
          2   -1    0    0  501    0  0.00000000000E+00 -0.00000000000E+00 -0.23925926500E+04  0.23925926500E+04  0.00000000000E+00 0. -1.
         23    2    1    2    0    0 -0.30591444045E+04  0.17340239668E+04  0.21649751758E+04  0.41304867369E+04  0.92733849915E+02 0.  0.
         11    1    3    3    0    0 -0.18763679902E+04  0.10264531511E+04  0.12792417835E+04  0.24921521717E+04  0.00000000000E+00 0. -1.
        -11    1    3    3    0    0 -0.11827764143E+04  0.70757081574E+03  0.88573339223E+03  0.16383345652E+04  0.00000000000E+00 0.  1.
         22    1    1    2    0    0  0.30591444045E+04 -0.17340239668E+04  0.78282879884E+03  0.36025025376E+04  0.00000000000E+00 0. -1.
<mgrwt>
<rscale>  0 0.71490961E+04</rscale>
<asrwt>0</asrwt>
<pdfrwt beam="1">  1        2 0.36809118E+00 0.71490961E+04</pdfrwt>
<pdfrwt beam="2">  1       -2 0.82159948E+00 0.71490961E+04</pdfrwt>
<totfact> 0.13843192E-04</totfact>
</mgrwt>
</event>
<event>
 6    1  0.2047711E-005  0.8288798E+03  0.7818608E-02  0.9519131E-01
          2   -1    0    0  501    0  0.00000000000E+00  0.00000000000E+00  0.11715311554E+04  0.11715311554E+04  0.00000000000E+00 0. -1.
         -2   -1    0    0    0  501 -0.00000000000E+00 -0.00000000000E+00 -0.14661192825E+03  0.14661192825E+03  0.00000000000E+00 0.  1.
         23    2    1    2    0    0  0.58958842711E+02  0.21963882307E+03  0.10597353914E+04  0.10880789122E+04  0.95704030804E+02 0.  0.
         13    1    3    3    0    0  0.11665164647E+02  0.47737171930E+02  0.45395229385E+03  0.45660442261E+03  0.00000000000E+00 0. -1.
        -13    1    3    3    0    0  0.47293678064E+02  0.17190165115E+03  0.60578309757E+03  0.63147448955E+03  0.00000000000E+00 0.  1.
         22    1    1    2    0    0 -0.58958842711E+02 -0.21963882307E+03 -0.34816164219E+02  0.23006417154E+03  0.00000000000E+00 0.  1.
<mgrwt>
<rscale>  0 0.82887983E+03</rscale>
<asrwt>0</asrwt>
<pdfrwt beam="1">  1        2 0.18023556E+00 0.82887983E+03</pdfrwt>
<pdfrwt beam="2">  1       -2 0.22555682E-01 0.82887983E+03</pdfrwt>
<totfact> 0.34138569E+02</totfact>
</mgrwt>
</event>
<event>
 6    1  0.2047711E-005  0.6717083E+03  0.7818608E-02  0.9766877E-01
         -2   -1    0    0    0  501 -0.00000000000E+00  0.00000000000E+00  0.60051058560E+02  0.60051058560E+02  0.00000000000E+00 0.  1.
          2   -1    0    0  501    0  0.00000000000E+00 -0.00000000000E+00 -0.18783681599E+04  0.18783681599E+04  0.00000000000E+00 0. -1.
         23    2    1    2    0    0  0.24803432353E+03  0.13557559255E+03 -0.14155106172E+04  0.14463269196E+04  0.91046603447E+02 0.  0.
         11    1    3    3    0    0  0.19461395430E+03  0.11848816431E+03 -0.92625763185E+03  0.95386961208E+03  0.00000000000E+00 0.  1.
        -11    1    3    3    0    0  0.53420369226E+02  0.17087428243E+02 -0.48925298532E+03  0.49245730748E+03  0.00000000000E+00 0. -1.
         22    1    1    2    0    0 -0.24803432353E+03 -0.13557559255E+03 -0.40280648420E+03  0.49209229892E+03  0.00000000000E+00 0.  1.
<mgrwt>
<rscale>  0 0.67170826E+03</rscale>
<asrwt>0</asrwt>
<pdfrwt beam="1">  1        2 0.28897969E+00 0.67170826E+03</pdfrwt>
<pdfrwt beam="2">  1       -2 0.92386254E-02 0.67170826E+03</pdfrwt>
<totfact> 0.62494262E+02</totfact>
</mgrwt>
</event>
<event>
 6    1  0.2047711E-005  0.1190004E+04  0.7818608E-02  0.9121651E-01
          2   -1    0    0  501    0  0.00000000000E+00  0.00000000000E+00  0.13955091890E+04  0.13955091890E+04  0.00000000000E+00 0. -1.
         -2   -1    0    0    0  501 -0.00000000000E+00 -0.00000000000E+00 -0.25369043773E+03  0.25369043773E+03  0.00000000000E+00 0.  1.
         23    2    1    2    0    0 -0.28216678405E+03  0.84384039713E+02  0.12851707668E+04  0.13216503014E+04  0.91415859611E+02 0.  0.
         11    1    3    3    0    0 -0.18690721942E+03  0.86548217211E+02  0.73615095067E+03  0.76442339364E+03  0.00000000000E+00 0. -1.
        -11    1    3    3    0    0 -0.95259564630E+02 -0.21641774983E+01  0.54901981609E+03  0.55722690780E+03  0.00000000000E+00 0.  1.
         22    1    1    2    0    0  0.28216678405E+03 -0.84384039713E+02 -0.14335201546E+03  0.32754932532E+03  0.00000000000E+00 0.  1.
<mgrwt>
<rscale>  0 0.11900039E+04</rscale>
<asrwt>0</asrwt>
<pdfrwt beam="1">  1        2 0.21469372E+00 0.11900039E+04</pdfrwt>
<pdfrwt beam="2">  1       -2 0.39029299E-01 0.11900039E+04</pdfrwt>
<totfact> 0.89133287E+01</totfact>
</mgrwt>
</event>
<event>
 6    1  0.2047711E-005  0.1680474E+04  0.7818608E-02  0.8772580E-01
         -1   -1    0    0    0  501 -0.00000000000E+00  0.00000000000E+00  0.77915352563E+03  0.77915352563E+03  0.00000000000E+00 0.  1.
          1   -1    0    0  501    0  0.00000000000E+00 -0.00000000000E+00 -0.90610945758E+03  0.90610945758E+03  0.00000000000E+00 0. -1.
         23    2    1    2    0    0 -0.33807239383E+03  0.23593449387E+03  0.66769330507E+03  0.79003930236E+03  0.91595418951E+02 0.  0.
         11    1    3    3    0    0 -0.42874748130E+02  0.38585810610E+02  0.16333282452E+03  0.17321870677E+03  0.00000000000E+00 0.  1.
        -11    1    3    3    0    0 -0.29519764570E+03  0.19734868326E+03  0.50436048055E+03  0.61682059560E+03  0.00000000000E+00 0. -1.
         22    1    1    2    0    0  0.33807239383E+03 -0.23593449387E+03 -0.79464923701E+03  0.89522368085E+03  0.00000000000E+00 0. -1.
<mgrwt>
<rscale>  0 0.16804742E+04</rscale>
<asrwt>0</asrwt>
<pdfrwt beam="1">  1        1 0.13940146E+00 0.16804742E+04</pdfrwt>
<pdfrwt beam="2">  1       -1 0.11986977E+00 0.16804742E+04</pdfrwt>
<totfact> 0.10645098E+01</totfact>
</mgrwt>
</event>
<event>
 6    1  0.2047711E-005  0.2701206E+04  0.7818608E-02  0.8334614E-01
          2   -1    0    0  501    0  0.00000000000E+00  0.00000000000E+00  0.31175352093E+04  0.31175352093E+04  0.00000000000E+00 0. -1.
         -2   -1    0    0    0  501 -0.00000000000E+00 -0.00000000000E+00 -0.58511873733E+03  0.58511873733E+03  0.00000000000E+00 0.  1.
         23    2    1    2    0    0  0.75106993541E+03 -0.51228665730E+03  0.26338667693E+04  0.27878666326E+04  0.91665343985E+02 0.  0.
         11    1    3    3    0    0  0.20723421554E+03 -0.17033572220E+03  0.88404598536E+03  0.92384932894E+03  0.00000000000E+00 0. -1.
        -11    1    3    3    0    0  0.54383571988E+03 -0.34195093511E+03  0.17498207840E+04  0.18640173036E+04  0.00000000000E+00 0.  1.
         22    1    1    2    0    0 -0.75106993541E+03  0.51228665730E+03 -0.10145029736E+03  0.91478731406E+03  0.00000000000E+00 0.  1.
<mgrwt>
<rscale>  0 0.27012059E+04</rscale>
<asrwt>0</asrwt>
<pdfrwt beam="1">  1        2 0.47962079E+00 0.27012059E+04</pdfrwt>
<pdfrwt beam="2">  1       -2 0.90018269E-01 0.27012059E+04</pdfrwt>
<totfact> 0.13584829E+00</totfact>
</mgrwt>
</event>
<event>
 6    1  0.2515467E-005  0.5753513E+04  0.7818608E-02  0.7721737E-01
          2   -1    0    0  501    0  0.00000000000E+00  0.00000000000E+00  0.18176622459E+04  0.18176622459E+04  0.00000000000E+00 0. -1.
         -2   -1    0    0    0  501 -0.00000000000E+00 -0.00000000000E+00 -0.45529520972E+04  0.45529520972E+04  0.00000000000E+00 0.  1.
         23    2    1    2    0    0  0.21230421367E+04  0.17472965237E+04 -0.43418736908E+03  0.27851679706E+04  0.91043377827E+02 0.  0.
         13    1    3    3    0    0  0.95832377993E+03  0.73710433460E+03 -0.21240587144E+03  0.12275274015E+04  0.00000000000E+00 0. -1.
        -13    1    3    3    0    0  0.11647183568E+04  0.10101921891E+04 -0.22178149764E+03  0.15576405690E+04  0.00000000000E+00 0.  1.
         22    1    1    2    0    0 -0.21230421367E+04 -0.17472965237E+04 -0.23011024822E+04  0.35854463725E+04  0.00000000000E+00 0.  1.
<mgrwt>
<rscale>  0 0.57535134E+04</rscale>
<asrwt>0</asrwt>
<pdfrwt beam="1">  1        2 0.27964034E+00 0.57535134E+04</pdfrwt>
<pdfrwt beam="2">  1       -2 0.70045417E+00 0.57535134E+04</pdfrwt>
<totfact> 0.13326491E-03</totfact>
</mgrwt>
</event>
<event>
 6    1  0.2047711E-005  0.2927951E+04  0.7818608E-02  0.8264609E-01
          2   -1    0    0  501    0  0.00000000000E+00  0.00000000000E+00  0.30959797734E+04  0.30959797734E+04  0.00000000000E+00 0. -1.
         -2   -1    0    0    0  501 -0.00000000000E+00 -0.00000000000E+00 -0.69226053603E+03  0.69226053603E+03  0.00000000000E+00 0.  1.
         23    2    1    2    0    0 -0.21460960925E+03 -0.91547775596E+03  0.26523731093E+04  0.28156224225E+04  0.92139616573E+02 0.  0.
         13    1    3    3    0    0 -0.88054838452E+02 -0.38805433690E+03  0.12597697654E+04  0.13211206170E+04  0.00000000000E+00 0.  1.
        -13    1    3    3    0    0 -0.12655477080E+03 -0.52742341907E+03  0.13926033439E+04  0.14945018055E+04  0.00000000000E+00 0. -1.
         22    1    1    2    0    0  0.21460960925E+03  0.91547775596E+03 -0.24865387192E+03  0.97261788698E+03  0.00000000000E+00 0.  1.
<mgrwt>
<rscale>  0 0.29279512E+04</rscale>
<asrwt>0</asrwt>
<pdfrwt beam="1">  1        2 0.47630457E+00 0.29279512E+04</pdfrwt>
<pdfrwt beam="2">  1       -2 0.10650162E+00 0.29279512E+04</pdfrwt>
<totfact> 0.92545785E-01</totfact>
</mgrwt>
</event>
<event>
 6    1  0.2047711E-005  0.1524440E+04  0.7818608E-02  0.8868361E-01
          2   -1    0    0  501    0  0.00000000000E+00  0.00000000000E+00  0.26333294100E+04  0.26333294100E+04  0.00000000000E+00 0. -1.
         -2   -1    0    0    0  501 -0.00000000000E+00 -0.00000000000E+00 -0.22062542543E+03  0.22062542543E+03  0.00000000000E+00 0.  1.
         23    2    1    2    0    0  0.77809113854E+02  0.44935992392E+03  0.23477144663E+04  0.23933006952E+04  0.90257425366E+02 0.  0.
         11    1    3    3    0    0  0.13583726068E+02  0.28544663968E+03  0.15826227149E+04  0.16082160799E+04  0.00000000000E+00 0.  1.
        -11    1    3    3    0    0  0.64225387787E+02  0.16391328424E+03  0.76509175135E+03  0.78508461529E+03  0.00000000000E+00 0. -1.
         22    1    1    2    0    0 -0.77809113854E+02 -0.44935992392E+03  0.64989518250E+02  0.46065414022E+03  0.00000000000E+00 0.  1.
<mgrwt>
<rscale>  0 0.15244401E+04</rscale>
<asrwt>0</asrwt>
<pdfrwt beam="1">  1        2 0.40512758E+00 0.15244401E+04</pdfrwt>
<pdfrwt beam="2">  1       -2 0.33942375E-01 0.15244401E+04</pdfrwt>
<totfact> 0.22869309E+01</totfact>
</mgrwt>
</event>
<event>
 6    1  0.2047711E-005  0.2729901E+04  0.7818608E-02  0.8325368E-01
         -2   -1    0    0    0  501 -0.00000000000E+00  0.00000000000E+00  0.89155945134E+03  0.89155945134E+03  0.00000000000E+00 0.  1.
          2   -1    0    0  501    0  0.00000000000E+00 -0.00000000000E+00 -0.20896979751E+04  0.20896979751E+04  0.00000000000E+00 0. -1.
         23    2    1    2    0    0  0.84854597603E+03 -0.90763919651E+03 -0.12127158207E+04  0.17386586649E+04  0.91733891830E+02 0.  0.
         13    1    3    3    0    0  0.28214164876E+03 -0.36408943618E+03 -0.43139894477E+03  0.63108642598E+03  0.00000000000E+00 0. -1.
        -13    1    3    3    0    0  0.56640432727E+03 -0.54354976033E+03 -0.78131687592E+03  0.11075722390E+04  0.00000000000E+00 0.  1.
         22    1    1    2    0    0 -0.84854597603E+03  0.90763919651E+03  0.14577296938E+02  0.12425987615E+04  0.00000000000E+00 0.  1.
<mgrwt>
<rscale>  0 0.27299011E+04</rscale>
<asrwt>0</asrwt>
<pdfrwt beam="1">  1        2 0.32149199E+00 0.27299011E+04</pdfrwt>
<pdfrwt beam="2">  1       -2 0.13716299E+00 0.27299011E+04</pdfrwt>
<totfact> 0.19736365E+00</totfact>
</mgrwt>
</event>
<event>
 6    1  0.2047711E-005  0.1746749E+04  0.7818608E-02  0.8735142E-01
          2   -1    0    0  501    0  0.00000000000E+00  0.00000000000E+00  0.80259782295E+03  0.80259782295E+03  0.00000000000E+00 0. -1.
         -2   -1    0    0    0  501 -0.00000000000E+00 -0.00000000000E+00 -0.95039229012E+03  0.95039229012E+03  0.00000000000E+00 0.  1.
         23    2    1    2    0    0 -0.14373948301E+02 -0.80916722766E+03  0.24849716865E+03  0.85187676098E+03  0.94789030802E+02 0.  0.
         11    1    3    3    0    0  0.25952482899E+02 -0.45112453224E+03  0.10405772348E+03  0.46369697516E+03  0.00000000000E+00 0.  1.
        -11    1    3    3    0    0 -0.40326431200E+02 -0.35804269542E+03  0.14443944517E+03  0.38817978582E+03  0.00000000000E+00 0. -1.
         22    1    1    2    0    0  0.14373948301E+02  0.80916722766E+03 -0.39629163581E+03  0.90111335210E+03  0.00000000000E+00 0.  1.
<mgrwt>
<rscale>  0 0.17467487E+04</rscale>
<asrwt>0</asrwt>
<pdfrwt beam="1">  1        2 0.12347659E+00 0.17467487E+04</pdfrwt>
<pdfrwt beam="2">  1       -2 0.14621420E+00 0.17467487E+04</pdfrwt>
<totfact> 0.10419925E+01</totfact>
</mgrwt>
</event>
<event>
 6    1  0.2047711E-005  0.2572806E+04  0.7818608E-02  0.8377498E-01
         -2   -1    0    0    0  501 -0.00000000000E+00  0.00000000000E+00  0.22908348523E+04  0.22908348523E+04  0.00000000000E+00 0.  1.
          2   -1    0    0  501    0  0.00000000000E+00 -0.00000000000E+00 -0.72237094064E+03  0.72237094064E+03  0.00000000000E+00 0. -1.
         23    2    1    2    0    0  0.32442763386E+02 -0.11801570735E+04  0.19166628636E+03  0.11995368728E+04  0.91266055934E+02 0.  0.
         11    1    3    3    0    0  0.13118721398E+01 -0.23015614340E+03  0.13692712611E+01  0.23016395517E+03  0.00000000000E+00 0. -1.
        -11    1    3    3    0    0  0.31130891246E+02 -0.95000093005E+03  0.19029701510E+03  0.96937291763E+03  0.00000000000E+00 0.  1.
         22    1    1    2    0    0 -0.32442763386E+02  0.11801570735E+04  0.13767976253E+04  0.18136689202E+04  0.00000000000E+00 0.  1.
<mgrwt>
<rscale>  0 0.25728059E+04</rscale>
<asrwt>0</asrwt>
<pdfrwt beam="1">  1        2 0.11113399E+00 0.25728059E+04</pdfrwt>
<pdfrwt beam="2">  1       -2 0.35243613E+00 0.25728059E+04</pdfrwt>
<totfact> 0.52420359E-01</totfact>
</mgrwt>
</event>
<event>
 6    1  0.2047711E-005  0.4534180E+04  0.7818608E-02  0.7904680E-01
         -2   -1    0    0    0  501 -0.00000000000E+00  0.00000000000E+00  0.21100430894E+04  0.21100430894E+04  0.00000000000E+00 0.  1.
          2   -1    0    0  501    0  0.00000000000E+00 -0.00000000000E+00 -0.24358260550E+04  0.24358260550E+04  0.00000000000E+00 0. -1.
         23    2    1    2    0    0 -0.12028615045E+04 -0.15788761871E+04 -0.12596392636E+04  0.23522845442E+04  0.82617731752E+02 0.  0.
         11    1    3    3    0    0 -0.93750562579E+03 -0.12348138016E+04 -0.10236406422E+04  0.18578272491E+04  0.00000000000E+00 0. -1.
        -11    1    3    3    0    0 -0.26535587866E+03 -0.34406238546E+03 -0.23599862146E+03  0.49445729518E+03  0.00000000000E+00 0.  1.
         22    1    1    2    0    0  0.12028615045E+04  0.15788761871E+04  0.93385629805E+03  0.21935846002E+04  0.00000000000E+00 0.  1.
<mgrwt>
<rscale>  0 0.45341804E+04</rscale>
<asrwt>0</asrwt>
<pdfrwt beam="1">  1        2 0.37474247E+00 0.45341804E+04</pdfrwt>
<pdfrwt beam="2">  1       -2 0.32462201E+00 0.45341804E+04</pdfrwt>
<totfact> 0.64224623E-02</totfact>
</mgrwt>
</event>
<event>
 6    1  0.2047711E-005  0.3375335E+04  0.7818608E-02  0.8143986E-01
         -2   -1    0    0    0  501 -0.00000000000E+00  0.00000000000E+00  0.12309812588E+04  0.12309812588E+04  0.00000000000E+00 0.  1.
          2   -1    0    0  501    0  0.00000000000E+00 -0.00000000000E+00 -0.23137820374E+04  0.23137820374E+04  0.00000000000E+00 0. -1.
         23    2    1    2    0    0  0.60104973589E+03 -0.82009286418E+03  0.87115914659E+03  0.13420893574E+04  0.92046150204E+02 0.  0.
         11    1    3    3    0    0  0.31505506773E+03 -0.35268304299E+03  0.39704646695E+03  0.61748758808E+03  0.00000000000E+00 0. -1.
        -11    1    3    3    0    0  0.28599466816E+03 -0.46740982119E+03  0.47411267963E+03  0.72460176935E+03  0.00000000000E+00 0.  1.
         22    1    1    2    0    0 -0.60104973589E+03  0.82009286418E+03 -0.19539599252E+04  0.22026739387E+04  0.00000000000E+00 0. -1.
<mgrwt>
<rscale>  0 0.33753354E+04</rscale>
<asrwt>0</asrwt>
<pdfrwt beam="1">  1        2 0.35596647E+00 0.33753354E+04</pdfrwt>
<pdfrwt beam="2">  1       -2 0.18938173E+00 0.33753354E+04</pdfrwt>
<totfact> 0.57839241E-01</totfact>
</mgrwt>
</event>
<event>
 6    1  0.2047711E-005  0.3248669E+04  0.7818608E-02  0.8176081E-01
          2   -1    0    0  501    0  0.00000000000E+00  0.00000000000E+00  0.19500957230E+04  0.19500957230E+04  0.00000000000E+00 0. -1.
         -2   -1    0    0    0  501 -0.00000000000E+00 -0.00000000000E+00 -0.13529910688E+04  0.13529910688E+04  0.00000000000E+00 0.  1.
         23    2    1    2    0    0 -0.93627236007E+03  0.12654990362E+04  0.70076463295E+03  0.17254812853E+04  0.90115771743E+02 0.  0.
         11    1    3    3    0    0 -0.70831907286E+03  0.89126203152E+03  0.49608432723E+03  0.12418387889E+04  0.00000000000E+00 0. -1.
        -11    1    3    3    0    0 -0.22795328721E+03  0.37423700466E+03  0.20468030572E+03  0.48364249644E+03  0.00000000000E+00 0.  1.
         22    1    1    2    0    0  0.93627236007E+03 -0.12654990362E+04 -0.10365997880E+03  0.15776055065E+04  0.00000000000E+00 0.  1.
<mgrwt>
<rscale>  0 0.32486687E+04</rscale>
<asrwt>0</asrwt>
<pdfrwt beam="1">  1        2 0.30001473E+00 0.32486687E+04</pdfrwt>
<pdfrwt beam="2">  1       -2 0.20815247E+00 0.32486687E+04</pdfrwt>
<totfact> 0.70308166E-01</totfact>
</mgrwt>
</event>
<event>
 6    1  0.2047711E-005  0.1969618E+04  0.7818608E-02  0.8620958E-01
          2   -1    0    0  501    0  0.00000000000E+00  0.00000000000E+00  0.56004042598E+03  0.56004042598E+03  0.00000000000E+00 0. -1.
         -2   -1    0    0    0  501 -0.00000000000E+00 -0.00000000000E+00 -0.17317486091E+04  0.17317486091E+04  0.00000000000E+00 0.  1.
         23    2    1    2    0    0 -0.18286961068E+03  0.69088732481E+03 -0.13718365305E+04  0.15496179324E+04  0.92809913347E+02 0.  0.
         11    1    3    3    0    0 -0.14827329383E+03  0.43204333637E+03 -0.93656037139E+03  0.10420133125E+04  0.00000000000E+00 0.  1.
        -11    1    3    3    0    0 -0.34596316841E+02  0.25884398844E+03 -0.43527615912E+03  0.50760461994E+03  0.00000000000E+00 0. -1.
         22    1    1    2    0    0  0.18286961068E+03 -0.69088732481E+03  0.20012834743E+03  0.74217110260E+03  0.00000000000E+00 0. -1.
<mgrwt>
<rscale>  0 0.19696185E+04</rscale>
<asrwt>0</asrwt>
<pdfrwt beam="1">  1        2 0.86160067E-01 0.19696185E+04</pdfrwt>
<pdfrwt beam="2">  1       -2 0.26642286E+00 0.19696185E+04</pdfrwt>
<totfact> 0.25581008E+00</totfact>
</mgrwt>
</event>
<event>
 6    1  0.2047711E-005  0.2145865E+04  0.7818608E-02  0.8541304E-01
          2   -1    0    0  501    0  0.00000000000E+00  0.00000000000E+00  0.18930013683E+04  0.18930013683E+04  0.00000000000E+00 0. -1.
         -2   -1    0    0    0  501 -0.00000000000E+00 -0.00000000000E+00 -0.60812642199E+03  0.60812642199E+03  0.00000000000E+00 0.  1.
         23    2    1    2    0    0  0.51274297095E+03  0.52521741123E+03 -0.26559059335E+03  0.78569721081E+03  0.89571538382E+02 0.  0.
         11    1    3    3    0    0  0.25277491511E+03  0.32182195528E+03 -0.13934688969E+03  0.43229860545E+03  0.00000000000E+00 0. -1.
        -11    1    3    3    0    0  0.25996805584E+03  0.20339545595E+03 -0.12624370365E+03  0.35339860536E+03  0.00000000000E+00 0.  1.
         22    1    1    2    0    0 -0.51274297095E+03 -0.52521741123E+03  0.15504655396E+04  0.17154305795E+04  0.00000000000E+00 0. -1.
<mgrwt>
<rscale>  0 0.21458650E+04</rscale>
<asrwt>0</asrwt>
<pdfrwt beam="1">  1        2 0.29123098E+00 0.21458650E+04</pdfrwt>
<pdfrwt beam="2">  1       -2 0.93557912E-01 0.21458650E+04</pdfrwt>
<totfact> 0.67940109E+00</totfact>
</mgrwt>
</event>
<event>
 6    1  0.2047711E-005  0.2392930E+04  0.7818608E-02  0.8442155E-01
          2   -1    0    0  501    0  0.00000000000E+00  0.00000000000E+00  0.31634570092E+04  0.31634570092E+04  0.00000000000E+00 0. -1.
         -2   -1    0    0    0  501 -0.00000000000E+00 -0.00000000000E+00 -0.45252010528E+03  0.45252010528E+03  0.00000000000E+00 0.  1.
         23    2    1    2    0    0 -0.92600715911E+03  0.54438449468E+03  0.21475638947E+04  0.24030332229E+04  0.93242969863E+02 0.  0.
         11    1    3    3    0    0 -0.56901163602E+03  0.28322723568E+03  0.12933848294E+04  0.14411232515E+04  0.00000000000E+00 0. -1.
        -11    1    3    3    0    0 -0.35699552310E+03  0.26115725900E+03  0.85417906530E+03  0.96190997138E+03  0.00000000000E+00 0.  1.
         22    1    1    2    0    0  0.92600715911E+03 -0.54438449468E+03  0.56337300921E+03  0.12129438916E+04  0.00000000000E+00 0.  1.
<mgrwt>
<rscale>  0 0.23929295E+04</rscale>
<asrwt>0</asrwt>
<pdfrwt beam="1">  1        2 0.48668568E+00 0.23929295E+04</pdfrwt>
<pdfrwt beam="2">  1       -2 0.69618480E-01 0.23929295E+04</pdfrwt>
<totfact> 0.23205177E+00</totfact>
</mgrwt>
</event>
<event>
 6    1  0.2047711E-005  0.6899268E+03  0.7818608E-02  0.9734615E-01
          2   -1    0    0  501    0  0.00000000000E+00  0.00000000000E+00  0.15184753716E+04  0.15184753716E+04  0.00000000000E+00 0. -1.
         -2   -1    0    0    0  501 -0.00000000000E+00 -0.00000000000E+00 -0.78367924625E+02  0.78367924625E+02  0.00000000000E+00 0.  1.
         23    2    1    2    0    0  0.70678154571E+02 -0.28300903467E+03  0.33431340199E+03  0.45322186185E+03  0.92493729907E+02 0.  0.
         13    1    3    3    0    0  0.80059418795E+02 -0.13393537043E+03  0.18504911289E+03  0.24205653920E+03  0.00000000000E+00 0. -1.
        -13    1    3    3    0    0 -0.93812642245E+01 -0.14907366424E+03  0.14926428910E+03  0.21116532264E+03  0.00000000000E+00 0.  1.
         22    1    1    2    0    0 -0.70678154571E+02  0.28300903467E+03  0.11057940450E+04  0.11436214344E+04  0.00000000000E+00 0. -1.
<mgrwt>
<rscale>  0 0.68992685E+03</rscale>
<asrwt>0</asrwt>
<pdfrwt beam="1">  1        2 0.23361157E+00 0.68992685E+03</pdfrwt>
<pdfrwt beam="2">  1       -2 0.12056605E-01 0.68992685E+03</pdfrwt>
<totfact> 0.63568936E+02</totfact>
</mgrwt>
</event>
<event>
 6    1  0.2047711E-005  0.2840653E+04  0.7818608E-02  0.8290757E-01
          2   -1    0    0  501    0  0.00000000000E+00  0.00000000000E+00  0.32257287429E+04  0.32257287429E+04  0.00000000000E+00 0. -1.
         -2   -1    0    0    0  501 -0.00000000000E+00 -0.00000000000E+00 -0.62538669212E+03  0.62538669212E+03  0.00000000000E+00 0.  1.
         23    2    1    2    0    0  0.61649043811E+03  0.11931063175E+04  0.68075249411E+03  0.15083847182E+04  0.90759874079E+02 0.  0.
         11    1    3    3    0    0  0.55322681592E+03  0.10665792022E+04  0.63909777327E+03  0.13609177301E+04  0.00000000000E+00 0.  1.
        -11    1    3    3    0    0  0.63263622194E+02  0.12652711539E+03  0.41654720844E+02  0.14746698813E+03  0.00000000000E+00 0. -1.
         22    1    1    2    0    0 -0.61649043811E+03 -0.11931063175E+04  0.19195895566E+04  0.23427307167E+04  0.00000000000E+00 0. -1.
<mgrwt>
<rscale>  0 0.28406533E+04</rscale>
<asrwt>0</asrwt>
<pdfrwt beam="1">  1        2 0.49626595E+00 0.28406533E+04</pdfrwt>
<pdfrwt beam="2">  1       -2 0.96213339E-01 0.28406533E+04</pdfrwt>
<totfact> 0.97830695E-01</totfact>
</mgrwt>
</event>
<event>
 6    1  0.2047711E-005  0.5735479E+04  0.7818608E-02  0.7724093E-01
         -2   -1    0    0    0  501 -0.00000000000E+00  0.00000000000E+00  0.26000506956E+04  0.26000506956E+04  0.00000000000E+00 0. -1.
          2   -1    0    0  501    0  0.00000000000E+00 -0.00000000000E+00 -0.31629885894E+04  0.31629885894E+04  0.00000000000E+00 0.  1.
         23    2    1    2    0    0 -0.32457031453E+03  0.28404434790E+04 -0.65539793066E+02  0.28611657665E+04  0.92244417545E+02 0.  0.
         11    1    3    3    0    0 -0.23999784951E+03  0.22715124845E+04 -0.83813006707E+02  0.22856930142E+04  0.00000000000E+00 0. -1.
        -11    1    3    3    0    0 -0.84572465014E+02  0.56893099447E+03  0.18273213641E+02  0.57547275230E+03  0.00000000000E+00 0.  1.
         22    1    1    2    0    0  0.32457031453E+03 -0.28404434790E+04 -0.49739810077E+03  0.29018735185E+04  0.00000000000E+00 0.  1.
<mgrwt>
<rscale>  0 0.57354793E+04</rscale>
<asrwt>0</asrwt>
<pdfrwt beam="1">  1        2 0.48661363E+00 0.57354793E+04</pdfrwt>
<pdfrwt beam="2">  1       -2 0.40000780E+00 0.57354793E+04</pdfrwt>
<totfact> 0.69906845E-03</totfact>
</mgrwt>
</event>
<event>
 6    1  0.2047711E-005  0.1716139E+04  0.7818608E-02  0.8752213E-01
          2   -1    0    0  501    0  0.00000000000E+00  0.00000000000E+00  0.92097039987E+03  0.92097039987E+03  0.00000000000E+00 0. -1.
         -2   -1    0    0    0  501 -0.00000000000E+00 -0.00000000000E+00 -0.79946433673E+03  0.79946433673E+03  0.00000000000E+00 0.  1.
         23    2    1    2    0    0  0.15924434601E+03  0.18942228459E+01 -0.78191780923E+03  0.80308145514E+03  0.90454482370E+02 0.  0.
         11    1    3    3    0    0  0.16927926226E+03  0.66433873632E+01 -0.68985642105E+03  0.71035307058E+03  0.00000000000E+00 0.  1.
        -11    1    3    3    0    0 -0.10034916257E+02 -0.47491645173E+01 -0.92061388185E+02  0.92728384556E+02  0.00000000000E+00 0. -1.
         22    1    1    2    0    0 -0.15924434601E+03 -0.18942228459E+01  0.90342387237E+03  0.91735328145E+03  0.00000000000E+00 0. -1.
<mgrwt>
<rscale>  0 0.17161387E+04</rscale>
<asrwt>0</asrwt>
<pdfrwt beam="1">  1        2 0.14168775E+00 0.17161387E+04</pdfrwt>
<pdfrwt beam="2">  1       -2 0.12299451E+00 0.17161387E+04</pdfrwt>
<totfact> 0.13468605E+01</totfact>
</mgrwt>
</event>
<event>
 6    1  0.2047711E-005  0.9387321E+03  0.7818608E-02  0.9378419E-01
          2   -1    0    0  501    0  0.00000000000E+00  0.00000000000E+00  0.17118423257E+04  0.17118423257E+04  0.00000000000E+00 0. -1.
         -2   -1    0    0    0  501 -0.00000000000E+00 -0.00000000000E+00 -0.12869438221E+03  0.12869438221E+03  0.00000000000E+00 0.  1.
         23    2    1    2    0    0  0.13892176917E+03  0.30974826045E+03  0.17720890663E+03  0.39419379624E+03  0.93501388220E+02 0.  0.
         13    1    3    3    0    0  0.61142562783E+02  0.21951643721E+03  0.83731238033E+02  0.24276902482E+03  0.00000000000E+00 0.  1.
        -13    1    3    3    0    0  0.77779206388E+02  0.90231823242E+02  0.93477668601E+02  0.15142477142E+03  0.00000000000E+00 0. -1.
         22    1    1    2    0    0 -0.13892176917E+03 -0.30974826045E+03  0.14059390369E+04  0.14463429117E+04  0.00000000000E+00 0. -1.
<mgrwt>
<rscale>  0 0.93873210E+03</rscale>
<asrwt>0</asrwt>
<pdfrwt beam="1">  1        2 0.26336034E+00 0.93873210E+03</pdfrwt>
<pdfrwt beam="2">  1       -2 0.19799137E-01 0.93873210E+03</pdfrwt>
<totfact> 0.21070612E+02</totfact>
</mgrwt>
</event>
<event>
 6    1  0.2047711E-005  0.2653886E+04  0.7818608E-02  0.8350124E-01
          2   -1    0    0  501    0  0.00000000000E+00  0.00000000000E+00  0.17944873972E+04  0.17944873972E+04  0.00000000000E+00 0. -1.
         -2   -1    0    0    0  501 -0.00000000000E+00 -0.00000000000E+00 -0.98121514523E+03  0.98121514523E+03  0.00000000000E+00 0.  1.
         23    2    1    2    0    0  0.76761175083E+03  0.35492975062E+03  0.14744180127E+04  0.17022424152E+04  0.92292123600E+02 0.  0.
         11    1    3    3    0    0  0.44143229139E+03  0.25370460428E+03  0.87363119284E+03  0.10111676197E+04  0.00000000000E+00 0. -1.
        -11    1    3    3    0    0  0.32617945944E+03  0.10122514634E+03  0.60078681982E+03  0.69107479543E+03  0.00000000000E+00 0.  1.
         22    1    1    2    0    0 -0.76761175083E+03 -0.35492975062E+03 -0.66114576070E+03  0.10734601272E+04  0.00000000000E+00 0.  1.
<mgrwt>
<rscale>  0 0.26538864E+04</rscale>
<asrwt>0</asrwt>
<pdfrwt beam="1">  1        2 0.27607498E+00 0.26538864E+04</pdfrwt>
<pdfrwt beam="2">  1       -2 0.15095618E+00 0.26538864E+04</pdfrwt>
<totfact> 0.22547840E+00</totfact>
</mgrwt>
</event>
<event>
 6    1  0.2047711E-005  0.9588162E+03  0.7818608E-02  0.9354905E-01
         -2   -1    0    0    0  501 -0.00000000000E+00  0.00000000000E+00  0.25111752081E+03  0.25111752081E+03  0.00000000000E+00 0.  1.
          2   -1    0    0  501    0  0.00000000000E+00 -0.00000000000E+00 -0.91523729011E+03  0.91523729011E+03  0.00000000000E+00 0. -1.
         23    2    1    2    0    0 -0.37430229809E+03 -0.37870285335E+02 -0.68782939511E+03  0.78939524383E+03  0.92191134785E+02 0.  0.
         11    1    3    3    0    0 -0.19772752136E+03 -0.18040702569E+02 -0.45562841065E+03  0.49700994783E+03  0.00000000000E+00 0.  1.
        -11    1    3    3    0    0 -0.17657477673E+03 -0.19829582766E+02 -0.23220098446E+03  0.29238529600E+03  0.00000000000E+00 0. -1.
         22    1    1    2    0    0  0.37430229809E+03  0.37870285335E+02  0.23709625804E+02  0.37695956709E+03  0.00000000000E+00 0.  1.
<mgrwt>
<rscale>  0 0.95881619E+03</rscale>
<asrwt>0</asrwt>
<pdfrwt beam="1">  1        2 0.14080573E+00 0.95881619E+03</pdfrwt>
<pdfrwt beam="2">  1       -2 0.38633466E-01 0.95881619E+03</pdfrwt>
<totfact> 0.18116138E+02</totfact>
</mgrwt>
</event>
<event>
 6    1  0.2047711E-005  0.2414109E+04  0.7818608E-02  0.8434240E-01
         -2   -1    0    0    0  501 -0.00000000000E+00  0.00000000000E+00  0.16095079979E+04  0.16095079979E+04  0.00000000000E+00 0.  1.
          2   -1    0    0  501    0  0.00000000000E+00 -0.00000000000E+00 -0.90523326520E+03  0.90523326520E+03  0.00000000000E+00 0. -1.
         23    2    1    2    0    0 -0.45608507582E+02 -0.72967794460E+03 -0.64540278163E+03  0.97976913583E+03  0.94301485616E+02 0.  0.
         11    1    3    3    0    0  0.14979826149E+02 -0.47952060841E+03 -0.42292355187E+03  0.63955354726E+03  0.00000000000E+00 0. -1.
        -11    1    3    3    0    0 -0.60588333731E+02 -0.25015733619E+03 -0.22247922976E+03  0.34021558857E+03  0.00000000000E+00 0.  1.
         22    1    1    2    0    0  0.45608507582E+02  0.72967794460E+03  0.13496775144E+04  0.15349721273E+04  0.00000000000E+00 0.  1.
<mgrwt>
<rscale>  0 0.24141087E+04</rscale>
<asrwt>0</asrwt>
<pdfrwt beam="1">  1        2 0.13926666E+00 0.24141087E+04</pdfrwt>
<pdfrwt beam="2">  1       -2 0.24761661E+00 0.24141087E+04</pdfrwt>
<totfact> 0.17361255E+00</totfact>
</mgrwt>
</event>
<event>
 6    1  0.2047711E-005  0.2126155E+04  0.7818608E-02  0.8549809E-01
         -1   -1    0    0    0  501 -0.00000000000E+00  0.00000000000E+00  0.97584924155E+03  0.97584924155E+03  0.00000000000E+00 0.  1.
          1   -1    0    0  501    0  0.00000000000E+00 -0.00000000000E+00 -0.11581031140E+04  0.11581031140E+04  0.00000000000E+00 0. -1.
         23    2    1    2    0    0  0.84232174007E+03  0.57783671854E+03  0.19675243208E+03  0.10444355058E+04  0.93449553920E+02 0.  0.
         13    1    3    3    0    0  0.72033137965E+03  0.48046468412E+03  0.13384707807E+03  0.87614990127E+03  0.00000000000E+00 0. -1.
        -13    1    3    3    0    0  0.12199036042E+03  0.97372034422E+02  0.62905354008E+02  0.16828560451E+03  0.00000000000E+00 0.  1.
         22    1    1    2    0    0 -0.84232174007E+03 -0.57783671854E+03 -0.37900630455E+03  0.10895168498E+04  0.00000000000E+00 0. -1.
<mgrwt>
<rscale>  0 0.21261553E+04</rscale>
<asrwt>0</asrwt>
<pdfrwt beam="1">  1        1 0.17816971E+00 0.21261553E+04</pdfrwt>
<pdfrwt beam="2">  1       -1 0.15013065E+00 0.21261553E+04</pdfrwt>
<totfact> 0.36645878E+00</totfact>
</mgrwt>
</event>
<event>
 6    1  0.2047711E-005  0.2402863E+04  0.7818608E-02  0.8438432E-01
          2   -1    0    0  501    0  0.00000000000E+00  0.00000000000E+00  0.19035465870E+04  0.19035465870E+04  0.00000000000E+00 0. -1.
         -2   -1    0    0    0  501 -0.00000000000E+00 -0.00000000000E+00 -0.75828867741E+03  0.75828867741E+03  0.00000000000E+00 0.  1.
         23    2    1    2    0    0  0.89139755531E+03 -0.40885442407E+03  0.13381941409E+04  0.16623474300E+04  0.10432582485E+03 0.  0.
         13    1    3    3    0    0  0.48099328929E+03 -0.17033600894E+03  0.73547175373E+03  0.89514669234E+03  0.00000000000E+00 0. -1.
        -13    1    3    3    0    0  0.41040426602E+03 -0.23851841513E+03  0.60272238716E+03  0.76720073769E+03  0.00000000000E+00 0.  1.
         22    1    1    2    0    0 -0.89139755531E+03  0.40885442407E+03 -0.19293623131E+03  0.99948783437E+03  0.00000000000E+00 0.  1.
<mgrwt>
<rscale>  0 0.24028631E+04</rscale>
<asrwt>0</asrwt>
<pdfrwt beam="1">  1        2 0.29285332E+00 0.24028631E+04</pdfrwt>
<pdfrwt beam="2">  1       -2 0.11665980E+00 0.24028631E+04</pdfrwt>
<totfact> 0.38691499E+00</totfact>
</mgrwt>
</event>
<event>
 6    1  0.2047711E-005  0.1030806E+04  0.7818608E-02  0.9275388E-01
         -2   -1    0    0    0  501 -0.00000000000E+00  0.00000000000E+00  0.13466178498E+03  0.13466178498E+03  0.00000000000E+00 0.  1.
          2   -1    0    0  501    0  0.00000000000E+00 -0.00000000000E+00 -0.19726462605E+04  0.19726462605E+04  0.00000000000E+00 0. -1.
         23    2    1    2    0    0  0.13331663537E+03  0.26038838521E+03 -0.17836731172E+04  0.18097762655E+04  0.90691267315E+02 0.  0.
         13    1    3    3    0    0  0.17263884518E+02  0.69797193842E+02 -0.25650005635E+03  0.26638687821E+03  0.00000000000E+00 0.  1.
        -13    1    3    3    0    0  0.11605275085E+03  0.19059119137E+03 -0.15271730608E+04  0.15433893873E+04  0.00000000000E+00 0. -1.
         22    1    1    2    0    0 -0.13331663537E+03 -0.26038838521E+03 -0.54311358328E+02  0.29753177992E+03  0.00000000000E+00 0.  1.
<mgrwt>
<rscale>  0 0.10308056E+04</rscale>
<asrwt>0</asrwt>
<pdfrwt beam="1">  1        2 0.30348406E+00 0.10308056E+04</pdfrwt>
<pdfrwt beam="2">  1       -2 0.20717196E-01 0.10308056E+04</pdfrwt>
<totfact> 0.13893191E+02</totfact>
</mgrwt>
</event>
<event>
 6    1  0.2047711E-005  0.2759704E+04  0.7818608E-02  0.8315889E-01
          2   -1    0    0  501    0  0.00000000000E+00  0.00000000000E+00  0.23015412919E+04  0.23015412919E+04  0.00000000000E+00 0. -1.
         -2   -1    0    0    0  501 -0.00000000000E+00 -0.00000000000E+00 -0.82726804635E+03  0.82726804635E+03  0.00000000000E+00 0.  1.
         23    2    1    2    0    0  0.10278297114E+04 -0.91140185751E+03  0.61623060266E+03  0.15091413357E+04  0.10334483072E+03 0.  0.
         13    1    3    3    0    0  0.62643874644E+03 -0.62116205746E+03  0.38744951450E+03  0.96352733794E+03  0.00000000000E+00 0. -1.
        -13    1    3    3    0    0  0.40139096494E+03 -0.29023980005E+03  0.22878108816E+03  0.54561399777E+03  0.00000000000E+00 0.  1.
         22    1    1    2    0    0 -0.10278297114E+04  0.91140185751E+03  0.85804264294E+03  0.16196680026E+04  0.00000000000E+00 0. -1.
<mgrwt>
<rscale>  0 0.27597040E+04</rscale>
<asrwt>0</asrwt>
<pdfrwt beam="1">  1        2 0.35408327E+00 0.27597040E+04</pdfrwt>
<pdfrwt beam="2">  1       -2 0.12727201E+00 0.27597040E+04</pdfrwt>
<totfact> 0.18097678E+00</totfact>
</mgrwt>
</event>
<event>
 6    1  0.2047711E-005  0.2301624E+04  0.7818608E-02  0.8477281E-01
         -2   -1    0    0    0  501 -0.00000000000E+00  0.00000000000E+00  0.53428572310E+03  0.53428572310E+03  0.00000000000E+00 0. -1.
          2   -1    0    0  501    0  0.00000000000E+00 -0.00000000000E+00 -0.24787636521E+04  0.24787636521E+04  0.00000000000E+00 0.  1.
         23    2    1    2    0    0 -0.10572890542E+04  0.18786248550E+03 -0.15087781064E+04  0.18541763049E+04  0.91683900709E+02 0.  0.
         13    1    3    3    0    0 -0.66015524329E+03  0.85532760275E+02 -0.98748060560E+03  0.11908982932E+04  0.00000000000E+00 0. -1.
        -13    1    3    3    0    0 -0.39713381094E+03  0.10232972523E+03 -0.52129750077E+03  0.66327801167E+03  0.00000000000E+00 0.  1.
         22    1    1    2    0    0  0.10572890542E+04 -0.18786248550E+03 -0.43569982260E+03  0.11588730703E+04  0.00000000000E+00 0. -1.
<mgrwt>
<rscale>  0 0.23016238E+04</rscale>
<asrwt>0</asrwt>
<pdfrwt beam="1">  1        2 0.38134826E+00 0.23016238E+04</pdfrwt>
<pdfrwt beam="2">  1       -2 0.82197803E-01 0.23016238E+04</pdfrwt>
<totfact> 0.42207984E+00</totfact>
</mgrwt>
</event>
<event>
 6    1  0.2047711E-005  0.2558425E+04  0.7818608E-02  0.8382462E-01
         -2   -1    0    0    0  501 -0.00000000000E+00  0.00000000000E+00  0.82673969177E+03  0.82673969177E+03  0.00000000000E+00 0.  1.
          2   -1    0    0  501    0  0.00000000000E+00 -0.00000000000E+00 -0.19793219114E+04  0.19793219114E+04  0.00000000000E+00 0. -1.
         23    2    1    2    0    0  0.64972454602E+03  0.85192326878E+03 -0.13402737542E+04  0.17183376705E+04  0.91844280374E+02 0.  0.
         11    1    3    3    0    0  0.61318099609E+02  0.12428413804E+03 -0.14927697617E+03  0.20369111891E+03  0.00000000000E+00 0.  1.
        -11    1    3    3    0    0  0.58840644641E+03  0.72763913075E+03 -0.11909967781E+04  0.15146465515E+04  0.00000000000E+00 0. -1.
         22    1    1    2    0    0 -0.64972454602E+03 -0.85192326878E+03  0.18769153461E+03  0.10877239327E+04  0.00000000000E+00 0.  1.
<mgrwt>
<rscale>  0 0.25584245E+04</rscale>
<asrwt>0</asrwt>
<pdfrwt beam="1">  1        2 0.30451106E+00 0.25584245E+04</pdfrwt>
<pdfrwt beam="2">  1       -2 0.12719072E+00 0.25584245E+04</pdfrwt>
<totfact> 0.27949306E+00</totfact>
</mgrwt>
</event>
<event>
 6    1  0.2047711E-005  0.8877986E+03  0.7818608E-02  0.9440964E-01
          2   -1    0    0  501    0  0.00000000000E+00  0.00000000000E+00  0.83952712730E+03  0.83952712730E+03  0.00000000000E+00 0.  1.
         -2   -1    0    0    0  501 -0.00000000000E+00 -0.00000000000E+00 -0.23471138405E+03  0.23471138405E+03  0.00000000000E+00 0. -1.
         23    2    1    2    0    0 -0.94105428763E+02  0.28690989383E+03  0.69151070757E+03  0.76009024105E+03  0.91525936006E+02 0.  0.
         11    1    3    3    0    0 -0.66672443353E+02  0.69622127302E+02  0.22049237311E+03  0.24064359936E+03  0.00000000000E+00 0. -1.
        -11    1    3    3    0    0 -0.27432985410E+02  0.21728776653E+03  0.47101833446E+03  0.51944664169E+03  0.00000000000E+00 0.  1.
         22    1    1    2    0    0  0.94105428763E+02 -0.28690989383E+03 -0.86694964316E+02  0.31414827031E+03  0.00000000000E+00 0. -1.
<mgrwt>
<rscale>  0 0.88779857E+03</rscale>
<asrwt>0</asrwt>
<pdfrwt beam="1">  1        2 0.12915802E+00 0.88779857E+03</pdfrwt>
<pdfrwt beam="2">  1       -2 0.36109444E-01 0.88779857E+03</pdfrwt>
<totfact> 0.23343343E+02</totfact>
</mgrwt>
</event>
<event>
 6    1  0.2047711E-005  0.3797669E+04  0.7818608E-02  0.8046655E-01
          2   -1    0    0  501    0  0.00000000000E+00  0.00000000000E+00  0.25584258129E+04  0.25584258129E+04  0.00000000000E+00 0. -1.
         -2   -1    0    0    0  501 -0.00000000000E+00 -0.00000000000E+00 -0.14092930264E+04  0.14092930264E+04  0.00000000000E+00 0.  1.
         23    2    1    2    0    0  0.16894647504E+04  0.17268050716E+03 -0.30988052349E+03  0.17287839275E+04  0.92510694635E+02 0.  0.
         11    1    3    3    0    0  0.44015113684E+03  0.11757731924E+02 -0.10415840107E+03  0.45246020823E+03  0.00000000000E+00 0. -1.
        -11    1    3    3    0    0  0.12493136136E+04  0.16092277524E+03 -0.20572212242E+03  0.12763237193E+04  0.00000000000E+00 0.  1.
         22    1    1    2    0    0 -0.16894647504E+04 -0.17268050716E+03  0.14590133099E+04  0.22389349118E+04  0.00000000000E+00 0. -1.
<mgrwt>
<rscale>  0 0.37976686E+04</rscale>
<asrwt>0</asrwt>
<pdfrwt beam="1">  1        2 0.39360397E+00 0.37976686E+04</pdfrwt>
<pdfrwt beam="2">  1       -2 0.21681431E+00 0.37976686E+04</pdfrwt>
<totfact> 0.26728968E-01</totfact>
</mgrwt>
</event>
<event>
 6    1  0.2047711E-005  0.3907755E+04  0.7818608E-02  0.8023418E-01
          2   -1    0    0  501    0  0.00000000000E+00  0.00000000000E+00  0.37247002456E+04  0.37247002456E+04  0.00000000000E+00 0. -1.
         -2   -1    0    0    0  501 -0.00000000000E+00 -0.00000000000E+00 -0.10249517630E+04  0.10249517630E+04  0.00000000000E+00 0.  1.
         23    2    1    2    0    0  0.61325959937E+03  0.52458087003E+03 -0.81156750125E+03  0.11467903177E+04  0.72206636547E+02 0.  0.
         13    1    3    3    0    0  0.50762660937E+03  0.43524740376E+03 -0.70894541687E+03  0.97454024089E+03  0.00000000000E+00 0. -1.
        -13    1    3    3    0    0  0.10563299000E+03  0.89333466268E+02 -0.10262208439E+03  0.17225007685E+03  0.00000000000E+00 0.  1.
         22    1    1    2    0    0 -0.61325959937E+03 -0.52458087003E+03  0.35113159838E+04  0.36028616909E+04  0.00000000000E+00 0. -1.
<mgrwt>
<rscale>  0 0.39077554E+04</rscale>
<asrwt>0</asrwt>
<pdfrwt beam="1">  1        2 0.57303080E+00 0.39077554E+04</pdfrwt>
<pdfrwt beam="2">  1       -2 0.15768489E+00 0.39077554E+04</pdfrwt>
<totfact> 0.11626152E-01</totfact>
</mgrwt>
</event>
<event>
 6    1  0.2047711E-005  0.4637527E+04  0.7818608E-02  0.7886993E-01
          2   -1    0    0  501    0  0.00000000000E+00  0.00000000000E+00  0.29685142520E+04  0.29685142520E+04  0.00000000000E+00 0. -1.
         -2   -1    0    0    0  501 -0.00000000000E+00 -0.00000000000E+00 -0.18112305937E+04  0.18112305937E+04  0.00000000000E+00 0.  1.
         23    2    1    2    0    0 -0.20953999398E+04 -0.92589168804E+03  0.21498947670E+03  0.23026710377E+04  0.89983926656E+02 0.  0.
         13    1    3    3    0    0 -0.12741146815E+04 -0.52825818143E+03  0.98728368367E+02  0.13828131539E+04  0.00000000000E+00 0.  1.
        -13    1    3    3    0    0 -0.82128525824E+03 -0.39763350661E+03  0.11626110833E+03  0.91985788374E+03  0.00000000000E+00 0. -1.
         22    1    1    2    0    0  0.20953999398E+04  0.92589168804E+03  0.94229418160E+03  0.24770738080E+04  0.00000000000E+00 0. -1.
<mgrwt>
<rscale>  0 0.46375269E+04</rscale>
<asrwt>0</asrwt>
<pdfrwt beam="1">  1        2 0.45669450E+00 0.46375269E+04</pdfrwt>
<pdfrwt beam="2">  1       -2 0.27865086E+00 0.46375269E+04</pdfrwt>
<totfact> 0.58566806E-02</totfact>
</mgrwt>
</event>
<event>
 6    1  0.2047711E-005  0.1397958E+04  0.7818608E-02  0.8955298E-01
         -2   -1    0    0    0  501 -0.00000000000E+00  0.00000000000E+00  0.55747799388E+03  0.55747799388E+03  0.00000000000E+00 0.  1.
          2   -1    0    0  501    0  0.00000000000E+00 -0.00000000000E+00 -0.87639583329E+03  0.87639583329E+03  0.00000000000E+00 0. -1.
         23    2    1    2    0    0  0.26075600565E+03 -0.64096601645E+03 -0.23589466576E+03  0.73693482260E+03  0.92711977148E+02 0.  0.
         11    1    3    3    0    0  0.20063292954E+03 -0.53732081463E+03 -0.22679591430E+03  0.61676869002E+03  0.00000000000E+00 0.  1.
        -11    1    3    3    0    0  0.60123076112E+02 -0.10364520182E+03 -0.90987514604E+01  0.12016613258E+03  0.00000000000E+00 0. -1.
         22    1    1    2    0    0 -0.26075600565E+03  0.64096601645E+03 -0.83023173645E+02  0.69693900457E+03  0.00000000000E+00 0.  1.
<mgrwt>
<rscale>  0 0.13979576E+04</rscale>
<asrwt>0</asrwt>
<pdfrwt beam="1">  1        2 0.13483013E+00 0.13979576E+04</pdfrwt>
<pdfrwt beam="2">  1       -2 0.85765845E-01 0.13979576E+04</pdfrwt>
<totfact> 0.34979698E+01</totfact>
</mgrwt>
</event>
<event>
 6    1  0.2047711E-005  0.3198199E+04  0.7818608E-02  0.8189293E-01
         -2   -1    0    0    0  501 -0.00000000000E+00  0.00000000000E+00  0.10673781604E+04  0.10673781604E+04  0.00000000000E+00 0. -1.
          2   -1    0    0  501    0  0.00000000000E+00 -0.00000000000E+00 -0.23957013726E+04  0.23957013726E+04  0.00000000000E+00 0.  1.
         23    2    1    2    0    0  0.22562398885E+03  0.53304469736E+03 -0.22773495991E+04  0.23514618304E+04  0.89491395000E+02 0.  0.
         13    1    3    3    0    0 -0.53808477183E+01  0.29880629874E+02 -0.84210489849E+02  0.89516546875E+02  0.00000000000E+00 0.  1.
        -13    1    3    3    0    0  0.23100483657E+03  0.50316406749E+03 -0.21931391092E+04  0.22619452835E+04  0.00000000000E+00 0. -1.
         22    1    1    2    0    0 -0.22562398885E+03 -0.53304469736E+03  0.94902638691E+03  0.11116177026E+04  0.00000000000E+00 0. -1.
<mgrwt>
<rscale>  0 0.31981991E+04</rscale>
<asrwt>0</asrwt>
<pdfrwt beam="1">  1        2 0.36856944E+00 0.31981991E+04</pdfrwt>
<pdfrwt beam="2">  1       -2 0.16421203E+00 0.31981991E+04</pdfrwt>
<totfact> 0.78981283E-01</totfact>
</mgrwt>
</event>
<event>
 6    1  0.2047711E-005  0.6516599E+03  0.7818608E-02  0.9803670E-01
          2   -1    0    0  501    0  0.00000000000E+00  0.00000000000E+00  0.61094562264E+03  0.61094562264E+03  0.00000000000E+00 0. -1.
         -2   -1    0    0    0  501 -0.00000000000E+00 -0.00000000000E+00 -0.17377183519E+03  0.17377183519E+03  0.00000000000E+00 0.  1.
         23    2    1    2    0    0 -0.23756656544E+03 -0.20018820333E+03  0.31464891586E+03  0.45076306884E+03  0.87579759149E+02 0.  0.
         13    1    3    3    0    0 -0.20367040927E+03 -0.13078481092E+03  0.26520544139E+03  0.35905463167E+03  0.00000000000E+00 0. -1.
        -13    1    3    3    0    0 -0.33896156163E+02 -0.69403392407E+02  0.49443474470E+02  0.91708437169E+02  0.00000000000E+00 0.  1.
         22    1    1    2    0    0  0.23756656544E+03  0.20018820333E+03  0.12252487159E+03  0.33395438899E+03  0.00000000000E+00 0. -1.
<mgrwt>
<rscale>  0 0.65165986E+03</rscale>
<asrwt>0</asrwt>
<pdfrwt beam="1">  1        2 0.93991633E-01 0.65165986E+03</pdfrwt>
<pdfrwt beam="2">  1       -2 0.26734129E-01 0.65165986E+03</pdfrwt>
<totfact> 0.61908790E+02</totfact>
</mgrwt>
</event>
<event>
 6    1  0.2047711E-005  0.3565576E+04  0.7818608E-02  0.8098423E-01
         -2   -1    0    0    0  501 -0.00000000000E+00  0.00000000000E+00  0.92990887362E+03  0.92990887362E+03  0.00000000000E+00 0.  1.
          2   -1    0    0  501    0  0.00000000000E+00 -0.00000000000E+00 -0.34178971339E+04  0.34178971339E+04  0.00000000000E+00 0. -1.
         23    2    1    2    0    0 -0.27273780120E+03 -0.25986752081E+03 -0.33681666519E+04  0.33903975067E+04  0.91277718724E+02 0.  0.
         11    1    3    3    0    0 -0.56778726936E+02 -0.34213114733E+02 -0.92025304258E+03  0.92263753632E+03  0.00000000000E+00 0. -1.
        -11    1    3    3    0    0 -0.21595907427E+03 -0.22565440608E+03 -0.24479136093E+04  0.24677599703E+04  0.00000000000E+00 0.  1.
         22    1    1    2    0    0  0.27273780120E+03  0.25986752081E+03  0.88017839156E+03  0.95740850087E+03  0.00000000000E+00 0.  1.
<mgrwt>
<rscale>  0 0.35655759E+04</rscale>
<asrwt>0</asrwt>
<pdfrwt beam="1">  1        2 0.52583032E+00 0.35655759E+04</pdfrwt>
<pdfrwt beam="2">  1       -2 0.14306291E+00 0.35655759E+04</pdfrwt>
<totfact> 0.25676348E-01</totfact>
</mgrwt>
</event>
<event>
 6    1  0.2047711E-005  0.1615555E+04  0.7818608E-02  0.8811048E-01
          2   -1    0    0  501    0  0.00000000000E+00  0.00000000000E+00  0.15191549535E+04  0.15191549535E+04  0.00000000000E+00 0. -1.
         -2   -1    0    0    0  501 -0.00000000000E+00 -0.00000000000E+00 -0.42951819170E+03  0.42951819170E+03  0.00000000000E+00 0.  1.
         23    2    1    2    0    0  0.21722708551E+02 -0.37236952152E+03  0.14079349399E+04  0.14583215706E+04  0.72732878100E+02 0.  0.
         11    1    3    3    0    0  0.30478118833E+02 -0.22470340156E+03  0.72878047254E+03  0.76324407076E+03  0.00000000000E+00 0. -1.
        -11    1    3    3    0    0 -0.87554102826E+01 -0.14766611996E+03  0.67915446735E+03  0.69507749979E+03  0.00000000000E+00 0.  1.
         22    1    1    2    0    0 -0.21722708551E+02  0.37236952152E+03 -0.31829817807E+03  0.49035157468E+03  0.00000000000E+00 0.  1.
<mgrwt>
<rscale>  0 0.16155552E+04</rscale>
<asrwt>0</asrwt>
<pdfrwt beam="1">  1        2 0.23371614E+00 0.16155552E+04</pdfrwt>
<pdfrwt beam="2">  1       -2 0.66079723E-01 0.16155552E+04</pdfrwt>
<totfact> 0.24984041E+01</totfact>
</mgrwt>
</event>
<event>
 6    1  0.2047711E-005  0.3159974E+04  0.7818608E-02  0.8199469E-01
          2   -1    0    0  501    0  0.00000000000E+00  0.00000000000E+00  0.20384180412E+04  0.20384180412E+04  0.00000000000E+00 0. -1.
         -2   -1    0    0    0  501 -0.00000000000E+00 -0.00000000000E+00 -0.12246551856E+04  0.12246551856E+04  0.00000000000E+00 0.  1.
         23    2    1    2    0    0  0.50358928424E+03 -0.60042614003E+03  0.18224551390E+04  0.19857424789E+04  0.87844989623E+02 0.  0.
         13    1    3    3    0    0  0.41492643886E+03 -0.52860659849E+03  0.14985559054E+04  0.16423333058E+04  0.00000000000E+00 0. -1.
        -13    1    3    3    0    0  0.88662845378E+02 -0.71819541537E+02  0.32389923353E+03  0.34340917311E+03  0.00000000000E+00 0.  1.
         22    1    1    2    0    0 -0.50358928424E+03  0.60042614003E+03 -0.10086922834E+04  0.12773307479E+04  0.00000000000E+00 0.  1.
<mgrwt>
<rscale>  0 0.31599742E+04</rscale>
<asrwt>0</asrwt>
<pdfrwt beam="1">  1        2 0.31360277E+00 0.31599742E+04</pdfrwt>
<pdfrwt beam="2">  1       -2 0.18840849E+00 0.31599742E+04</pdfrwt>
<totfact> 0.85370030E-01</totfact>
</mgrwt>
</event>
<event>
 6    1  0.2047711E-005  0.1530267E+04  0.7818608E-02  0.8864572E-01
         -2   -1    0    0    0  501 -0.00000000000E+00  0.00000000000E+00  0.23130370488E+03  0.23130370488E+03  0.00000000000E+00 0.  1.
          2   -1    0    0  501    0  0.00000000000E+00 -0.00000000000E+00 -0.25309974834E+04  0.25309974834E+04  0.00000000000E+00 0. -1.
         23    2    1    2    0    0  0.56404853261E+03 -0.38612529287E+03 -0.54536938271E+03  0.87951135013E+03  0.94175169129E+02 0.  0.
         13    1    3    3    0    0  0.49665774552E+03 -0.30218236672E+03 -0.44242527972E+03  0.73056363656E+03  0.00000000000E+00 0.  1.
        -13    1    3    3    0    0  0.67390787092E+02 -0.83942926151E+02 -0.10294410300E+03  0.14894771357E+03  0.00000000000E+00 0. -1.
         22    1    1    2    0    0 -0.56404853261E+03  0.38612529287E+03 -0.17543243958E+04  0.18827898382E+04  0.00000000000E+00 0. -1.
<mgrwt>
<rscale>  0 0.15302668E+04</rscale>
<asrwt>0</asrwt>
<pdfrwt beam="1">  1        2 0.38938424E+00 0.15302668E+04</pdfrwt>
<pdfrwt beam="2">  1       -2 0.35585185E-01 0.15302668E+04</pdfrwt>
<totfact> 0.23957587E+01</totfact>
</mgrwt>
</event>
<event>
 6    1  0.2047711E-005  0.2380276E+04  0.7818608E-02  0.8446925E-01
         -2   -1    0    0    0  501 -0.00000000000E+00  0.00000000000E+00  0.63729806363E+03  0.63729806363E+03  0.00000000000E+00 0.  1.
          2   -1    0    0  501    0  0.00000000000E+00 -0.00000000000E+00 -0.22225532369E+04  0.22225532369E+04  0.00000000000E+00 0. -1.
         23    2    1    2    0    0  0.94347602437E+03 -0.32528795985E+03 -0.18543072180E+02  0.10022867463E+04  0.90970384779E+02 0.  0.
         13    1    3    3    0    0  0.53081806511E+03 -0.13562314751E+03 -0.35471403984E+01  0.54788140925E+03  0.00000000000E+00 0.  1.
        -13    1    3    3    0    0  0.41265795926E+03 -0.18966481234E+03 -0.14995931782E+02  0.45440533706E+03  0.00000000000E+00 0. -1.
         22    1    1    2    0    0 -0.94347602437E+03  0.32528795985E+03 -0.15667121011E+04  0.18575645542E+04  0.00000000000E+00 0. -1.
<mgrwt>
<rscale>  0 0.23802763E+04</rscale>
<asrwt>0</asrwt>
<pdfrwt beam="1">  1        2 0.34193127E+00 0.23802763E+04</pdfrwt>
<pdfrwt beam="2">  1       -2 0.98045855E-01 0.23802763E+04</pdfrwt>
<totfact> 0.39085618E+00</totfact>
</mgrwt>
</event>
<event>
 6    1  0.2047711E-005  0.1264151E+04  0.7818608E-02  0.9058487E-01
         -1   -1    0    0    0  501 -0.00000000000E+00  0.00000000000E+00  0.60833910300E+03  0.60833910300E+03  0.00000000000E+00 0.  1.
          1   -1    0    0  501    0  0.00000000000E+00 -0.00000000000E+00 -0.65673855549E+03  0.65673855549E+03  0.00000000000E+00 0. -1.
         23    2    1    2    0    0  0.48686345400E+03  0.39765029833E+03 -0.39924559160E+02  0.63640158418E+03  0.90836244552E+02 0.  0.
         11    1    3    3    0    0  0.30090295812E+03  0.25952532672E+03  0.17491762978E+02  0.39774608381E+03  0.00000000000E+00 0.  1.
        -11    1    3    3    0    0  0.18596049588E+03  0.13812497160E+03 -0.57416322138E+02  0.23865550037E+03  0.00000000000E+00 0. -1.
         22    1    1    2    0    0 -0.48686345400E+03 -0.39765029833E+03 -0.84748933295E+01  0.62867607431E+03  0.00000000000E+00 0.  1.
<mgrwt>
<rscale>  0 0.12641515E+04</rscale>
<asrwt>0</asrwt>
<pdfrwt beam="1">  1        1 0.10103670E+00 0.12641515E+04</pdfrwt>
<pdfrwt beam="2">  1       -1 0.93590631E-01 0.12641515E+04</pdfrwt>
<totfact> 0.32733980E+01</totfact>
</mgrwt>
</event>
<event>
 6    1  0.2047711E-005  0.2548392E+04  0.7818608E-02  0.8385946E-01
         -2   -1    0    0    0  501 -0.00000000000E+00  0.00000000000E+00  0.65946930060E+03  0.65946930060E+03  0.00000000000E+00 0.  1.
          2   -1    0    0  501    0  0.00000000000E+00 -0.00000000000E+00 -0.24619418990E+04  0.24619418990E+04  0.00000000000E+00 0. -1.
         23    2    1    2    0    0  0.21117247025E+02  0.12684797419E+04 -0.10241694418E+04  0.16330420931E+04  0.91742238863E+02 0.  0.
         13    1    3    3    0    0 -0.27922177866E+02  0.68015358974E+03 -0.51822621726E+03  0.85553899146E+03  0.00000000000E+00 0.  1.
        -13    1    3    3    0    0  0.49039424891E+02  0.58832615218E+03 -0.50594322456E+03  0.77750310161E+03  0.00000000000E+00 0. -1.
         22    1    1    2    0    0 -0.21117247025E+02 -0.12684797419E+04 -0.77830315660E+03  0.14883691066E+04  0.00000000000E+00 0. -1.
<mgrwt>
<rscale>  0 0.25483917E+04</rscale>
<asrwt>0</asrwt>
<pdfrwt beam="1">  1        2 0.37876029E+00 0.25483917E+04</pdfrwt>
<pdfrwt beam="2">  1       -2 0.10145682E+00 0.25483917E+04</pdfrwt>
<totfact> 0.25957864E+00</totfact>
</mgrwt>
</event>
<event>
 6    1  0.2047711E-005  0.8627434E+03  0.7818608E-02  0.9473391E-01
          1   -1    0    0  501    0  0.00000000000E+00  0.00000000000E+00  0.26041482972E+03  0.26041482972E+03  0.00000000000E+00 0. -1.
         -1   -1    0    0    0  501 -0.00000000000E+00 -0.00000000000E+00 -0.71455816717E+03  0.71455816717E+03  0.00000000000E+00 0.  1.
         23    2    1    2    0    0  0.91383598699E+02 -0.21703720963E+03 -0.63153704482E+03  0.68014314784E+03  0.91101866631E+02 0.  0.
         13    1    3    3    0    0  0.78967648723E+02 -0.22235763968E+03 -0.56579201851E+03  0.61302481000E+03  0.00000000000E+00 0.  1.
        -13    1    3    3    0    0  0.12415949976E+02  0.53204300558E+01 -0.65745026313E+02  0.67118337842E+02  0.00000000000E+00 0. -1.
         22    1    1    2    0    0 -0.91383598699E+02  0.21703720963E+03  0.17739370737E+03  0.29482984905E+03  0.00000000000E+00 0. -1.
<mgrwt>
<rscale>  0 0.86274340E+03</rscale>
<asrwt>0</asrwt>
<pdfrwt beam="1">  1        1 0.40063820E-01 0.86274340E+03</pdfrwt>
<pdfrwt beam="2">  1       -1 0.10993203E+00 0.86274340E+03</pdfrwt>
<totfact> 0.81417396E+01</totfact>
</mgrwt>
</event>
<event>
 6    1  0.2047711E-005  0.1233000E+04  0.7818608E-02  0.9084452E-01
          2   -1    0    0  501    0  0.00000000000E+00  0.00000000000E+00  0.26373672294E+04  0.26373672294E+04  0.00000000000E+00 0. -1.
         -2   -1    0    0    0  501 -0.00000000000E+00 -0.00000000000E+00 -0.14411055101E+03  0.14411055101E+03  0.00000000000E+00 0.  1.
         23    2    1    2    0    0 -0.40330660486E+03 -0.12674469618E+03  0.22553378350E+04  0.22963738621E+04  0.89798267659E+02 0.  0.
         13    1    3    3    0    0 -0.22924838068E+03 -0.70227111280E+02  0.10362194560E+04  0.10635964593E+04  0.00000000000E+00 0.  1.
        -13    1    3    3    0    0 -0.17405822418E+03 -0.56517584900E+02  0.12191183790E+04  0.12327774028E+04  0.00000000000E+00 0. -1.
         22    1    1    2    0    0  0.40330660486E+03  0.12674469618E+03  0.23791884335E+03  0.48510391830E+03  0.00000000000E+00 0.  1.
<mgrwt>
<rscale>  0 0.12330003E+04</rscale>
<asrwt>0</asrwt>
<pdfrwt beam="1">  1        2 0.40574877E+00 0.12330003E+04</pdfrwt>
<pdfrwt beam="2">  1       -2 0.22170856E-01 0.12330003E+04</pdfrwt>
<totfact> 0.51108872E+01</totfact>
</mgrwt>
</event>
<event>
 6    1  0.2047711E-005  0.1855525E+04  0.7818608E-02  0.8677317E-01
         -2   -1    0    0    0  501 -0.00000000000E+00  0.00000000000E+00  0.31954233112E+03  0.31954233112E+03  0.00000000000E+00 0.  1.
          2   -1    0    0  501    0  0.00000000000E+00 -0.00000000000E+00 -0.26936759984E+04  0.26936759984E+04  0.00000000000E+00 0. -1.
         23    2    1    2    0    0 -0.85355735385E+02  0.16222053678E+03 -0.26631140223E+04  0.26710038503E+04  0.92109545226E+02 0.  0.
         13    1    3    3    0    0 -0.78984273497E+02  0.13736966823E+03 -0.16561901198E+04  0.16637531831E+04  0.00000000000E+00 0.  1.
        -13    1    3    3    0    0 -0.63714618877E+01  0.24850868550E+02 -0.10069239025E+04  0.10072506673E+04  0.00000000000E+00 0. -1.
         22    1    1    2    0    0  0.85355735385E+02 -0.16222053678E+03  0.28898035509E+03  0.34221447916E+03  0.00000000000E+00 0.  1.
<mgrwt>
<rscale>  0 0.18555253E+04</rscale>
<asrwt>0</asrwt>
<pdfrwt beam="1">  1        2 0.41441171E+00 0.18555253E+04</pdfrwt>
<pdfrwt beam="2">  1       -2 0.49160356E-01 0.18555253E+04</pdfrwt>
<totfact> 0.98793436E+00</totfact>
</mgrwt>
</event>
<event>
 6    1  0.2047711E-005  0.2068164E+04  0.7818608E-02  0.8575399E-01
          2   -1    0    0  501    0  0.00000000000E+00  0.00000000000E+00  0.26688762571E+04  0.26688762571E+04  0.00000000000E+00 0. -1.
         -2   -1    0    0    0  501 -0.00000000000E+00 -0.00000000000E+00 -0.40066503231E+03  0.40066503231E+03  0.00000000000E+00 0.  1.
         23    2    1    2    0    0 -0.50915414825E+03  0.14586040289E+03  0.24508853858E+04  0.25092886206E+04  0.95796676240E+02 0.  0.
         13    1    3    3    0    0 -0.30331688615E+03  0.98666722567E+02  0.16794722841E+04  0.17094921493E+04  0.00000000000E+00 0. -1.
        -13    1    3    3    0    0 -0.20583726209E+03  0.47193680324E+02  0.77141310174E+03  0.79979647128E+03  0.00000000000E+00 0.  1.
         22    1    1    2    0    0  0.50915414825E+03 -0.14586040289E+03 -0.18267416104E+03  0.56025266882E+03  0.00000000000E+00 0.  1.
<mgrwt>
<rscale>  0 0.20681638E+04</rscale>
<asrwt>0</asrwt>
<pdfrwt beam="1">  1        2 0.41059634E+00 0.20681638E+04</pdfrwt>
<pdfrwt beam="2">  1       -2 0.61640776E-01 0.20681638E+04</pdfrwt>
<totfact> 0.62670284E+00</totfact>
</mgrwt>
</event>
<event>
 6    1  0.2179145E-005  0.2609053E+04  0.7818608E-02  0.8365132E-01
          2   -1    0    0  501    0  0.00000000000E+00  0.00000000000E+00  0.92547671945E+03  0.92547671945E+03  0.00000000000E+00 0.  1.
         -2   -1    0    0    0  501 -0.00000000000E+00 -0.00000000000E+00 -0.18388250986E+04  0.18388250986E+04  0.00000000000E+00 0. -1.
         23    2    1    2    0    0  0.61885333717E+03 -0.10513137487E+04  0.27494112908E+02  0.12237095144E+04  0.92027160734E+02 0.  0.
         13    1    3    3    0    0  0.18021270443E+03 -0.31618856131E+03 -0.33595208893E+02  0.36548661152E+03  0.00000000000E+00 0. -1.
        -13    1    3    3    0    0  0.43864063275E+03 -0.73512518740E+03  0.61089321801E+02  0.85822290291E+03  0.00000000000E+00 0.  1.
         22    1    1    2    0    0 -0.61885333717E+03  0.10513137487E+04 -0.94084249206E+03  0.15405923036E+04  0.00000000000E+00 0. -1.
<mgrwt>
<rscale>  0 0.26090533E+04</rscale>
<asrwt>0</asrwt>
<pdfrwt beam="1">  1        2 0.14238104E+00 0.26090533E+04</pdfrwt>
<pdfrwt beam="2">  1       -2 0.28289617E+00 0.26090533E+04</pdfrwt>
<totfact> 0.10073841E+00</totfact>
</mgrwt>
</event>
<event>
 6    1  0.2047711E-005  0.1311549E+04  0.7818608E-02  0.9020456E-01
         -2   -1    0    0    0  501 -0.00000000000E+00  0.00000000000E+00  0.12788845477E+03  0.12788845477E+03  0.00000000000E+00 0.  1.
          2   -1    0    0  501    0  0.00000000000E+00 -0.00000000000E+00 -0.33626218357E+04  0.33626218357E+04  0.00000000000E+00 0. -1.
         23    2    1    2    0    0  0.42553771476E+03 -0.42881894011E+03 -0.22822379579E+04  0.23625849557E+04  0.90716845407E+02 0.  0.
         11    1    3    3    0    0  0.19280087720E+03 -0.18191279929E+03 -0.11747605514E+04  0.12042951457E+04  0.00000000000E+00 0. -1.
        -11    1    3    3    0    0  0.23273683755E+03 -0.24690614082E+03 -0.11074774065E+04  0.11582898100E+04  0.00000000000E+00 0.  1.
         22    1    1    2    0    0 -0.42553771476E+03  0.42881894011E+03 -0.95249542303E+03  0.11279253348E+04  0.00000000000E+00 0.  1.
<mgrwt>
<rscale>  0 0.13115495E+04</rscale>
<asrwt>0</asrwt>
<pdfrwt beam="1">  1        2 0.51732642E+00 0.13115495E+04</pdfrwt>
<pdfrwt beam="2">  1       -2 0.19675148E-01 0.13115495E+04</pdfrwt>
<totfact> 0.22167351E+01</totfact>
</mgrwt>
</event>
<event>
 6    1  0.2047711E-005  0.2732555E+04  0.7818608E-02  0.8324519E-01
         -2   -1    0    0    0  501 -0.00000000000E+00  0.00000000000E+00  0.54505338799E+03  0.54505338799E+03  0.00000000000E+00 0.  1.
          2   -1    0    0  501    0  0.00000000000E+00 -0.00000000000E+00 -0.34248280572E+04  0.34248280572E+04  0.00000000000E+00 0. -1.
         23    2    1    2    0    0  0.96564186629E+03 -0.48084394636E+03 -0.22684340854E+03  0.11060170300E+04  0.90225406555E+02 0.  0.
         13    1    3    3    0    0  0.58674707387E+03 -0.29960559105E+03 -0.93917966987E+02  0.66547443483E+03  0.00000000000E+00 0.  1.
        -13    1    3    3    0    0  0.37889479242E+03 -0.18123835531E+03 -0.13292544155E+03  0.44054259518E+03  0.00000000000E+00 0. -1.
         22    1    1    2    0    0 -0.96564186629E+03  0.48084394636E+03 -0.26529312607E+04  0.28638644152E+04  0.00000000000E+00 0. -1.
<mgrwt>
<rscale>  0 0.27325549E+04</rscale>
<asrwt>0</asrwt>
<pdfrwt beam="1">  1        2 0.52689661E+00 0.27325549E+04</pdfrwt>
<pdfrwt beam="2">  1       -2 0.83854370E-01 0.27325549E+04</pdfrwt>
<totfact> 0.99679364E-01</totfact>
</mgrwt>
</event>
<event>
 6    1  0.2047711E-005  0.2822029E+04  0.7818608E-02  0.8296462E-01
          2   -1    0    0  501    0  0.00000000000E+00  0.00000000000E+00  0.16666156411E+04  0.16666156411E+04  0.00000000000E+00 0. -1.
         -2   -1    0    0    0  501 -0.00000000000E+00 -0.00000000000E+00 -0.11946139939E+04  0.11946139939E+04  0.00000000000E+00 0.  1.
         23    2    1    2    0    0  0.34728270293E+03  0.13184780601E+04 -0.12600449512E+03  0.13724042534E+04  0.92879659945E+02 0.  0.
         13    1    3    3    0    0  0.14152884371E+03  0.39111506789E+03 -0.59449493630E+02  0.42016145971E+03  0.00000000000E+00 0.  1.
        -13    1    3    3    0    0  0.20575385922E+03  0.92736299220E+03 -0.66555001485E+02  0.95224279368E+03  0.00000000000E+00 0. -1.
         22    1    1    2    0    0 -0.34728270293E+03 -0.13184780601E+04  0.59800614226E+03  0.14888253816E+04  0.00000000000E+00 0. -1.
<mgrwt>
<rscale>  0 0.28220293E+04</rscale>
<asrwt>0</asrwt>
<pdfrwt beam="1">  1        2 0.25640241E+00 0.28220293E+04</pdfrwt>
<pdfrwt beam="2">  1       -2 0.18378677E+00 0.28220293E+04</pdfrwt>
<totfact> 0.15185792E+00</totfact>
</mgrwt>
</event>
<event>
 6    1  0.2047711E-005  0.1467143E+04  0.7818608E-02  0.8906601E-01
         -1   -1    0    0    0  501 -0.00000000000E+00  0.00000000000E+00  0.93637272146E+03  0.93637272146E+03  0.00000000000E+00 0. -1.
          1   -1    0    0  501    0  0.00000000000E+00 -0.00000000000E+00 -0.57469330182E+03  0.57469330182E+03  0.00000000000E+00 0.  1.
         23    2    1    2    0    0  0.54501088247E+03 -0.11899435392E+03  0.66770751025E+03  0.87478800973E+03  0.90687509899E+02 0.  0.
         13    1    3    3    0    0  0.29758969914E+03 -0.81995419596E+02  0.30314113302E+03  0.43264006333E+03  0.00000000000E+00 0. -1.
        -13    1    3    3    0    0  0.24742118333E+03 -0.36998934327E+02  0.36456637723E+03  0.44214794640E+03  0.00000000000E+00 0.  1.
         22    1    1    2    0    0 -0.54501088247E+03  0.11899435392E+03 -0.30602809060E+03  0.63627801354E+03  0.00000000000E+00 0.  1.
<mgrwt>
<rscale>  0 0.14671430E+04</rscale>
<asrwt>0</asrwt>
<pdfrwt beam="1">  1        1 0.88414354E-01 0.14671430E+04</pdfrwt>
<pdfrwt beam="2">  1       -1 0.14405734E+00 0.14671430E+04</pdfrwt>
<totfact> 0.13741997E+01</totfact>
</mgrwt>
</event>
<event>
 6    1  0.2047711E-005  0.2881580E+04  0.7818608E-02  0.8278379E-01
          2   -1    0    0  501    0  0.00000000000E+00  0.00000000000E+00  0.27189076181E+04  0.27189076181E+04  0.00000000000E+00 0. -1.
         -2   -1    0    0    0  501 -0.00000000000E+00 -0.00000000000E+00 -0.76349607211E+03  0.76349607211E+03  0.00000000000E+00 0.  1.
         23    2    1    2    0    0  0.12633301707E+04  0.32516940090E+03  0.24351220370E+03  0.13301170881E+04  0.90415791652E+02 0.  0.
         13    1    3    3    0    0  0.26155027676E+03  0.76632617582E+02  0.14900725741E+02  0.27295262772E+03  0.00000000000E+00 0.  1.
        -13    1    3    3    0    0  0.10017798939E+04  0.24853678331E+03  0.22861147796E+03  0.10571644604E+04  0.00000000000E+00 0. -1.
         22    1    1    2    0    0 -0.12633301707E+04 -0.32516940090E+03  0.17118993423E+04  0.21522866021E+04  0.00000000000E+00 0. -1.
<mgrwt>
<rscale>  0 0.28815796E+04</rscale>
<asrwt>0</asrwt>
<pdfrwt beam="1">  1        2 0.41829348E+00 0.28815796E+04</pdfrwt>
<pdfrwt beam="2">  1       -2 0.11746093E+00 0.28815796E+04</pdfrwt>
<totfact> 0.12516251E+00</totfact>
</mgrwt>
</event>
<event>
 6    1  0.2047711E-005  0.1788489E+04  0.7818608E-02  0.8712445E-01
         -2   -1    0    0    0  501 -0.00000000000E+00  0.00000000000E+00  0.78605984492E+03  0.78605984492E+03  0.00000000000E+00 0. -1.
          2   -1    0    0  501    0  0.00000000000E+00 -0.00000000000E+00 -0.10173190175E+04  0.10173190175E+04  0.00000000000E+00 0.  1.
         23    2    1    2    0    0 -0.34252482690E+03 -0.25397585799E+03 -0.90609096276E+03  0.10051151601E+04  0.86189667573E+02 0.  0.
         11    1    3    3    0    0 -0.19807038920E+03 -0.16589570041E+03 -0.63513308837E+03  0.68567288296E+03  0.00000000000E+00 0.  1.
        -11    1    3    3    0    0 -0.14445443770E+03 -0.88080157588E+02 -0.27095787439E+03  0.31944227714E+03  0.00000000000E+00 0. -1.
         22    1    1    2    0    0  0.34252482690E+03  0.25397585799E+03  0.67483179015E+03  0.79826370235E+03  0.00000000000E+00 0. -1.
<mgrwt>
<rscale>  0 0.17884895E+04</rscale>
<asrwt>0</asrwt>
<pdfrwt beam="1">  1        2 0.15651062E+00 0.17884895E+04</pdfrwt>
<pdfrwt beam="2">  1       -2 0.12093228E+00 0.17884895E+04</pdfrwt>
<totfact> 0.12085264E+01</totfact>
</mgrwt>
</event>
<event>
 6    1  0.2047711E-005  0.2609231E+04  0.7818608E-02  0.8365072E-01
         -2   -1    0    0    0  501 -0.00000000000E+00  0.00000000000E+00  0.71359120956E+03  0.71359120956E+03  0.00000000000E+00 0.  1.
          2   -1    0    0  501    0  0.00000000000E+00 -0.00000000000E+00 -0.23851488940E+04  0.23851488940E+04  0.00000000000E+00 0. -1.
         23    2    1    2    0    0  0.83997768979E+03  0.41967944173E+03  0.23609081772E+03  0.97251900476E+03  0.91438434185E+02 0.  0.
         11    1    3    3    0    0  0.66878798444E+03  0.29153703213E+03  0.17989583569E+03  0.75142113420E+03  0.00000000000E+00 0. -1.
        -11    1    3    3    0    0  0.17118970535E+03  0.12814240961E+03  0.56194982033E+02  0.22109787055E+03  0.00000000000E+00 0.  1.
         22    1    1    2    0    0 -0.83997768979E+03 -0.41967944173E+03 -0.19076485022E+04  0.21262210988E+04  0.00000000000E+00 0. -1.
<mgrwt>
<rscale>  0 0.26092308E+04</rscale>
<asrwt>0</asrwt>
<pdfrwt beam="1">  1        2 0.36694598E+00 0.26092308E+04</pdfrwt>
<pdfrwt beam="2">  1       -2 0.10978326E+00 0.26092308E+04</pdfrwt>
<totfact> 0.23652066E+00</totfact>
</mgrwt>
</event>
<event>
 6    1  0.2047711E-005  0.1170732E+04  0.7818608E-02  0.9138867E-01
          1   -1    0    0  501    0  0.00000000000E+00  0.00000000000E+00  0.30689475238E+03  0.30689475238E+03  0.00000000000E+00 0. -1.
         -1   -1    0    0    0  501 -0.00000000000E+00 -0.00000000000E+00 -0.11165183346E+04  0.11165183346E+04  0.00000000000E+00 0.  1.
         23    2    1    2    0    0 -0.35954613496E+03 -0.23624777985E+03  0.62478788151E+02  0.45096823967E+03  0.11992630058E+03 0.  0.
         13    1    3    3    0    0 -0.60335449685E+02 -0.62156309176E+02  0.58947072187E+02  0.10477848338E+03  0.00000000000E+00 0.  1.
        -13    1    3    3    0    0 -0.29921068527E+03 -0.17409147068E+03  0.35317159633E+01  0.34618975629E+03  0.00000000000E+00 0. -1.
         22    1    1    2    0    0  0.35954613496E+03  0.23624777985E+03 -0.87210237039E+03  0.97244484733E+03  0.00000000000E+00 0.  1.
<mgrwt>
<rscale>  0 0.11707325E+04</rscale>
<asrwt>0</asrwt>
<pdfrwt beam="1">  1        1 0.47214578E-01 0.11707325E+04</pdfrwt>
<pdfrwt beam="2">  1       -1 0.17177205E+00 0.11707325E+04</pdfrwt>
<totfact> 0.20157072E+01</totfact>
</mgrwt>
</event>
<event>
 6    1  0.2047711E-005  0.2953521E+04  0.7818608E-02  0.8257129E-01
          2   -1    0    0  501    0  0.00000000000E+00  0.00000000000E+00  0.97612187950E+03  0.97612187950E+03  0.00000000000E+00 0. -1.
         -2   -1    0    0    0  501 -0.00000000000E+00 -0.00000000000E+00 -0.22341690342E+04  0.22341690342E+04  0.00000000000E+00 0.  1.
         23    2    1    2    0    0 -0.83027400484E+03  0.98689043837E+03 -0.14084085719E+04  0.19118625497E+04  0.91082617883E+02 0.  0.
         11    1    3    3    0    0 -0.57591346002E+03  0.61956766742E+03 -0.93810611190E+03  0.12631640769E+04  0.00000000000E+00 0. -1.
        -11    1    3    3    0    0 -0.25436054482E+03  0.36732277094E+03 -0.47030245998E+03  0.64869847285E+03  0.00000000000E+00 0.  1.
         22    1    1    2    0    0  0.83027400484E+03 -0.98689043837E+03  0.15036141723E+03  0.12984283639E+04  0.00000000000E+00 0. -1.
<mgrwt>
<rscale>  0 0.29535208E+04</rscale>
<asrwt>0</asrwt>
<pdfrwt beam="1">  1        2 0.15017260E+00 0.29535208E+04</pdfrwt>
<pdfrwt beam="2">  1       -2 0.34371831E+00 0.29535208E+04</pdfrwt>
<totfact> 0.38212463E-01</totfact>
</mgrwt>
</event>
<event>
 6    1  0.2047711E-005  0.2759324E+04  0.7818608E-02  0.8316009E-01
         -2   -1    0    0    0  501 -0.00000000000E+00  0.00000000000E+00  0.66562810583E+03  0.66562810583E+03  0.00000000000E+00 0. -1.
          2   -1    0    0  501    0  0.00000000000E+00 -0.00000000000E+00 -0.28596548332E+04  0.28596548332E+04  0.00000000000E+00 0.  1.
         23    2    1    2    0    0  0.12734904267E+04 -0.51745099433E+03 -0.97171442244E+03  0.16858317248E+04  0.90919124286E+02 0.  0.
         13    1    3    3    0    0  0.59172799872E+03 -0.25569759526E+03 -0.40294393610E+03  0.76018885833E+03  0.00000000000E+00 0. -1.
        -13    1    3    3    0    0  0.68176242802E+03 -0.26175339908E+03 -0.56877048634E+03  0.92564286651E+03  0.00000000000E+00 0.  1.
         22    1    1    2    0    0 -0.12734904267E+04  0.51745099433E+03 -0.12223123049E+04  0.18394512141E+04  0.00000000000E+00 0.  1.
<mgrwt>
<rscale>  0 0.27593236E+04</rscale>
<asrwt>0</asrwt>
<pdfrwt beam="1">  1        2 0.43994689E+00 0.27593236E+04</pdfrwt>
<pdfrwt beam="2">  1       -2 0.10240433E+00 0.27593236E+04</pdfrwt>
<totfact> 0.14488802E+00</totfact>
</mgrwt>
</event>
<event>
 6    1  0.2047711E-005  0.1174256E+04  0.7818608E-02  0.9135694E-01
          2   -1    0    0  501    0  0.00000000000E+00  0.00000000000E+00  0.56843781013E+03  0.56843781013E+03  0.00000000000E+00 0. -1.
         -2   -1    0    0    0  501 -0.00000000000E+00 -0.00000000000E+00 -0.60643267735E+03  0.60643267735E+03  0.00000000000E+00 0.  1.
         23    2    1    2    0    0  0.30752466769E+03 -0.21322641843E+03 -0.46673604717E+03  0.60578707871E+03  0.95386163807E+02 0.  0.
         11    1    3    3    0    0  0.19465661974E+03 -0.79202505234E+02 -0.27394915878E+03  0.34527145558E+03  0.00000000000E+00 0. -1.
        -11    1    3    3    0    0  0.11286804795E+03 -0.13402391320E+03 -0.19278688839E+03  0.26051562313E+03  0.00000000000E+00 0.  1.
         22    1    1    2    0    0 -0.30752466769E+03  0.21322641843E+03  0.42874117995E+03  0.56908340877E+03  0.00000000000E+00 0. -1.
<mgrwt>
<rscale>  0 0.11742560E+04</rscale>
<asrwt>0</asrwt>
<pdfrwt beam="1">  1        2 0.87451970E-01 0.11742560E+04</pdfrwt>
<pdfrwt beam="2">  1       -2 0.93297335E-01 0.11742560E+04</pdfrwt>
<totfact> 0.50879828E+01</totfact>
</mgrwt>
</event>
<event>
 6    1  0.2047711E-005  0.1326668E+04  0.7818608E-02  0.9008681E-01
         -2   -1    0    0    0  501 -0.00000000000E+00  0.00000000000E+00  0.20827561323E+03  0.20827561323E+03  0.00000000000E+00 0.  1.
          2   -1    0    0  501    0  0.00000000000E+00 -0.00000000000E+00 -0.21126424911E+04  0.21126424911E+04  0.00000000000E+00 0. -1.
         23    2    1    2    0    0  0.41100331811E+03 -0.31478929871E+03 -0.16733164310E+04  0.17539962940E+04  0.92190514087E+02 0.  0.
         13    1    3    3    0    0  0.21275126791E+03 -0.15426350462E+03 -0.69671688206E+03  0.74463060950E+03  0.00000000000E+00 0. -1.
        -13    1    3    3    0    0  0.19825205020E+03 -0.16052579409E+03 -0.97659954893E+03  0.10093656844E+04  0.00000000000E+00 0.  1.
         22    1    1    2    0    0 -0.41100331811E+03  0.31478929871E+03 -0.23105044687E+03  0.56692181037E+03  0.00000000000E+00 0.  1.
<mgrwt>
<rscale>  0 0.13266679E+04</rscale>
<asrwt>0</asrwt>
<pdfrwt beam="1">  1        2 0.32502193E+00 0.13266679E+04</pdfrwt>
<pdfrwt beam="2">  1       -2 0.32042401E-01 0.13266679E+04</pdfrwt>
<totfact> 0.51322025E+01</totfact>
</mgrwt>
</event>
<event>
 6    1  0.2047711E-005  0.3371196E+04  0.7818608E-02  0.8145012E-01
         -2   -1    0    0    0  501 -0.00000000000E+00  0.00000000000E+00  0.17706416984E+04  0.17706416984E+04  0.00000000000E+00 0.  1.
          2   -1    0    0  501    0  0.00000000000E+00 -0.00000000000E+00 -0.16046385263E+04  0.16046385263E+04  0.00000000000E+00 0. -1.
         23    2    1    2    0    0  0.15414760880E+04 -0.64778296494E+03 -0.12058663275E+03  0.16788413028E+04  0.90530019274E+02 0.  0.
         13    1    3    3    0    0  0.13474348811E+04 -0.53679342500E+03 -0.89941912197E+02  0.14532093750E+04  0.00000000000E+00 0.  1.
        -13    1    3    3    0    0  0.19404120691E+03 -0.11098953994E+03 -0.30644720551E+02  0.22563192782E+03  0.00000000000E+00 0. -1.
         22    1    1    2    0    0 -0.15414760880E+04  0.64778296494E+03  0.28658980476E+03  0.16964389219E+04  0.00000000000E+00 0. -1.
<mgrwt>
<rscale>  0 0.33711956E+04</rscale>
<asrwt>0</asrwt>
<pdfrwt beam="1">  1        2 0.24686747E+00 0.33711956E+04</pdfrwt>
<pdfrwt beam="2">  1       -2 0.27240641E+00 0.33711956E+04</pdfrwt>
<totfact> 0.43129600E-01</totfact>
</mgrwt>
</event>
<event>
 6    1  0.2047711E-005  0.1829697E+04  0.7818608E-02  0.8690665E-01
          3   -1    0    0  501    0  0.00000000000E+00  0.00000000000E+00  0.17958262981E+04  0.17958262981E+04  0.00000000000E+00 0. -1.
         -3   -1    0    0    0  501 -0.00000000000E+00 -0.00000000000E+00 -0.46605151468E+03  0.46605151468E+03  0.00000000000E+00 0.  1.
         23    2    1    2    0    0  0.71531608543E+02  0.30658366474E+03 -0.39231523430E+03  0.51124811359E+03  0.91395164400E+02 0.  0.
         13    1    3    3    0    0 -0.11951069539E+02  0.98299650207E+02 -0.16071999420E+03  0.18877649703E+03  0.00000000000E+00 0.  1.
        -13    1    3    3    0    0  0.83482678083E+02  0.20828401454E+03 -0.23159524010E+03  0.32247161656E+03  0.00000000000E+00 0. -1.
         22    1    1    2    0    0 -0.71531608543E+02 -0.30658366474E+03  0.17220900177E+04  0.17506296992E+04  0.00000000000E+00 0. -1.
<mgrwt>
<rscale>  0 0.18296968E+04</rscale>
<asrwt>0</asrwt>
<pdfrwt beam="1">  1        3 0.27628097E+00 0.18296968E+04</pdfrwt>
<pdfrwt beam="2">  1       -3 0.71700234E-01 0.18296968E+04</pdfrwt>
<totfact> 0.23939137E-01</totfact>
</mgrwt>
</event>
<event>
 6    1  0.2047711E-005  0.9847713E+03  0.7818608E-02  0.9325407E-01
         -2   -1    0    0    0  501 -0.00000000000E+00  0.00000000000E+00  0.60093379623E+02  0.60093379623E+02  0.00000000000E+00 0.  1.
          2   -1    0    0  501    0  0.00000000000E+00 -0.00000000000E+00 -0.40344483787E+04  0.40344483787E+04  0.00000000000E+00 0. -1.
         23    2    1    2    0    0  0.37553790741E+03  0.30288108806E+03 -0.16811315943E+04  0.17511170726E+04  0.86266396780E+02 0.  0.
         13    1    3    3    0    0  0.24818094102E+03  0.23279571506E+03 -0.10635918869E+04  0.11166984044E+04  0.00000000000E+00 0.  1.
        -13    1    3    3    0    0  0.12735696639E+03  0.70085373009E+02 -0.61753970738E+03  0.63441866822E+03  0.00000000000E+00 0. -1.
         22    1    1    2    0    0 -0.37553790741E+03 -0.30288108806E+03 -0.22932234047E+04  0.23434246857E+04  0.00000000000E+00 0. -1.
<mgrwt>
<rscale>  0 0.98477132E+03</rscale>
<asrwt>0</asrwt>
<pdfrwt beam="1">  1        2 0.62068435E+00 0.98477132E+03</pdfrwt>
<pdfrwt beam="2">  1       -2 0.92451356E-02 0.98477132E+03</pdfrwt>
<totfact> 0.26596572E+01</totfact>
</mgrwt>
</event>
<event>
 6    1  0.2047711E-005  0.2505770E+04  0.7818608E-02  0.8400933E-01
          2   -1    0    0  501    0  0.00000000000E+00  0.00000000000E+00  0.20873404213E+04  0.20873404213E+04  0.00000000000E+00 0. -1.
         -2   -1    0    0    0  501 -0.00000000000E+00 -0.00000000000E+00 -0.75201983642E+03  0.75201983642E+03  0.00000000000E+00 0.  1.
         23    2    1    2    0    0  0.70757889091E+03  0.33734589817E+03 -0.43662315123E+03  0.90177032541E+03  0.89887717390E+02 0.  0.
         13    1    3    3    0    0  0.58063199089E+03  0.29022567776E+03 -0.32321545877E+03  0.72514321735E+03  0.00000000000E+00 0. -1.
        -13    1    3    3    0    0  0.12694690002E+03  0.47120220409E+02 -0.11340769245E+03  0.17662710806E+03  0.00000000000E+00 0.  1.
         22    1    1    2    0    0 -0.70757889091E+03 -0.33734589817E+03  0.17719437361E+04  0.19375899323E+04  0.00000000000E+00 0. -1.
<mgrwt>
<rscale>  0 0.25057705E+04</rscale>
<asrwt>0</asrwt>
<pdfrwt beam="1">  1        2 0.32112929E+00 0.25057705E+04</pdfrwt>
<pdfrwt beam="2">  1       -2 0.11569536E+00 0.25057705E+04</pdfrwt>
<totfact> 0.30932695E+00</totfact>
</mgrwt>
</event>
<event>
 6    1  0.2047711E-005  0.2989130E+04  0.7818608E-02  0.8246842E-01
         -2   -1    0    0    0  501 -0.00000000000E+00  0.00000000000E+00  0.14432298404E+04  0.14432298404E+04  0.00000000000E+00 0.  1.
          2   -1    0    0  501    0  0.00000000000E+00 -0.00000000000E+00 -0.15477257998E+04  0.15477257998E+04  0.00000000000E+00 0. -1.
         23    2    1    2    0    0  0.95572148473E+03  0.80851465650E+03  0.76224902635E+03  0.14683439443E+04  0.88942984057E+02 0.  0.
         11    1    3    3    0    0  0.49941710307E+03  0.48030226627E+03  0.42421587545E+03  0.81244496355E+03  0.00000000000E+00 0. -1.
        -11    1    3    3    0    0  0.45630438166E+03  0.32821239023E+03  0.33803315090E+03  0.65589898073E+03  0.00000000000E+00 0.  1.
         22    1    1    2    0    0 -0.95572148473E+03 -0.80851465650E+03 -0.86674498570E+03  0.15226116959E+04  0.00000000000E+00 0. -1.
<mgrwt>
<rscale>  0 0.29891297E+04</rscale>
<asrwt>0</asrwt>
<pdfrwt beam="1">  1        2 0.23811166E+00 0.29891297E+04</pdfrwt>
<pdfrwt beam="2">  1       -2 0.22203536E+00 0.29891297E+04</pdfrwt>
<totfact> 0.98087571E-01</totfact>
</mgrwt>
</event>
<event>
 6    1  0.2047711E-005  0.2126315E+04  0.7818608E-02  0.8549739E-01
         -1   -1    0    0    0  501 -0.00000000000E+00  0.00000000000E+00  0.16058000668E+04  0.16058000668E+04  0.00000000000E+00 0.  1.
          1   -1    0    0  501    0  0.00000000000E+00 -0.00000000000E+00 -0.70388833391E+03  0.70388833391E+03  0.00000000000E+00 0. -1.
         23    2    1    2    0    0 -0.15221650027E+03 -0.58091078733E+03 -0.49874207807E+03  0.78572701539E+03  0.89420783304E+02 0.  0.
         11    1    3    3    0    0 -0.72912536796E+02 -0.35263908010E+03 -0.24635514645E+03  0.43630427115E+03  0.00000000000E+00 0.  1.
        -11    1    3    3    0    0 -0.79303963479E+02 -0.22827170722E+03 -0.25238693162E+03  0.34942274424E+03  0.00000000000E+00 0. -1.
         22    1    1    2    0    0  0.15221650027E+03  0.58091078733E+03  0.14006538110E+04  0.15239613854E+04  0.00000000000E+00 0.  1.
<mgrwt>
<rscale>  0 0.21263151E+04</rscale>
<asrwt>0</asrwt>
<pdfrwt beam="1">  1        1 0.10829051E+00 0.21263151E+04</pdfrwt>
<pdfrwt beam="2">  1       -1 0.24704616E+00 0.21263151E+04</pdfrwt>
<totfact> 0.18067828E+00</totfact>
</mgrwt>
</event>
<event>
 6    1  0.2047711E-005  0.1690681E+04  0.7818608E-02  0.8766697E-01
         -2   -1    0    0    0  501 -0.00000000000E+00  0.00000000000E+00  0.38552756197E+03  0.38552756197E+03  0.00000000000E+00 0.  1.
          2   -1    0    0  501    0  0.00000000000E+00 -0.00000000000E+00 -0.18535660575E+04  0.18535660575E+04  0.00000000000E+00 0. -1.
         23    2    1    2    0    0 -0.39200114879E+03 -0.31180943493E+03 -0.16328145784E+04  0.17117975149E+04  0.11522699422E+03 0.  0.
         11    1    3    3    0    0 -0.32070730965E+03 -0.27294004527E+03 -0.14799906072E+04  0.15387402783E+04  0.00000000000E+00 0. -1.
        -11    1    3    3    0    0 -0.71293839147E+02 -0.38869389669E+02 -0.15282397124E+03  0.17305723660E+03  0.00000000000E+00 0.  1.
         22    1    1    2    0    0  0.39200114879E+03  0.31180943493E+03  0.16477608290E+03  0.52729610454E+03  0.00000000000E+00 0.  1.
<mgrwt>
<rscale>  0 0.16906813E+04</rscale>
<asrwt>0</asrwt>
<pdfrwt beam="1">  1        2 0.28516401E+00 0.16906813E+04</pdfrwt>
<pdfrwt beam="2">  1       -2 0.59311932E-01 0.16906813E+04</pdfrwt>
<totfact> 0.20362153E+01</totfact>
</mgrwt>
</event>
<event>
 6    1  0.2047711E-005  0.3097504E+04  0.7818608E-02  0.8216423E-01
         -2   -1    0    0    0  501 -0.00000000000E+00  0.00000000000E+00  0.14402643594E+04  0.14402643594E+04  0.00000000000E+00 0.  1.
          2   -1    0    0  501    0  0.00000000000E+00 -0.00000000000E+00 -0.16654119867E+04  0.16654119867E+04  0.00000000000E+00 0. -1.
         23    2    1    2    0    0  0.52778887598E+03 -0.12794294748E+04  0.58125445220E+03  0.15038694936E+04  0.90916648617E+02 0.  0.
         13    1    3    3    0    0  0.43994615500E+03 -0.11264676268E+04  0.52839806199E+03  0.13197296865E+04  0.00000000000E+00 0. -1.
        -13    1    3    3    0    0  0.87842720978E+02 -0.15296184805E+03  0.52856390204E+02  0.18413980714E+03  0.00000000000E+00 0.  1.
         22    1    1    2    0    0 -0.52778887598E+03  0.12794294748E+04 -0.80640207954E+03  0.16018068524E+04  0.00000000000E+00 0. -1.
<mgrwt>
<rscale>  0 0.30975045E+04</rscale>
<asrwt>0</asrwt>
<pdfrwt beam="1">  1        2 0.25621723E+00 0.30975045E+04</pdfrwt>
<pdfrwt beam="2">  1       -2 0.22157913E+00 0.30975045E+04</pdfrwt>
<totfact> 0.84092387E-01</totfact>
</mgrwt>
</event>
<event>
 6    1  0.2047711E-005  0.6441759E+04  0.7818608E-02  0.7637918E-01
         -2   -1    0    0    0  501 -0.00000000000E+00  0.00000000000E+00  0.39017608382E+04  0.39017608382E+04  0.00000000000E+00 0.  1.
          2   -1    0    0  501    0  0.00000000000E+00 -0.00000000000E+00 -0.26588162849E+04  0.26588162849E+04  0.00000000000E+00 0. -1.
         23    2    1    2    0    0 -0.12648954204E+04 -0.24507352827E+04  0.23147850227E+04  0.36017081092E+04  0.89486044593E+02 0.  0.
         13    1    3    3    0    0 -0.77911251253E+03 -0.14694330331E+04  0.13437708601E+04  0.21382165162E+04  0.00000000000E+00 0. -1.
        -13    1    3    3    0    0 -0.48578290783E+03 -0.98130224957E+03  0.97101416262E+03  0.14634915929E+04  0.00000000000E+00 0.  1.
         22    1    1    2    0    0  0.12648954204E+04  0.24507352827E+04 -0.10718404694E+04  0.29588690140E+04  0.00000000000E+00 0. -1.
<mgrwt>
<rscale>  0 0.64417592E+04</rscale>
<asrwt>0</asrwt>
<pdfrwt beam="1">  1        2 0.40904866E+00 0.64417592E+04</pdfrwt>
<pdfrwt beam="2">  1       -2 0.60027089E+00 0.64417592E+04</pdfrwt>
<totfact> 0.94899354E-04</totfact>
</mgrwt>
</event>
<event>
 6    1  0.2047711E-005  0.1111745E+04  0.7818608E-02  0.9193820E-01
         -2   -1    0    0    0  501 -0.00000000000E+00  0.00000000000E+00  0.79846889367E+03  0.79846889367E+03  0.00000000000E+00 0.  1.
          2   -1    0    0  501    0  0.00000000000E+00 -0.00000000000E+00 -0.38698319822E+03  0.38698319822E+03  0.00000000000E+00 0. -1.
         23    2    1    2    0    0 -0.35983636328E+03 -0.26860810845E+03  0.54994280384E+03  0.71555540630E+03  0.89162367189E+02 0.  0.
         13    1    3    3    0    0 -0.13649529273E+03 -0.59073546424E+02  0.21822005178E+03  0.26408453159E+03  0.00000000000E+00 0. -1.
        -13    1    3    3    0    0 -0.22334107055E+03 -0.20953456203E+03  0.33172275206E+03  0.45147087471E+03  0.00000000000E+00 0.  1.
         22    1    1    2    0    0  0.35983636328E+03  0.26860810845E+03 -0.13845710839E+03  0.46989668559E+03  0.00000000000E+00 0. -1.
<mgrwt>
<rscale>  0 0.11117447E+04</rscale>
<asrwt>0</asrwt>
<pdfrwt beam="1">  1        2 0.59535877E-01 0.11117447E+04</pdfrwt>
<pdfrwt beam="2">  1       -2 0.12284137E+00 0.11117447E+04</pdfrwt>
<totfact> 0.41002097E+01</totfact>
</mgrwt>
</event>
<event>
 6    1  0.2047711E-005  0.3214929E+04  0.7818608E-02  0.8184886E-01
          1   -1    0    0  501    0  0.00000000000E+00  0.00000000000E+00  0.19711111254E+04  0.19711111254E+04  0.00000000000E+00 0. -1.
         -1   -1    0    0    0  501 -0.00000000000E+00 -0.00000000000E+00 -0.13109064248E+04  0.13109064248E+04  0.00000000000E+00 0.  1.
         23    2    1    2    0    0 -0.90258728495E+03  0.41934797075E+02 -0.10253857571E+04  0.13695224455E+04  0.88053641217E+02 0.  0.
         13    1    3    3    0    0 -0.22829927698E+03 -0.23721362989E+02 -0.28550573361E+03  0.36632879611E+03  0.00000000000E+00 0. -1.
        -13    1    3    3    0    0 -0.67428800796E+03  0.65656160064E+02 -0.73988002351E+03  0.10031936494E+04  0.00000000000E+00 0.  1.
         22    1    1    2    0    0  0.90258728495E+03 -0.41934797075E+02  0.16855904578E+04  0.19124951047E+04  0.00000000000E+00 0. -1.
<mgrwt>
<rscale>  0 0.32149291E+04</rscale>
<asrwt>0</asrwt>
<pdfrwt beam="1">  1        1 0.30324787E+00 0.32149291E+04</pdfrwt>
<pdfrwt beam="2">  1       -1 0.20167791E+00 0.32149291E+04</pdfrwt>
<totfact> 0.38178547E-01</totfact>
</mgrwt>
</event>
<event>
 6    1  0.2047711E-005  0.4228689E+04  0.7818608E-02  0.7959937E-01
          2   -1    0    0  501    0  0.00000000000E+00  0.00000000000E+00  0.28841000050E+04  0.28841000050E+04  0.00000000000E+00 0. -1.
         -2   -1    0    0    0  501 -0.00000000000E+00 -0.00000000000E+00 -0.15500336670E+04  0.15500336670E+04  0.00000000000E+00 0.  1.
         23    2    1    2    0    0 -0.91201558122E+03  0.82330369962E+03  0.24707926012E+04  0.27602913856E+04  0.69217430699E+02 0.  0.
         11    1    3    3    0    0 -0.49667193059E+03  0.47093882497E+03  0.14428856061E+04  0.15969925660E+04  0.00000000000E+00 0. -1.
        -11    1    3    3    0    0 -0.41534365064E+03  0.35236487465E+03  0.10279069952E+04  0.11632988196E+04  0.00000000000E+00 0.  1.
         22    1    1    2    0    0  0.91201558122E+03 -0.82330369962E+03 -0.11367262633E+04  0.16738422864E+04  0.00000000000E+00 0.  1.
<mgrwt>
<rscale>  0 0.42286887E+04</rscale>
<asrwt>0</asrwt>
<pdfrwt beam="1">  1        2 0.44370769E+00 0.42286887E+04</pdfrwt>
<pdfrwt beam="2">  1       -2 0.23846672E+00 0.42286887E+04</pdfrwt>
<totfact> 0.12044877E-01</totfact>
</mgrwt>
</event>
<event>
 6    1  0.2047711E-005  0.1456151E+04  0.7818608E-02  0.8914147E-01
          1   -1    0    0  501    0  0.00000000000E+00  0.00000000000E+00  0.20990073200E+04  0.20990073200E+04  0.00000000000E+00 0. -1.
         -1   -1    0    0    0  501 -0.00000000000E+00 -0.00000000000E+00 -0.25254516673E+03  0.25254516673E+03  0.00000000000E+00 0.  1.
         23    2    1    2    0    0 -0.63705207283E+02  0.71146400700E+03  0.72439497347E+03  0.10214118390E+04  0.91075137299E+02 0.  0.
         11    1    3    3    0    0 -0.87079578277E+02  0.58055958029E+03  0.58527711439E+03  0.82896416077E+03  0.00000000000E+00 0. -1.
        -11    1    3    3    0    0  0.23374370994E+02  0.13090442671E+03  0.13911785909E+03  0.19244767826E+03  0.00000000000E+00 0.  1.
         22    1    1    2    0    0  0.63705207283E+02 -0.71146400700E+03  0.11220671798E+04  0.13301406477E+04  0.00000000000E+00 0. -1.
<mgrwt>
<rscale>  0 0.14561513E+04</rscale>
<asrwt>0</asrwt>
<pdfrwt beam="1">  1        1 0.32292419E+00 0.14561513E+04</pdfrwt>
<pdfrwt beam="2">  1       -1 0.38853104E-01 0.14561513E+04</pdfrwt>
<totfact> 0.15933691E+01</totfact>
</mgrwt>
</event>
<event>
 6    1  0.2047711E-005  0.1031036E+04  0.7818608E-02  0.9275145E-01
          2   -1    0    0  501    0  0.00000000000E+00  0.00000000000E+00  0.17859010979E+04  0.17859010979E+04  0.00000000000E+00 0. -1.
         -2   -1    0    0    0  501 -0.00000000000E+00 -0.00000000000E+00 -0.14880937399E+03  0.14880937399E+03  0.00000000000E+00 0.  1.
         23    2    1    2    0    0  0.15228927234E+03 -0.30528721857E+03  0.15401020758E+04  0.15800285015E+04  0.90461889773E+02 0.  0.
         13    1    3    3    0    0  0.39843744352E+02 -0.73072323344E+02  0.57676314505E+03  0.58273734554E+03  0.00000000000E+00 0. -1.
        -13    1    3    3    0    0  0.11244552799E+03 -0.23221489522E+03  0.96333893073E+03  0.99729115597E+03  0.00000000000E+00 0.  1.
         22    1    1    2    0    0 -0.15228927234E+03  0.30528721857E+03  0.96989648179E+02  0.35468197042E+03  0.00000000000E+00 0.  1.
<mgrwt>
<rscale>  0 0.10310360E+04</rscale>
<asrwt>0</asrwt>
<pdfrwt beam="1">  1        2 0.27475400E+00 0.10310360E+04</pdfrwt>
<pdfrwt beam="2">  1       -2 0.22893751E-01 0.10310360E+04</pdfrwt>
<totfact> 0.14738380E+02</totfact>
</mgrwt>
</event>
<event>
 6    1  0.2047711E-005  0.1571428E+04  0.7818608E-02  0.8838295E-01
         -2   -1    0    0    0  501 -0.00000000000E+00  0.00000000000E+00  0.96195957791E+03  0.96195957791E+03  0.00000000000E+00 0.  1.
          2   -1    0    0  501    0  0.00000000000E+00 -0.00000000000E+00 -0.64175957837E+03  0.64175957837E+03  0.00000000000E+00 0. -1.
         23    2    1    2    0    0  0.34940903748E+03 -0.30650203608E+03 -0.48268590889E+03  0.67600370662E+03  0.89247695364E+02 0.  0.
         11    1    3    3    0    0  0.13972843854E+03 -0.67016573223E+02 -0.15644938177E+03  0.22020823481E+03  0.00000000000E+00 0. -1.
        -11    1    3    3    0    0  0.20968059894E+03 -0.23948546286E+03 -0.32623652712E+03  0.45579547181E+03  0.00000000000E+00 0.  1.
         22    1    1    2    0    0 -0.34940903748E+03  0.30650203608E+03  0.80288590842E+03  0.92771544966E+03  0.00000000000E+00 0.  1.
<mgrwt>
<rscale>  0 0.15714284E+04</rscale>
<asrwt>0</asrwt>
<pdfrwt beam="1">  1        2 0.98732243E-01 0.15714284E+04</pdfrwt>
<pdfrwt beam="2">  1       -2 0.14799378E+00 0.15714284E+04</pdfrwt>
<totfact> 0.13621282E+01</totfact>
</mgrwt>
</event>
<event>
 6    1  0.2047711E-005  0.2556252E+04  0.7818608E-02  0.8383215E-01
         -2   -1    0    0    0  501 -0.00000000000E+00  0.00000000000E+00  0.12257869956E+04  0.12257869956E+04  0.00000000000E+00 0.  1.
          2   -1    0    0  501    0  0.00000000000E+00 -0.00000000000E+00 -0.13326994745E+04  0.13326994745E+04  0.00000000000E+00 0. -1.
         23    2    1    2    0    0  0.93021108055E+03 -0.66552214152E+02 -0.92602971428E+03  0.13172472116E+04  0.88810658448E+02 0.  0.
         11    1    3    3    0    0  0.48919168792E+03 -0.73289952509E+02 -0.45781680050E+03  0.67400010942E+03  0.00000000000E+00 0.  1.
        -11    1    3    3    0    0  0.44101939263E+03  0.67377383564E+01 -0.46821291378E+03  0.64324710215E+03  0.00000000000E+00 0. -1.
         22    1    1    2    0    0 -0.93021108055E+03  0.66552214152E+02  0.81911723539E+03  0.12412392585E+04  0.00000000000E+00 0.  1.
<mgrwt>
<rscale>  0 0.25562517E+04</rscale>
<asrwt>0</asrwt>
<pdfrwt beam="1">  1        2 0.20503069E+00 0.25562517E+04</pdfrwt>
<pdfrwt beam="2">  1       -2 0.18858261E+00 0.25562517E+04</pdfrwt>
<totfact> 0.22257573E+00</totfact>
</mgrwt>
</event>
<event>
 6    1  0.2047711E-005  0.2253671E+04  0.7818608E-02  0.8496415E-01
          2   -1    0    0  501    0  0.00000000000E+00  0.00000000000E+00  0.27000035202E+04  0.27000035202E+04  0.00000000000E+00 0. -1.
         -2   -1    0    0    0  501 -0.00000000000E+00 -0.00000000000E+00 -0.47028014762E+03  0.47028014762E+03  0.00000000000E+00 0.  1.
         23    2    1    2    0    0 -0.10311628192E+04 -0.25384167249E+03  0.59470609310E+03  0.12206647670E+04  0.92815848545E+02 0.  0.
         13    1    3    3    0    0 -0.64703726343E+03 -0.11997760589E+03  0.33986946722E+03  0.74065045800E+03  0.00000000000E+00 0. -1.
        -13    1    3    3    0    0 -0.38412555577E+03 -0.13386406660E+03  0.25483662588E+03  0.48001430896E+03  0.00000000000E+00 0.  1.
         22    1    1    2    0    0  0.10311628192E+04  0.25384167249E+03  0.16350172795E+04  0.19496189009E+04  0.00000000000E+00 0. -1.
<mgrwt>
<rscale>  0 0.22536708E+04</rscale>
<asrwt>0</asrwt>
<pdfrwt beam="1">  1        2 0.41538515E+00 0.22536708E+04</pdfrwt>
<pdfrwt beam="2">  1       -2 0.72350794E-01 0.22536708E+04</pdfrwt>
<totfact> 0.41794256E+00</totfact>
</mgrwt>
</event>
<event>
 6    1  0.2047711E-005  0.1654444E+04  0.7818608E-02  0.8787782E-01
         -2   -1    0    0    0  501 -0.00000000000E+00  0.00000000000E+00  0.62427655423E+03  0.62427655423E+03  0.00000000000E+00 0. -1.
          2   -1    0    0  501    0  0.00000000000E+00 -0.00000000000E+00 -0.10961433867E+04  0.10961433867E+04  0.00000000000E+00 0.  1.
         23    2    1    2    0    0  0.14089818924E+00  0.21285677802E+03 -0.10651955712E+04  0.10900652630E+04  0.91063959780E+02 0.  0.
         13    1    3    3    0    0 -0.34417438222E+02  0.31972365796E+02 -0.24287850715E+03  0.24737979195E+03  0.00000000000E+00 0. -1.
        -13    1    3    3    0    0  0.34558336411E+02  0.18088441222E+03 -0.82231706409E+03  0.84268547103E+03  0.00000000000E+00 0.  1.
         22    1    1    2    0    0 -0.14089818924E+00 -0.21285677802E+03  0.59332873876E+03  0.63035467797E+03  0.00000000000E+00 0. -1.
<mgrwt>
<rscale>  0 0.16544445E+04</rscale>
<asrwt>0</asrwt>
<pdfrwt beam="1">  1        2 0.16863744E+00 0.16544445E+04</pdfrwt>
<pdfrwt beam="2">  1       -2 0.96042547E-01 0.16544445E+04</pdfrwt>
<totfact> 0.19007978E+01</totfact>
</mgrwt>
</event>
<event>
 6    1  0.2047711E-005  0.3405178E+04  0.7818608E-02  0.8136637E-01
          2   -1    0    0  501    0  0.00000000000E+00  0.00000000000E+00  0.34936175273E+04  0.34936175273E+04  0.00000000000E+00 0. -1.
         -2   -1    0    0    0  501 -0.00000000000E+00 -0.00000000000E+00 -0.82974435942E+03  0.82974435942E+03  0.00000000000E+00 0.  1.
         23    2    1    2    0    0  0.73124971571E+03 -0.14949808506E+04  0.17816774315E+04  0.24397581047E+04  0.91385170302E+02 0.  0.
         11    1    3    3    0    0  0.41091050914E+03 -0.93903522454E+03  0.10821323733E+04  0.14905183906E+04  0.00000000000E+00 0.  1.
        -11    1    3    3    0    0  0.32033920657E+03 -0.55594562602E+03  0.69954505821E+03  0.94923971410E+03  0.00000000000E+00 0. -1.
         22    1    1    2    0    0 -0.73124971571E+03  0.14949808506E+04  0.88219573636E+03  0.18836037820E+04  0.00000000000E+00 0.  1.
<mgrwt>
<rscale>  0 0.34051781E+04</rscale>
<asrwt>0</asrwt>
<pdfrwt beam="1">  1        2 0.53747961E+00 0.34051781E+04</pdfrwt>
<pdfrwt beam="2">  1       -2 0.12765298E+00 0.34051781E+04</pdfrwt>
<totfact> 0.30886365E-01</totfact>
</mgrwt>
</event>
<event>
 6    1  0.2047711E-005  0.1487292E+04  0.7818608E-02  0.8892948E-01
          1   -1    0    0  501    0  0.00000000000E+00  0.00000000000E+00  0.94351902829E+03  0.94351902829E+03  0.00000000000E+00 0. -1.
         -1   -1    0    0    0  501 -0.00000000000E+00 -0.00000000000E+00 -0.58611397337E+03  0.58611397337E+03  0.00000000000E+00 0.  1.
         23    2    1    2    0    0  0.20714086702E+03  0.10092866022E+03 -0.54574264631E+03  0.59755483782E+03  0.78376112164E+02 0.  0.
         13    1    3    3    0    0  0.16139258089E+03  0.38451530552E+02 -0.36697781930E+03  0.40273912800E+03  0.00000000000E+00 0. -1.
        -13    1    3    3    0    0  0.45748286132E+02  0.62477129666E+02 -0.17876482701E+03  0.19481570982E+03  0.00000000000E+00 0.  1.
         22    1    1    2    0    0 -0.20714086702E+03 -0.10092866022E+03  0.90314770124E+03  0.93207816384E+03  0.00000000000E+00 0. -1.
<mgrwt>
<rscale>  0 0.14872924E+04</rscale>
<asrwt>0</asrwt>
<pdfrwt beam="1">  1        1 0.14515677E+00 0.14872924E+04</pdfrwt>
<pdfrwt beam="2">  1       -1 0.90171381E-01 0.14872924E+04</pdfrwt>
<totfact> 0.19544329E+01</totfact>
</mgrwt>
</event>
<event>
 6    1  0.2047711E-005  0.1470375E+04  0.7818608E-02  0.8904396E-01
         -2   -1    0    0    0  501 -0.00000000000E+00  0.00000000000E+00  0.11144253419E+04  0.11144253419E+04  0.00000000000E+00 0.  1.
          2   -1    0    0  501    0  0.00000000000E+00 -0.00000000000E+00 -0.48500409893E+03  0.48500409893E+03  0.00000000000E+00 0. -1.
         23    2    1    2    0    0 -0.17153226981E+03 -0.71192088408E+03  0.30979919066E+03  0.80042198085E+03  0.91897465178E+02 0.  0.
         13    1    3    3    0    0 -0.57782556765E+02 -0.42076387133E+03  0.16073953432E+03  0.45411260407E+03  0.00000000000E+00 0.  1.
        -13    1    3    3    0    0 -0.11374971305E+03 -0.29115701275E+03  0.14905965634E+03  0.34630937677E+03  0.00000000000E+00 0. -1.
         22    1    1    2    0    0  0.17153226981E+03  0.71192088408E+03  0.31962205230E+03  0.79900745998E+03  0.00000000000E+00 0.  1.
<mgrwt>
<rscale>  0 0.14703753E+04</rscale>
<asrwt>0</asrwt>
<pdfrwt beam="1">  1        2 0.74616016E-01 0.14703753E+04</pdfrwt>
<pdfrwt beam="2">  1       -2 0.17145005E+00 0.14703753E+04</pdfrwt>
<totfact> 0.12843996E+01</totfact>
</mgrwt>
</event>
<event>
 6    1  0.2047711E-005  0.2577411E+04  0.7818608E-02  0.8375915E-01
         -2   -1    0    0    0  501 -0.00000000000E+00  0.00000000000E+00  0.13016540693E+04  0.13016540693E+04  0.00000000000E+00 0.  1.
          2   -1    0    0  501    0  0.00000000000E+00 -0.00000000000E+00 -0.12758855836E+04  0.12758855836E+04  0.00000000000E+00 0. -1.
         23    2    1    2    0    0  0.17442130143E+03  0.15950240601E+03 -0.12523953700E+04  0.12777063367E+04  0.90418538708E+02 0.  0.
         13    1    3    3    0    0  0.65230769176E+02  0.39933887052E+02 -0.22536661798E+03  0.23799134665E+03  0.00000000000E+00 0. -1.
        -13    1    3    3    0    0  0.10919053225E+03  0.11956851895E+03 -0.10270287520E+04  0.10397149901E+04  0.00000000000E+00 0.  1.
         22    1    1    2    0    0 -0.17442130143E+03 -0.15950240601E+03  0.12781638556E+04  0.12998333162E+04  0.00000000000E+00 0.  1.
<mgrwt>
<rscale>  0 0.25774108E+04</rscale>
<asrwt>0</asrwt>
<pdfrwt beam="1">  1        2 0.19629009E+00 0.25774108E+04</pdfrwt>
<pdfrwt beam="2">  1       -2 0.20025447E+00 0.25774108E+04</pdfrwt>
<totfact> 0.20051885E+00</totfact>
</mgrwt>
</event>
<event>
 6    1  0.2047711E-005  0.4308229E+04  0.7818608E-02  0.7945098E-01
          2   -1    0    0  501    0  0.00000000000E+00  0.00000000000E+00  0.37647736434E+04  0.37647736434E+04  0.00000000000E+00 0. -1.
         -2   -1    0    0    0  501 -0.00000000000E+00 -0.00000000000E+00 -0.12325335979E+04  0.12325335979E+04  0.00000000000E+00 0.  1.
         23    2    1    2    0    0  0.82456042494E+03  0.14201911459E+04  0.28820472859E+04  0.33182575426E+04  0.88282362014E+02 0.  0.
         11    1    3    3    0    0  0.35717017367E+03  0.66270850851E+03  0.13954410327E+04  0.15855626055E+04  0.00000000000E+00 0. -1.
        -11    1    3    3    0    0  0.46739025127E+03  0.75748263740E+03  0.14866062532E+04  0.17326949371E+04  0.00000000000E+00 0.  1.
         22    1    1    2    0    0 -0.82456042494E+03 -0.14201911459E+04 -0.34980724044E+03  0.16790496987E+04  0.00000000000E+00 0.  1.
<mgrwt>
<rscale>  0 0.43082293E+04</rscale>
<asrwt>0</asrwt>
<pdfrwt beam="1">  1        2 0.57919594E+00 0.43082293E+04</pdfrwt>
<pdfrwt beam="2">  1       -2 0.18962056E+00 0.43082293E+04</pdfrwt>
<totfact> 0.62475513E-02</totfact>
</mgrwt>
</event>
<event>
 6    1  0.2047711E-005  0.1168521E+04  0.7818608E-02  0.9140865E-01
         -1   -1    0    0    0  501 -0.00000000000E+00  0.00000000000E+00  0.53033251757E+03  0.53033251757E+03  0.00000000000E+00 0.  1.
          1   -1    0    0  501    0  0.00000000000E+00 -0.00000000000E+00 -0.64367203511E+03  0.64367203511E+03  0.00000000000E+00 0. -1.
         23    2    1    2    0    0  0.47023170246E+03 -0.12611904891E+03 -0.37556840972E+03  0.62102366659E+03  0.87148698163E+02 0.  0.
         13    1    3    3    0    0  0.17936166268E+03 -0.62137244527E+01 -0.15002087800E+03  0.23391340331E+03  0.00000000000E+00 0. -1.
        -13    1    3    3    0    0  0.29087003977E+03 -0.11990532446E+03 -0.22554753172E+03  0.38711026328E+03  0.00000000000E+00 0.  1.
         22    1    1    2    0    0 -0.47023170246E+03  0.12611904891E+03  0.26222889218E+03  0.55298088609E+03  0.00000000000E+00 0.  1.
<mgrwt>
<rscale>  0 0.11685208E+04</rscale>
<asrwt>0</asrwt>
<pdfrwt beam="1">  1        1 0.99026467E-01 0.11685208E+04</pdfrwt>
<pdfrwt beam="2">  1       -1 0.81589618E-01 0.11685208E+04</pdfrwt>
<totfact> 0.45866582E+01</totfact>
</mgrwt>
</event>
<event>
 6    1  0.2047711E-005  0.7705446E+04  0.7818608E-02  0.7508757E-01
          2   -1    0    0  501    0  0.00000000000E+00  0.00000000000E+00  0.32338712795E+04  0.32338712795E+04  0.00000000000E+00 0. -1.
         -2   -1    0    0    0  501 -0.00000000000E+00 -0.00000000000E+00 -0.45900015334E+04  0.45900015334E+04  0.00000000000E+00 0.  1.
         23    2    1    2    0    0 -0.15722953881E+04  0.11745278181E+04  0.26876364964E+04  0.33290226582E+04  0.85869312044E+02 0.  0.
         11    1    3    3    0    0 -0.77893876055E+03  0.57109315632E+03  0.12514351809E+04  0.15808171931E+04  0.00000000000E+00 0. -1.
        -11    1    3    3    0    0 -0.79335662757E+03  0.60343466174E+03  0.14362013155E+04  0.17482054651E+04  0.00000000000E+00 0.  1.
         22    1    1    2    0    0  0.15722953881E+04 -0.11745278181E+04 -0.40437667503E+04  0.44948501547E+04  0.00000000000E+00 0.  1.
<mgrwt>
<rscale>  0 0.77054459E+04</rscale>
<asrwt>0</asrwt>
<pdfrwt beam="1">  1        2 0.49751866E+00 0.77054459E+04</pdfrwt>
<pdfrwt beam="2">  1       -2 0.70615408E+00 0.77054459E+04</pdfrwt>
<totfact> 0.16212725E-04</totfact>
</mgrwt>
</event>
<event>
 6    1  0.2047711E-005  0.3300706E+03  0.7818608E-02  0.1071106E+00
         -2   -1    0    0    0  501 -0.00000000000E+00  0.00000000000E+00  0.27511624088E+02  0.27511624088E+02  0.00000000000E+00 0.  1.
          2   -1    0    0  501    0  0.00000000000E+00 -0.00000000000E+00 -0.99000512244E+03  0.99000512244E+03  0.00000000000E+00 0. -1.
         23    2    1    2    0    0 -0.15175981701E+02 -0.14359994841E+03 -0.35414546554E+03  0.39226592915E+03  0.87191128014E+02 0.  0.
         13    1    3    3    0    0 -0.16366964616E+02 -0.82857249127E+01 -0.69243483149E+01  0.19608094442E+02  0.00000000000E+00 0.  1.
        -13    1    3    3    0    0  0.11909829153E+01 -0.13531422350E+03 -0.34722111722E+03  0.37265783471E+03  0.00000000000E+00 0. -1.
         22    1    1    2    0    0  0.15175981701E+02  0.14359994841E+03 -0.60834803281E+03  0.62525081738E+03  0.00000000000E+00 0.  1.
<mgrwt>
<rscale>  0 0.33007059E+03</rscale>
<asrwt>0</asrwt>
<pdfrwt beam="1">  1        2 0.15230850E+00 0.33007059E+03</pdfrwt>
<pdfrwt beam="2">  1       -2 0.42325570E-02 0.33007059E+03</pdfrwt>
<totfact> 0.67416131E+03</totfact>
</mgrwt>
</event>
<event>
 6    1  0.2047711E-005  0.1000187E+04  0.7818608E-02  0.9308339E-01
         -2   -1    0    0    0  501 -0.00000000000E+00  0.00000000000E+00  0.71866300019E+03  0.71866300019E+03  0.00000000000E+00 0.  1.
          2   -1    0    0  501    0  0.00000000000E+00 -0.00000000000E+00 -0.34799849504E+03  0.34799849504E+03  0.00000000000E+00 0. -1.
         23    2    1    2    0    0  0.14404743739E+03 -0.59115903962E+02  0.68909754266E+03  0.71219858645E+03  0.90150146507E+02 0.  0.
         11    1    3    3    0    0  0.44437924112E+01 -0.30133190355E+00  0.20287559803E+03  0.20292448439E+03  0.00000000000E+00 0. -1.
        -11    1    3    3    0    0  0.13960364498E+03 -0.58814572059E+02  0.48622194464E+03  0.50927410206E+03  0.00000000000E+00 0.  1.
         22    1    1    2    0    0 -0.14404743739E+03  0.59115903962E+02 -0.31843303751E+03  0.35446290878E+03  0.00000000000E+00 0. -1.
<mgrwt>
<rscale>  0 0.10001873E+04</rscale>
<asrwt>0</asrwt>
<pdfrwt beam="1">  1        2 0.53538230E-01 0.10001873E+04</pdfrwt>
<pdfrwt beam="2">  1       -2 0.11056354E+00 0.10001873E+04</pdfrwt>
<totfact> 0.60250952E+01</totfact>
</mgrwt>
</event>
<event>
 6    1  0.2047711E-005  0.1078927E+04  0.7818608E-02  0.9225978E-01
         -2   -1    0    0    0  501 -0.00000000000E+00  0.00000000000E+00  0.16865398869E+03  0.16865398869E+03  0.00000000000E+00 0.  1.
          2   -1    0    0  501    0  0.00000000000E+00 -0.00000000000E+00 -0.17255497354E+04  0.17255497354E+04  0.00000000000E+00 0. -1.
         23    2    1    2    0    0 -0.51001704773E+03  0.16190962817E+03 -0.82526929577E+03  0.98777701422E+03  0.91114777128E+02 0.  0.
         11    1    3    3    0    0 -0.18642405332E+02 -0.11096397528E+02 -0.28439525593E+02  0.35769762798E+02  0.00000000000E+00 0.  1.
        -11    1    3    3    0    0 -0.49137464239E+03  0.17300602570E+03 -0.79682977018E+03  0.95200725142E+03  0.00000000000E+00 0. -1.
         22    1    1    2    0    0  0.51001704773E+03 -0.16190962817E+03 -0.73162645094E+03  0.90642670988E+03  0.00000000000E+00 0.  1.
<mgrwt>
<rscale>  0 0.10789270E+04</rscale>
<asrwt>0</asrwt>
<pdfrwt beam="1">  1        2 0.26546918E+00 0.10789270E+04</pdfrwt>
<pdfrwt beam="2">  1       -2 0.25946768E-01 0.10789270E+04</pdfrwt>
<totfact> 0.12651865E+02</totfact>
</mgrwt>
</event>
<event>
 6    1  0.2047711E-005  0.2542573E+04  0.7818608E-02  0.8387974E-01
         -2   -1    0    0    0  501 -0.00000000000E+00  0.00000000000E+00  0.77261798186E+03  0.77261798186E+03  0.00000000000E+00 0.  1.
          2   -1    0    0  501    0  0.00000000000E+00 -0.00000000000E+00 -0.20918097826E+04  0.20918097826E+04  0.00000000000E+00 0. -1.
         23    2    1    2    0    0 -0.40714771692E+03  0.11903304776E+04 -0.85385940658E+03  0.15230888266E+04  0.89820811901E+02 0.  0.
         11    1    3    3    0    0 -0.15871744378E+03  0.35648084998E+03 -0.29196197482E+03  0.48735163701E+03  0.00000000000E+00 0.  1.
        -11    1    3    3    0    0 -0.24843027314E+03  0.83384962758E+03 -0.56189743176E+03  0.10357371896E+04  0.00000000000E+00 0. -1.
         22    1    1    2    0    0  0.40714771692E+03 -0.11903304776E+04 -0.46533239413E+03  0.13413389379E+04  0.00000000000E+00 0. -1.
<mgrwt>
<rscale>  0 0.25425734E+04</rscale>
<asrwt>0</asrwt>
<pdfrwt beam="1">  1        2 0.32181689E+00 0.25425734E+04</pdfrwt>
<pdfrwt beam="2">  1       -2 0.11886431E+00 0.25425734E+04</pdfrwt>
<totfact> 0.28693016E+00</totfact>
</mgrwt>
</event>
<event>
 6    1  0.2047711E-005  0.2181364E+04  0.7818608E-02  0.8526225E-01
         -2   -1    0    0    0  501 -0.00000000000E+00  0.00000000000E+00  0.42662789716E+03  0.42662789716E+03  0.00000000000E+00 0.  1.
          2   -1    0    0  501    0  0.00000000000E+00 -0.00000000000E+00 -0.27883476698E+04  0.27883476698E+04  0.00000000000E+00 0. -1.
         23    2    1    2    0    0  0.39038630887E+03 -0.90135101215E+03 -0.18750487789E+04  0.21187621875E+04  0.92250563817E+02 0.  0.
         13    1    3    3    0    0  0.17589316475E+03 -0.38227892790E+03 -0.70834031291E+03  0.82390629504E+03  0.00000000000E+00 0.  1.
        -13    1    3    3    0    0  0.21449314412E+03 -0.51907208425E+03 -0.11667084660E+04  0.12948558925E+04  0.00000000000E+00 0. -1.
         22    1    1    2    0    0 -0.39038630887E+03  0.90135101215E+03 -0.48667099375E+03  0.10962133795E+04  0.00000000000E+00 0.  1.
<mgrwt>
<rscale>  0 0.21813637E+04</rscale>
<asrwt>0</asrwt>
<pdfrwt beam="1">  1        2 0.42897657E+00 0.21813637E+04</pdfrwt>
<pdfrwt beam="2">  1       -2 0.65635061E-01 0.21813637E+04</pdfrwt>
<totfact> 0.46029079E+00</totfact>
</mgrwt>
</event>
<event>
 6    1  0.2303481E-005  0.4606871E+04  0.7818608E-02  0.7892189E-01
         -2   -1    0    0    0  501 -0.00000000000E+00  0.00000000000E+00  0.15620303194E+04  0.15620303194E+04  0.00000000000E+00 0.  1.
          2   -1    0    0  501    0  0.00000000000E+00 -0.00000000000E+00 -0.33967434360E+04  0.33967434360E+04  0.00000000000E+00 0. -1.
         23    2    1    2    0    0  0.11508311486E+04  0.11583140677E+04  0.83011868272E+03  0.18334845958E+04  0.80404747492E+02 0.  0.
         11    1    3    3    0    0  0.59874441308E+03  0.57883361779E+03  0.38231731703E+03  0.91635678651E+03  0.00000000000E+00 0. -1.
        -11    1    3    3    0    0  0.55208673552E+03  0.57948044996E+03  0.44780136569E+03  0.91712780927E+03  0.00000000000E+00 0.  1.
         22    1    1    2    0    0 -0.11508311486E+04 -0.11583140677E+04 -0.26648317993E+04  0.31252891595E+04  0.00000000000E+00 0. -1.
<mgrwt>
<rscale>  0 0.46068715E+04</rscale>
<asrwt>0</asrwt>
<pdfrwt beam="1">  1        2 0.52257591E+00 0.46068715E+04</pdfrwt>
<pdfrwt beam="2">  1       -2 0.24031236E+00 0.46068715E+04</pdfrwt>
<totfact> 0.53005082E-02</totfact>
</mgrwt>
</event>
<event>
 6    1  0.2047711E-005  0.2529936E+04  0.7818608E-02  0.8392398E-01
         -2   -1    0    0    0  501 -0.00000000000E+00  0.00000000000E+00  0.84975760151E+03  0.84975760151E+03  0.00000000000E+00 0.  1.
          2   -1    0    0  501    0  0.00000000000E+00 -0.00000000000E+00 -0.18830590069E+04  0.18830590069E+04  0.00000000000E+00 0. -1.
         23    2    1    2    0    0 -0.48018210937E+03  0.68603597926E+03 -0.15389192677E+04  0.17546194679E+04  0.95899643728E+02 0.  0.
         11    1    3    3    0    0 -0.22771563036E+03  0.31348479613E+03 -0.61416470460E+03  0.72617174972E+03  0.00000000000E+00 0.  1.
        -11    1    3    3    0    0 -0.25246647901E+03  0.37255118313E+03 -0.92475456306E+03  0.10284477182E+04  0.00000000000E+00 0. -1.
         22    1    1    2    0    0  0.48018210937E+03 -0.68603597926E+03  0.50561786231E+03  0.97819714050E+03  0.00000000000E+00 0.  1.
<mgrwt>
<rscale>  0 0.25299357E+04</rscale>
<asrwt>0</asrwt>
<pdfrwt beam="1">  1        2 0.28970138E+00 0.25299357E+04</pdfrwt>
<pdfrwt beam="2">  1       -2 0.13073194E+00 0.25299357E+04</pdfrwt>
<totfact> 0.29561205E+00</totfact>
</mgrwt>
</event>
<event>
 6    1  0.2047711E-005  0.1515402E+04  0.7818608E-02  0.8874275E-01
         -2   -1    0    0    0  501 -0.00000000000E+00  0.00000000000E+00  0.24230730289E+03  0.24230730289E+03  0.00000000000E+00 0.  1.
          2   -1    0    0  501    0  0.00000000000E+00 -0.00000000000E+00 -0.23693505331E+04  0.23693505331E+04  0.00000000000E+00 0. -1.
         23    2    1    2    0    0  0.43617368136E+03 -0.59570163391E+03 -0.13394059091E+04  0.15320836299E+04  0.90355644816E+02 0.  0.
         13    1    3    3    0    0  0.22964600378E+03 -0.31245226000E+03 -0.79589258806E+03  0.88532972025E+03  0.00000000000E+00 0. -1.
        -13    1    3    3    0    0  0.20652767758E+03 -0.28324937391E+03 -0.54351332107E+03  0.64675390962E+03  0.00000000000E+00 0.  1.
         22    1    1    2    0    0 -0.43617368136E+03  0.59570163391E+03 -0.78763732111E+03  0.10795742061E+04  0.00000000000E+00 0.  1.
<mgrwt>
<rscale>  0 0.15154022E+04</rscale>
<asrwt>0</asrwt>
<pdfrwt beam="1">  1        2 0.36451547E+00 0.15154022E+04</pdfrwt>
<pdfrwt beam="2">  1       -2 0.37278047E-01 0.15154022E+04</pdfrwt>
<totfact> 0.27154573E+01</totfact>
</mgrwt>
</event>
<event>
 6    1  0.2047711E-005  0.1485537E+04  0.7818608E-02  0.8894128E-01
          1   -1    0    0  501    0  0.00000000000E+00  0.00000000000E+00  0.16901814057E+04  0.16901814057E+04  0.00000000000E+00 0. -1.
         -1   -1    0    0    0  501 -0.00000000000E+00 -0.00000000000E+00 -0.32641752082E+03  0.32641752082E+03  0.00000000000E+00 0.  1.
         23    2    1    2    0    0 -0.69682735705E+03 -0.24005973239E+03  0.59551967363E+03  0.95198810149E+03  0.91872863466E+02 0.  0.
         11    1    3    3    0    0 -0.55168278352E+03 -0.16900661119E+03  0.50492073391E+03  0.76672164166E+03  0.00000000000E+00 0. -1.
        -11    1    3    3    0    0 -0.14514457354E+03 -0.71053121199E+02  0.90598939715E+02  0.18526645983E+03  0.00000000000E+00 0.  1.
         22    1    1    2    0    0  0.69682735705E+03  0.24005973239E+03  0.76824421124E+03  0.10646108250E+04  0.00000000000E+00 0. -1.
<mgrwt>
<rscale>  0 0.14855367E+04</rscale>
<asrwt>0</asrwt>
<pdfrwt beam="1">  1        1 0.26002790E+00 0.14855367E+04</pdfrwt>
<pdfrwt beam="2">  1       -1 0.50218081E-01 0.14855367E+04</pdfrwt>
<totfact> 0.18661085E+01</totfact>
</mgrwt>
</event>
<event>
 6    1  0.2047711E-005  0.5237328E+03  0.7818608E-02  0.1007763E+00
          2   -1    0    0  501    0  0.00000000000E+00  0.00000000000E+00  0.15545173894E+03  0.15545173894E+03  0.00000000000E+00 0. -1.
         -2   -1    0    0    0  501 -0.00000000000E+00 -0.00000000000E+00 -0.44112733235E+03  0.44112733235E+03  0.00000000000E+00 0.  1.
         23    2    1    2    0    0  0.11767770523E+03  0.23100264472E+02 -0.40217490810E+03  0.42938530690E+03  0.90804298075E+02 0.  0.
         13    1    3    3    0    0  0.74808502985E+02 -0.23447558257E+02 -0.29189092067E+03  0.30223568565E+03  0.00000000000E+00 0. -1.
        -13    1    3    3    0    0  0.42869202247E+02  0.46547822729E+02 -0.11028398743E+03  0.12714962126E+03  0.00000000000E+00 0.  1.
         22    1    1    2    0    0 -0.11767770523E+03 -0.23100264472E+02  0.11649931469E+03  0.16719376439E+03  0.00000000000E+00 0. -1.
<mgrwt>
<rscale>  0 0.52373280E+03</rscale>
<asrwt>0</asrwt>
<pdfrwt beam="1">  1        2 0.23915653E-01 0.52373280E+03</pdfrwt>
<pdfrwt beam="2">  1       -2 0.67865742E-01 0.52373280E+03</pdfrwt>
<totfact> 0.46285386E+02</totfact>
</mgrwt>
</event>
<event>
 6    1  0.2047711E-005  0.2054026E+04  0.7818608E-02  0.8581770E-01
         -2   -1    0    0    0  501 -0.00000000000E+00  0.00000000000E+00  0.28967629552E+03  0.28967629552E+03  0.00000000000E+00 0.  1.
          2   -1    0    0  501    0  0.00000000000E+00 -0.00000000000E+00 -0.36411540393E+04  0.36411540393E+04  0.00000000000E+00 0. -1.
         23    2    1    2    0    0  0.26052317765E+03  0.79857400941E+03 -0.55448499071E+03  0.10104260417E+04  0.88962948406E+02 0.  0.
         11    1    3    3    0    0  0.53428034743E+02  0.80121960070E+02 -0.76586380242E+02  0.12304290723E+03  0.00000000000E+00 0. -1.
        -11    1    3    3    0    0  0.20709514291E+03  0.71845204934E+03 -0.47789861047E+03  0.88738313445E+03  0.00000000000E+00 0.  1.
         22    1    1    2    0    0 -0.26052317765E+03 -0.79857400941E+03 -0.27969927530E+04  0.29204042931E+04  0.00000000000E+00 0. -1.
<mgrwt>
<rscale>  0 0.20540263E+04</rscale>
<asrwt>0</asrwt>
<pdfrwt beam="1">  1        2 0.56017755E+00 0.20540263E+04</pdfrwt>
<pdfrwt beam="2">  1       -2 0.44565584E-01 0.20540263E+04</pdfrwt>
<totfact> 0.28649832E+00</totfact>
</mgrwt>
</event>
<event>
 6    1  0.2047711E-005  0.2204085E+04  0.7818608E-02  0.8516730E-01
         -2   -1    0    0    0  501 -0.00000000000E+00  0.00000000000E+00  0.11885614690E+04  0.11885614690E+04  0.00000000000E+00 0.  1.
          2   -1    0    0  501    0  0.00000000000E+00 -0.00000000000E+00 -0.10218215003E+04  0.10218215003E+04  0.00000000000E+00 0. -1.
         23    2    1    2    0    0 -0.10547000699E+03 -0.10880184285E+04  0.20787005787E+03  0.11164909695E+04  0.91837361100E+02 0.  0.
         13    1    3    3    0    0 -0.17803192680E+02 -0.64805271988E+03  0.11723619631E+03  0.65881227003E+03  0.00000000000E+00 0. -1.
        -13    1    3    3    0    0 -0.87666814309E+02 -0.43996570861E+03  0.90633861564E+02  0.45767869947E+03  0.00000000000E+00 0.  1.
         22    1    1    2    0    0  0.10547000699E+03  0.10880184285E+04 -0.41130089162E+02  0.10938919999E+04  0.00000000000E+00 0.  1.
<mgrwt>
<rscale>  0 0.22040850E+04</rscale>
<asrwt>0</asrwt>
<pdfrwt beam="1">  1        2 0.15720331E+00 0.22040850E+04</pdfrwt>
<pdfrwt beam="2">  1       -2 0.18285561E+00 0.22040850E+04</pdfrwt>
<totfact> 0.38616091E+00</totfact>
</mgrwt>
</event>
<event>
 6    1  0.2047711E-005  0.8167416E+03  0.7818608E-02  0.9536096E-01
          2   -1    0    0  501    0  0.00000000000E+00  0.00000000000E+00  0.47648164060E+03  0.47648164060E+03  0.00000000000E+00 0. -1.
         -2   -1    0    0    0  501 -0.00000000000E+00 -0.00000000000E+00 -0.34999607338E+03  0.34999607338E+03  0.00000000000E+00 0.  1.
         23    2    1    2    0    0  0.17464236332E+03 -0.11357874386E+03 -0.28527557828E+03  0.36501555187E+03  0.91946242007E+02 0.  0.
         13    1    3    3    0    0  0.56601015689E+02 -0.27253601685E+02 -0.16198495542E+03  0.17373991932E+03  0.00000000000E+00 0.  1.
        -13    1    3    3    0    0  0.11804134763E+03 -0.86325142172E+02 -0.12329062286E+03  0.19127563255E+03  0.00000000000E+00 0. -1.
         22    1    1    2    0    0 -0.17464236332E+03  0.11357874386E+03  0.41176114550E+03  0.46146216211E+03  0.00000000000E+00 0. -1.
<mgrwt>
<rscale>  0 0.81674158E+03</rscale>
<asrwt>0</asrwt>
<pdfrwt beam="1">  1        2 0.73304868E-01 0.81674158E+03</pdfrwt>
<pdfrwt beam="2">  1       -2 0.53845549E-01 0.81674158E+03</pdfrwt>
<totfact> 0.21302148E+02</totfact>
</mgrwt>
</event>
<event>
 6    1  0.2047711E-005  0.1073206E+04  0.7818608E-02  0.9231707E-01
          2   -1    0    0  501    0  0.00000000000E+00  0.00000000000E+00  0.12492882763E+03  0.12492882763E+03  0.00000000000E+00 0. -1.
         -2   -1    0    0    0  501 -0.00000000000E+00 -0.00000000000E+00 -0.23048565628E+04  0.23048565628E+04  0.00000000000E+00 0.  1.
         23    2    1    2    0    0 -0.62681016526E+01 -0.11319551949E+03 -0.22763019550E+04  0.22809885323E+04  0.92225696734E+02 0.  0.
         11    1    3    3    0    0 -0.30548186591E+02 -0.77139226301E+02 -0.19549600206E+04  0.19567197894E+04  0.00000000000E+00 0. -1.
        -11    1    3    3    0    0  0.24280084938E+02 -0.36056293184E+02 -0.32134193444E+03  0.32426874291E+03  0.00000000000E+00 0.  1.
         22    1    1    2    0    0  0.62681016526E+01  0.11319551949E+03  0.96374219886E+02  0.14879685813E+03  0.00000000000E+00 0. -1.
<mgrwt>
<rscale>  0 0.10732065E+04</rscale>
<asrwt>0</asrwt>
<pdfrwt beam="1">  1        2 0.19219821E-01 0.10732065E+04</pdfrwt>
<pdfrwt beam="2">  1       -2 0.35459329E+00 0.10732065E+04</pdfrwt>
<totfact> 0.44054514E+00</totfact>
</mgrwt>
</event>
<event>
 6    1  0.2047711E-005  0.1619960E+04  0.7818608E-02  0.8808379E-01
         -4   -1    0    0    0  501 -0.00000000000E+00  0.00000000000E+00  0.10478300617E+04  0.10478300617E+04  0.00000000000E+00 0.  1.
          4   -1    0    0  501    0  0.00000000000E+00 -0.00000000000E+00 -0.62612000270E+03  0.62612000270E+03  0.00000000000E+00 0. -1.
         23    2    1    2    0    0 -0.22129694978E+03 -0.70475564559E+03  0.54861060595E+03  0.92444582238E+03  0.89295137476E+02 0.  0.
         11    1    3    3    0    0 -0.34737667556E+02 -0.18128988548E+03  0.97971073963E+02  0.20897621744E+03  0.00000000000E+00 0. -1.
        -11    1    3    3    0    0 -0.18655928223E+03 -0.52346576012E+03  0.45063953199E+03  0.71546960494E+03  0.00000000000E+00 0.  1.
         22    1    1    2    0    0  0.22129694978E+03  0.70475564559E+03 -0.12690054696E+03  0.74950424201E+03  0.00000000000E+00 0.  1.
<mgrwt>
<rscale>  0 0.16199597E+04</rscale>
<asrwt>0</asrwt>
<pdfrwt beam="1">  1        4 0.96326155E-01 0.16199597E+04</pdfrwt>
<pdfrwt beam="2">  1       -4 0.16120462E+00 0.16199597E+04</pdfrwt>
<totfact> 0.42360047E-01</totfact>
</mgrwt>
</event>
<event>
 6    1  0.2047711E-005  0.1634039E+04  0.7818608E-02  0.8799905E-01
         -2   -1    0    0    0  501 -0.00000000000E+00  0.00000000000E+00  0.10125002124E+04  0.10125002124E+04  0.00000000000E+00 0.  1.
          2   -1    0    0  501    0  0.00000000000E+00 -0.00000000000E+00 -0.65927974536E+03  0.65927974536E+03  0.00000000000E+00 0. -1.
         23    2    1    2    0    0 -0.49945181237E+03 -0.64201630105E+03  0.13438581643E+03  0.82944650359E+03  0.91021486341E+02 0.  0.
         11    1    3    3    0    0 -0.26708139740E+03 -0.30122964657E+03  0.28425451229E+02  0.40358367049E+03  0.00000000000E+00 0.  1.
        -11    1    3    3    0    0 -0.23237041496E+03 -0.34078665448E+03  0.10596036520E+03  0.42586283310E+03  0.00000000000E+00 0. -1.
         22    1    1    2    0    0  0.49945181237E+03  0.64201630105E+03  0.21883465059E+03  0.84233345415E+03  0.00000000000E+00 0. -1.
<mgrwt>
<rscale>  0 0.16340390E+04</rscale>
<asrwt>0</asrwt>
<pdfrwt beam="1">  1        2 0.10142765E+00 0.16340390E+04</pdfrwt>
<pdfrwt beam="2">  1       -2 0.15576926E+00 0.16340390E+04</pdfrwt>
<totfact> 0.11437825E+01</totfact>
</mgrwt>
</event>
<event>
 6    1  0.2047711E-005  0.1924339E+04  0.7818608E-02  0.8642835E-01
         -2   -1    0    0    0  501 -0.00000000000E+00  0.00000000000E+00  0.29110505787E+03  0.29110505787E+03  0.00000000000E+00 0. -1.
          2   -1    0    0  501    0  0.00000000000E+00 -0.00000000000E+00 -0.31801922569E+04  0.31801922569E+04  0.00000000000E+00 0.  1.
         23    2    1    2    0    0  0.67303032310E+03 -0.28036524456E+03 -0.32504628687E+03  0.80561160836E+03  0.10853795994E+03 0.  0.
         13    1    3    3    0    0  0.21574975970E+03 -0.93352411898E+02 -0.50626983192E+02  0.24046979653E+03  0.00000000000E+00 0. -1.
        -13    1    3    3    0    0  0.45728056340E+03 -0.18701283266E+03 -0.27441930368E+03  0.56514181183E+03  0.00000000000E+00 0.  1.
         22    1    1    2    0    0 -0.67303032310E+03  0.28036524456E+03 -0.25640409121E+04  0.26656857064E+04  0.00000000000E+00 0.  1.
<mgrwt>
<rscale>  0 0.19243389E+04</rscale>
<asrwt>0</asrwt>
<pdfrwt beam="1">  1        2 0.48926036E+00 0.19243389E+04</pdfrwt>
<pdfrwt beam="2">  1       -2 0.44785392E-01 0.19243389E+04</pdfrwt>
<totfact> 0.59279700E+00</totfact>
</mgrwt>
</event>
<event>
 6    1  0.2047711E-005  0.4309381E+03  0.7818608E-02  0.1033564E+00
         -2   -1    0    0    0  501 -0.00000000000E+00  0.00000000000E+00  0.24669667613E+02  0.24669667613E+02  0.00000000000E+00 0.  1.
          2   -1    0    0  501    0  0.00000000000E+00 -0.00000000000E+00 -0.18819428272E+04  0.18819428272E+04  0.00000000000E+00 0. -1.
         23    2    1    2    0    0 -0.77143212802E+02  0.19006449357E+03 -0.90581171172E+03  0.93329113279E+03  0.91988556079E+02 0.  0.
         11    1    3    3    0    0 -0.53017168358E+02  0.26236684989E+02 -0.22927971157E+03  0.23678760508E+03  0.00000000000E+00 0. -1.
        -11    1    3    3    0    0 -0.24126044444E+02  0.16382780858E+03 -0.67653200015E+03  0.69650352771E+03  0.00000000000E+00 0.  1.
         22    1    1    2    0    0  0.77143212802E+02 -0.19006449357E+03 -0.95146144783E+03  0.97332136199E+03  0.00000000000E+00 0. -1.
<mgrwt>
<rscale>  0 0.43093807E+03</rscale>
<asrwt>0</asrwt>
<pdfrwt beam="1">  1        2 0.28952978E+00 0.43093807E+03</pdfrwt>
<pdfrwt beam="2">  1       -2 0.37953320E-02 0.43093807E+03</pdfrwt>
<totfact> 0.25344975E+03</totfact>
</mgrwt>
</event>
<event>
 6    1  0.2047711E-005  0.1628567E+04  0.7818608E-02  0.8803188E-01
         -2   -1    0    0    0  501 -0.00000000000E+00  0.00000000000E+00  0.28241969977E+03  0.28241969977E+03  0.00000000000E+00 0.  1.
          2   -1    0    0  501    0  0.00000000000E+00 -0.00000000000E+00 -0.23477729581E+04  0.23477729581E+04  0.00000000000E+00 0. -1.
         23    2    1    2    0    0  0.77101008125E+03 -0.36313310078E+02 -0.14417428326E+04  0.16378896976E+04  0.91022328431E+02 0.  0.
         13    1    3    3    0    0  0.25066559340E+03 -0.54561193694E+02 -0.48049468024E+03  0.54468826067E+03  0.00000000000E+00 0.  1.
        -13    1    3    3    0    0  0.52034448785E+03  0.18247883615E+02 -0.96124815234E+03  0.10932014369E+04  0.00000000000E+00 0. -1.
         22    1    1    2    0    0 -0.77101008125E+03  0.36313310078E+02 -0.62361042575E+03  0.99230296028E+03  0.00000000000E+00 0. -1.
<mgrwt>
<rscale>  0 0.16285667E+04</rscale>
<asrwt>0</asrwt>
<pdfrwt beam="1">  1        2 0.36119586E+00 0.16285667E+04</pdfrwt>
<pdfrwt beam="2">  1       -2 0.43449182E-01 0.16285667E+04</pdfrwt>
<totfact> 0.20492244E+01</totfact>
</mgrwt>
</event>
<event>
 6    1  0.2047711E-005  0.2532003E+04  0.7818608E-02  0.8391672E-01
          2   -1    0    0  501    0  0.00000000000E+00  0.00000000000E+00  0.23367868576E+04  0.23367868576E+04  0.00000000000E+00 0. -1.
         -2   -1    0    0    0  501 -0.00000000000E+00 -0.00000000000E+00 -0.68588175800E+03  0.68588175800E+03  0.00000000000E+00 0.  1.
         23    2    1    2    0    0 -0.79746133376E+01 -0.64521173399E+03 -0.47142240877E+03  0.80441799204E+03  0.92127315700E+02 0.  0.
         13    1    3    3    0    0 -0.48266018909E+02 -0.27803846040E+03 -0.19359518846E+03  0.34221936099E+03  0.00000000000E+00 0.  1.
        -13    1    3    3    0    0  0.40291405571E+02 -0.36717327359E+03 -0.27782722031E+03  0.46219863105E+03  0.00000000000E+00 0. -1.
         22    1    1    2    0    0  0.79746133376E+01  0.64521173399E+03  0.21223275083E+04  0.22182506235E+04  0.00000000000E+00 0. -1.
<mgrwt>
<rscale>  0 0.25320027E+04</rscale>
<asrwt>0</asrwt>
<pdfrwt beam="1">  1        2 0.35950567E+00 0.25320027E+04</pdfrwt>
<pdfrwt beam="2">  1       -2 0.10552027E+00 0.25320027E+04</pdfrwt>
<totfact> 0.27911762E+00</totfact>
</mgrwt>
</event>
<event>
 6    1  0.2047711E-005  0.1672223E+04  0.7818608E-02  0.8777367E-01
         -1   -1    0    0    0  501 -0.00000000000E+00  0.00000000000E+00  0.46349797537E+03  0.46349797537E+03  0.00000000000E+00 0.  1.
          1   -1    0    0  501    0  0.00000000000E+00 -0.00000000000E+00 -0.15082751740E+04  0.15082751740E+04  0.00000000000E+00 0. -1.
         23    2    1    2    0    0  0.24966614370E+03 -0.78785716042E+03 -0.39511264307E+03  0.92052811453E+03  0.90586535371E+02 0.  0.
         13    1    3    3    0    0  0.11381466591E+03 -0.23479790639E+03 -0.14517952496E+03  0.29859827443E+03  0.00000000000E+00 0. -1.
        -13    1    3    3    0    0  0.13585147779E+03 -0.55305925403E+03 -0.24993311811E+03  0.62192984010E+03  0.00000000000E+00 0.  1.
         22    1    1    2    0    0 -0.24966614370E+03  0.78785716042E+03 -0.64966455555E+03  0.10512450348E+04  0.00000000000E+00 0. -1.
<mgrwt>
<rscale>  0 0.16722231E+04</rscale>
<asrwt>0</asrwt>
<pdfrwt beam="1">  1        1 0.23204233E+00 0.16722231E+04</pdfrwt>
<pdfrwt beam="2">  1       -1 0.71307381E-01 0.16722231E+04</pdfrwt>
<totfact> 0.12228454E+01</totfact>
</mgrwt>
</event>
<event>
 6    1  0.2295485E-005  0.4981436E+04  0.7818608E-02  0.7831377E-01
          2   -1    0    0  501    0  0.00000000000E+00  0.00000000000E+00  0.24768502042E+04  0.24768502042E+04  0.00000000000E+00 0. -1.
         -2   -1    0    0    0  501 -0.00000000000E+00 -0.00000000000E+00 -0.25046632402E+04  0.25046632402E+04  0.00000000000E+00 0.  1.
         23    2    1    2    0    0 -0.17329950206E+04 -0.27568548889E+03 -0.17802439376E+04  0.25015359657E+04  0.95600628489E+02 0.  0.
         13    1    3    3    0    0 -0.10868101027E+04 -0.12634806054E+03 -0.11167232698E+04  0.15633908318E+04  0.00000000000E+00 0.  1.
        -13    1    3    3    0    0 -0.64618491793E+03 -0.14933742834E+03 -0.66352066779E+03  0.93814513389E+03  0.00000000000E+00 0. -1.
         22    1    1    2    0    0  0.17329950206E+04  0.27568548889E+03  0.17524309015E+04  0.24799774787E+04  0.00000000000E+00 0. -1.
<mgrwt>
<rscale>  0 0.49814358E+04</rscale>
<asrwt>0</asrwt>
<pdfrwt beam="1">  1        2 0.38105388E+00 0.49814358E+04</pdfrwt>
<pdfrwt beam="2">  1       -2 0.38533281E+00 0.49814358E+04</pdfrwt>
<totfact> 0.24218091E-02</totfact>
</mgrwt>
</event>
<event>
 6    1  0.2047711E-005  0.1122656E+04  0.7818608E-02  0.9183386E-01
         -2   -1    0    0    0  501 -0.00000000000E+00  0.00000000000E+00  0.41800079219E+03  0.41800079219E+03  0.00000000000E+00 0.  1.
          2   -1    0    0  501    0  0.00000000000E+00 -0.00000000000E+00 -0.75380089694E+03  0.75380089694E+03  0.00000000000E+00 0. -1.
         23    2    1    2    0    0 -0.37589401349E+03 -0.37053085436E+03  0.17894077188E+02  0.53643644161E+03  0.94098004608E+02 0.  0.
         13    1    3    3    0    0 -0.86749360946E+02 -0.13604678222E+03  0.29293351463E+02  0.16398865515E+03  0.00000000000E+00 0. -1.
        -13    1    3    3    0    0 -0.28914465255E+03 -0.23448407214E+03 -0.11399274275E+02  0.37244778646E+03  0.00000000000E+00 0.  1.
         22    1    1    2    0    0  0.37589401349E+03  0.37053085436E+03 -0.35369418194E+03  0.63536524752E+03  0.00000000000E+00 0. -1.
<mgrwt>
<rscale>  0 0.11226564E+04</rscale>
<asrwt>0</asrwt>
<pdfrwt beam="1">  1        2 0.11596937E+00 0.11226564E+04</pdfrwt>
<pdfrwt beam="2">  1       -2 0.64307814E-01 0.11226564E+04</pdfrwt>
<totfact> 0.82558434E+01</totfact>
</mgrwt>
</event>
<event>
 6    1  0.2047711E-005  0.4221335E+04  0.7818608E-02  0.7961326E-01
         -2   -1    0    0    0  501 -0.00000000000E+00  0.00000000000E+00  0.32291204707E+04  0.32291204707E+04  0.00000000000E+00 0. -1.
          2   -1    0    0  501    0  0.00000000000E+00 -0.00000000000E+00 -0.13796072080E+04  0.13796072080E+04  0.00000000000E+00 0.  1.
         23    2    1    2    0    0 -0.11317434326E+04  0.32500442471E+03 -0.98606182891E+03  0.15383926524E+04  0.88673271386E+02 0.  0.
         13    1    3    3    0    0 -0.55272494945E+03  0.13309559058E+03 -0.42776804255E+03  0.71148071246E+03  0.00000000000E+00 0. -1.
        -13    1    3    3    0    0 -0.57901848319E+03  0.19190883413E+03 -0.55829378636E+03  0.82691193992E+03  0.00000000000E+00 0.  1.
         22    1    1    2    0    0  0.11317434326E+04 -0.32500442471E+03  0.28355750916E+04  0.30703350263E+04  0.00000000000E+00 0. -1.
<mgrwt>
<rscale>  0 0.42213353E+04</rscale>
<asrwt>0</asrwt>
<pdfrwt beam="1">  1        2 0.21224726E+00 0.42213353E+04</pdfrwt>
<pdfrwt beam="2">  1       -2 0.49678776E+00 0.42213353E+04</pdfrwt>
<totfact> 0.19943920E-02</totfact>
</mgrwt>
</event>
<event>
 6    1  0.2047711E-005  0.4256297E+04  0.7818608E-02  0.7954749E-01
         -1   -1    0    0    0  501 -0.00000000000E+00  0.00000000000E+00  0.19478683901E+04  0.19478683901E+04  0.00000000000E+00 0.  1.
          1   -1    0    0  501    0  0.00000000000E+00 -0.00000000000E+00 -0.23251139170E+04  0.23251139170E+04  0.00000000000E+00 0. -1.
         23    2    1    2    0    0 -0.11265999138E+03  0.11012141246E+04 -0.20122597127E+04  0.22984858625E+04  0.92104761201E+02 0.  0.
         11    1    3    3    0    0 -0.73684167745E+02  0.32340280733E+03 -0.62609224600E+03  0.70852680462E+03  0.00000000000E+00 0. -1.
        -11    1    3    3    0    0 -0.38975823631E+02  0.77781131726E+03 -0.13861674667E+04  0.15899590579E+04  0.00000000000E+00 0.  1.
         22    1    1    2    0    0  0.11265999138E+03 -0.11012141246E+04  0.16350141858E+04  0.19744964446E+04  0.00000000000E+00 0.  1.
<mgrwt>
<rscale>  0 0.42562969E+04</rscale>
<asrwt>0</asrwt>
<pdfrwt beam="1">  1        1 0.35770984E+00 0.42562969E+04</pdfrwt>
<pdfrwt beam="2">  1       -1 0.29967206E+00 0.42562969E+04</pdfrwt>
<totfact> 0.45502771E-02</totfact>
</mgrwt>
</event>
<event>
 6    1  0.2047711E-005  0.2494332E+04  0.7818608E-02  0.8405008E-01
         -2   -1    0    0    0  501 -0.00000000000E+00  0.00000000000E+00  0.75457815454E+03  0.75457815454E+03  0.00000000000E+00 0.  1.
          2   -1    0    0  501    0  0.00000000000E+00 -0.00000000000E+00 -0.20613147586E+04  0.20613147586E+04  0.00000000000E+00 0. -1.
         23    2    1    2    0    0  0.57538276582E+03 -0.67358163274E+03 -0.16425760656E+04  0.18684934794E+04  0.91837944267E+02 0.  0.
         11    1    3    3    0    0  0.34133483684E+03 -0.36885902909E+03 -0.84412627194E+03  0.98240298105E+03  0.00000000000E+00 0. -1.
        -11    1    3    3    0    0  0.23404792898E+03 -0.30472260365E+03 -0.79844979364E+03  0.88609049831E+03  0.00000000000E+00 0.  1.
         22    1    1    2    0    0 -0.57538276582E+03  0.67358163274E+03  0.33583946155E+03  0.94739943376E+03  0.00000000000E+00 0.  1.
<mgrwt>
<rscale>  0 0.24943320E+04</rscale>
<asrwt>0</asrwt>
<pdfrwt beam="1">  1        2 0.31712535E+00 0.24943320E+04</pdfrwt>
<pdfrwt beam="2">  1       -2 0.11608895E+00 0.24943320E+04</pdfrwt>
<totfact> 0.31750951E+00</totfact>
</mgrwt>
</event>
<event>
 6    1  0.2047711E-005  0.4941859E+04  0.7818608E-02  0.7837539E-01
          2   -1    0    0  501    0  0.00000000000E+00  0.00000000000E+00  0.35266164757E+04  0.35266164757E+04  0.00000000000E+00 0. -1.
         -2   -1    0    0    0  501 -0.00000000000E+00 -0.00000000000E+00 -0.17312607973E+04  0.17312607973E+04  0.00000000000E+00 0.  1.
         23    2    1    2    0    0  0.10692907428E+03 -0.20327336337E+04  0.23867656274E+04  0.31381589944E+04  0.89173211213E+02 0.  0.
         11    1    3    3    0    0  0.85525366871E+02 -0.14589214538E+04  0.16522336207E+04  0.22058201046E+04  0.00000000000E+00 0.  1.
        -11    1    3    3    0    0  0.21403707407E+02 -0.57381217993E+03  0.73453200672E+03  0.93233888980E+03  0.00000000000E+00 0. -1.
         22    1    1    2    0    0 -0.10692907428E+03  0.20327336337E+04 -0.59140994903E+03  0.21197182785E+04  0.00000000000E+00 0. -1.
<mgrwt>
<rscale>  0 0.49418591E+04</rscale>
<asrwt>0</asrwt>
<pdfrwt beam="1">  1        2 0.54255638E+00 0.49418591E+04</pdfrwt>
<pdfrwt beam="2">  1       -2 0.26634782E+00 0.49418591E+04</pdfrwt>
<totfact> 0.28998361E-02</totfact>
</mgrwt>
</event>
<event>
 6    1  0.2047711E-005  0.6031921E+04  0.7818608E-02  0.7686457E-01
         -1   -1    0    0    0  501 -0.00000000000E+00  0.00000000000E+00  0.23881141540E+04  0.23881141540E+04  0.00000000000E+00 0.  1.
          1   -1    0    0  501    0  0.00000000000E+00 -0.00000000000E+00 -0.38088711485E+04  0.38088711485E+04  0.00000000000E+00 0. -1.
         23    2    1    2    0    0 -0.26299492905E+04  0.13560842778E+04 -0.13063806429E+04  0.32357896338E+04  0.90035164018E+02 0.  0.
         13    1    3    3    0    0 -0.24020999998E+04  0.12153298913E+04 -0.11710969644E+04  0.29357416871E+04  0.00000000000E+00 0. -1.
        -13    1    3    3    0    0 -0.22784929073E+03  0.14075438656E+03 -0.13528367851E+03  0.30004794666E+03  0.00000000000E+00 0.  1.
         22    1    1    2    0    0  0.26299492905E+04 -0.13560842778E+04 -0.11437635159E+03  0.29611956688E+04  0.00000000000E+00 0.  1.
<mgrwt>
<rscale>  0 0.60319215E+04</rscale>
<asrwt>0</asrwt>
<pdfrwt beam="1">  1        1 0.58598018E+00 0.60319215E+04</pdfrwt>
<pdfrwt beam="2">  1       -1 0.36740218E+00 0.60319215E+04</pdfrwt>
<totfact> 0.11079593E-03</totfact>
</mgrwt>
</event>
<event>
 6    1  0.2047711E-005  0.1914176E+04  0.7818608E-02  0.8647832E-01
         -2   -1    0    0    0  501 -0.00000000000E+00  0.00000000000E+00  0.22867742900E+03  0.22867742900E+03  0.00000000000E+00 0.  1.
          2   -1    0    0  501    0  0.00000000000E+00 -0.00000000000E+00 -0.40057184960E+04  0.40057184960E+04  0.00000000000E+00 0. -1.
         23    2    1    2    0    0 -0.39518309966E+03  0.74069270907E+03 -0.28994255572E+04  0.30198983521E+04  0.91225675055E+02 0.  0.
         11    1    3    3    0    0 -0.21900959492E+03  0.36411982109E+03 -0.16085909345E+04  0.16637647794E+04  0.00000000000E+00 0.  1.
        -11    1    3    3    0    0 -0.17617350474E+03  0.37657288797E+03 -0.12908346228E+04  0.13561335727E+04  0.00000000000E+00 0. -1.
         22    1    1    2    0    0  0.39518309966E+03 -0.74069270907E+03 -0.87761550977E+03  0.12144975729E+04  0.00000000000E+00 0.  1.
<mgrwt>
<rscale>  0 0.19141760E+04</rscale>
<asrwt>0</asrwt>
<pdfrwt beam="1">  1        2 0.61626440E+00 0.19141760E+04</pdfrwt>
<pdfrwt beam="2">  1       -2 0.35181142E-01 0.19141760E+04</pdfrwt>
<totfact> 0.24315531E+00</totfact>
</mgrwt>
</event>
<event>
 6    1  0.2047711E-005  0.2259232E+04  0.7818608E-02  0.8494171E-01
         -1   -1    0    0    0  501 -0.00000000000E+00  0.00000000000E+00  0.49946591173E+03  0.49946591173E+03  0.00000000000E+00 0.  1.
          1   -1    0    0  501    0  0.00000000000E+00 -0.00000000000E+00 -0.25547935053E+04  0.25547935053E+04  0.00000000000E+00 0. -1.
         23    2    1    2    0    0 -0.47509492761E+03 -0.69392677065E+03 -0.13355609239E+02  0.84588917224E+03  0.90003145198E+02 0.  0.
         13    1    3    3    0    0 -0.34850649227E+03 -0.45581197976E+03  0.20221253559E+02  0.57413433545E+03  0.00000000000E+00 0. -1.
        -13    1    3    3    0    0 -0.12658843534E+03 -0.23811479089E+03 -0.33576862798E+02  0.27175483679E+03  0.00000000000E+00 0.  1.
         22    1    1    2    0    0  0.47509492761E+03  0.69392677065E+03 -0.20419719843E+04  0.22083702448E+04  0.00000000000E+00 0. -1.
<mgrwt>
<rscale>  0 0.22592320E+04</rscale>
<asrwt>0</asrwt>
<pdfrwt beam="1">  1        1 0.39304516E+00 0.22592320E+04</pdfrwt>
<pdfrwt beam="2">  1       -1 0.76840909E-01 0.22592320E+04</pdfrwt>
<totfact> 0.19123625E+00</totfact>
</mgrwt>
</event>
<event>
 6    1  0.2047711E-005  0.2818279E+04  0.7818608E-02  0.8297616E-01
         -2   -1    0    0    0  501 -0.00000000000E+00  0.00000000000E+00  0.16320733965E+04  0.16320733965E+04  0.00000000000E+00 0.  1.
          2   -1    0    0  501    0  0.00000000000E+00 -0.00000000000E+00 -0.12166574315E+04  0.12166574315E+04  0.00000000000E+00 0. -1.
         23    2    1    2    0    0  0.83639440532E+03  0.47166952724E+03  0.12485125393E+04  0.15774804017E+04  0.87367686841E+02 0.  0.
         13    1    3    3    0    0  0.71177616558E+03  0.40394190008E+03  0.11112963024E+04  0.13801354427E+04  0.00000000000E+00 0.  1.
        -13    1    3    3    0    0  0.12461823974E+03  0.67727627162E+02  0.13721623693E+03  0.19734495898E+03  0.00000000000E+00 0. -1.
         22    1    1    2    0    0 -0.83639440532E+03 -0.47166952724E+03 -0.83309657432E+03  0.12712504263E+04  0.00000000000E+00 0. -1.
<mgrwt>
<rscale>  0 0.28182791E+04</rscale>
<asrwt>0</asrwt>
<pdfrwt beam="1">  1        2 0.18717807E+00 0.28182791E+04</pdfrwt>
<pdfrwt beam="2">  1       -2 0.25108822E+00 0.28182791E+04</pdfrwt>
<totfact> 0.10177678E+00</totfact>
</mgrwt>
</event>
<event>
 6    1  0.2047711E-005  0.2743245E+04  0.7818608E-02  0.8321108E-01
          2   -1    0    0  501    0  0.00000000000E+00  0.00000000000E+00  0.44102933693E+04  0.44102933693E+04  0.00000000000E+00 0. -1.
         -2   -1    0    0    0  501 -0.00000000000E+00 -0.00000000000E+00 -0.42658111823E+03  0.42658111823E+03  0.00000000000E+00 0.  1.
         23    2    1    2    0    0 -0.38364909344E+03  0.12887724361E+04  0.24571786708E+04  0.28025623702E+04  0.92237734249E+02 0.  0.
         13    1    3    3    0    0 -0.28340568180E+03  0.96624566572E+03  0.17543660015E+04  0.20228073399E+04  0.00000000000E+00 0. -1.
        -13    1    3    3    0    0 -0.10024341164E+03  0.32252677041E+03  0.70281266928E+03  0.77975503032E+03  0.00000000000E+00 0.  1.
         22    1    1    2    0    0  0.38364909344E+03 -0.12887724361E+04  0.15265335803E+04  0.20343121174E+04  0.00000000000E+00 0. -1.
<mgrwt>
<rscale>  0 0.27432447E+04</rscale>
<asrwt>0</asrwt>
<pdfrwt beam="1">  1        2 0.67850664E+00 0.27432447E+04</pdfrwt>
<pdfrwt beam="2">  1       -2 0.65627867E-01 0.27432447E+04</pdfrwt>
<totfact> 0.28114158E-01</totfact>
</mgrwt>
</event>
<event>
 6    1  0.2047711E-005  0.3157268E+04  0.7818608E-02  0.8200195E-01
          1   -1    0    0  501    0  0.00000000000E+00  0.00000000000E+00  0.18331668693E+04  0.18331668693E+04  0.00000000000E+00 0. -1.
         -1   -1    0    0    0  501 -0.00000000000E+00 -0.00000000000E+00 -0.13594427473E+04  0.13594427473E+04  0.00000000000E+00 0.  1.
         23    2    1    2    0    0  0.12979509251E+04  0.42793881675E+03 -0.55927218179E+03  0.14794576682E+04  0.90561491744E+02 0.  0.
         13    1    3    3    0    0  0.72213941428E+03  0.24304381931E+03 -0.35997623959E+03  0.84269717267E+03  0.00000000000E+00 0.  1.
        -13    1    3    3    0    0  0.57581151082E+03  0.18489499744E+03 -0.19929594220E+03  0.63676049551E+03  0.00000000000E+00 0. -1.
         22    1    1    2    0    0 -0.12979509251E+04 -0.42793881675E+03  0.10329963038E+04  0.17131519484E+04  0.00000000000E+00 0. -1.
<mgrwt>
<rscale>  0 0.31572681E+04</rscale>
<asrwt>0</asrwt>
<pdfrwt beam="1">  1        1 0.28202567E+00 0.31572681E+04</pdfrwt>
<pdfrwt beam="2">  1       -1 0.20914504E+00 0.31572681E+04</pdfrwt>
<totfact> 0.42320154E-01</totfact>
</mgrwt>
</event>
<event>
 6    1  0.2047711E-005  0.1018260E+04  0.7818608E-02  0.9288742E-01
         -2   -1    0    0    0  501 -0.00000000000E+00  0.00000000000E+00  0.12437979389E+03  0.12437979389E+03  0.00000000000E+00 0.  1.
          2   -1    0    0  501    0  0.00000000000E+00 -0.00000000000E+00 -0.20840454652E+04  0.20840454652E+04  0.00000000000E+00 0. -1.
         23    2    1    2    0    0  0.45218234973E+03  0.16929493598E+03 -0.13093666276E+04  0.13984755699E+04  0.90350989801E+02 0.  0.
         11    1    3    3    0    0  0.12434527825E+03  0.90826805307E+02 -0.39553635381E+03  0.42445289959E+03  0.00000000000E+00 0.  1.
        -11    1    3    3    0    0  0.32783707148E+03  0.78468130675E+02 -0.91383027381E+03  0.97402267032E+03  0.00000000000E+00 0. -1.
         22    1    1    2    0    0 -0.45218234973E+03 -0.16929493598E+03 -0.65029904365E+03  0.80994968914E+03  0.00000000000E+00 0.  1.
<mgrwt>
<rscale>  0 0.10182596E+04</rscale>
<asrwt>0</asrwt>
<pdfrwt beam="1">  1        2 0.32062239E+00 0.10182596E+04</pdfrwt>
<pdfrwt beam="2">  1       -2 0.19135352E-01 0.10182596E+04</pdfrwt>
<totfact> 0.13879588E+02</totfact>
</mgrwt>
</event>
<event>
 6    1  0.2047711E-005  0.1166207E+04  0.7818608E-02  0.9142961E-01
          2   -1    0    0  501    0  0.00000000000E+00  0.00000000000E+00  0.12710162030E+04  0.12710162030E+04  0.00000000000E+00 0. -1.
         -2   -1    0    0    0  501 -0.00000000000E+00 -0.00000000000E+00 -0.26750997031E+03  0.26750997031E+03  0.00000000000E+00 0.  1.
         23    2    1    2    0    0 -0.32173508019E+03 -0.22518754850E+02 -0.13064263055E+03  0.35941031804E+03  0.89931772211E+02 0.  0.
         13    1    3    3    0    0 -0.17747257954E+03  0.30245711484E+02 -0.55397977228E+02  0.18836203289E+03  0.00000000000E+00 0.  1.
        -13    1    3    3    0    0 -0.14426250065E+03 -0.52764466333E+02 -0.75244653325E+02  0.17104828516E+03  0.00000000000E+00 0. -1.
         22    1    1    2    0    0  0.32173508019E+03  0.22518754850E+02  0.11341488632E+04  0.11791158552E+04  0.00000000000E+00 0. -1.
<mgrwt>
<rscale>  0 0.11662067E+04</rscale>
<asrwt>0</asrwt>
<pdfrwt beam="1">  1        2 0.19554095E+00 0.11662067E+04</pdfrwt>
<pdfrwt beam="2">  1       -2 0.41155381E-01 0.11662067E+04</pdfrwt>
<totfact> 0.95003458E+01</totfact>
</mgrwt>
</event>
<event>
 6    1  0.2047711E-005  0.1828979E+04  0.7818608E-02  0.8691039E-01
          2   -1    0    0  501    0  0.00000000000E+00  0.00000000000E+00  0.20335813027E+04  0.20335813027E+04  0.00000000000E+00 0. -1.
         -2   -1    0    0    0  501 -0.00000000000E+00 -0.00000000000E+00 -0.41124044635E+03  0.41124044635E+03  0.00000000000E+00 0.  1.
         23    2    1    2    0    0  0.52211561952E+03  0.61940185713E+03  0.13741856281E+04  0.15975647644E+04  0.86969278147E+02 0.  0.
         13    1    3    3    0    0  0.16056325128E+03  0.17149715208E+03  0.32763424665E+03  0.40315757516E+03  0.00000000000E+00 0.  1.
        -13    1    3    3    0    0  0.36155236824E+03  0.44790470505E+03  0.10465513814E+04  0.11944071892E+04  0.00000000000E+00 0. -1.
         22    1    1    2    0    0 -0.52211561952E+03 -0.61940185713E+03  0.24815522834E+03  0.84725698469E+03  0.00000000000E+00 0.  1.
<mgrwt>
<rscale>  0 0.18289788E+04</rscale>
<asrwt>0</asrwt>
<pdfrwt beam="1">  1        2 0.31285866E+00 0.18289788E+04</pdfrwt>
<pdfrwt beam="2">  1       -2 0.63267762E-01 0.18289788E+04</pdfrwt>
<totfact> 0.13944829E+01</totfact>
</mgrwt>
</event>
<event>
 6    1  0.2047711E-005  0.2592689E+04  0.7818608E-02  0.8370689E-01
          2   -1    0    0  501    0  0.00000000000E+00  0.00000000000E+00  0.16435027451E+04  0.16435027451E+04  0.00000000000E+00 0. -1.
         -2   -1    0    0    0  501 -0.00000000000E+00 -0.00000000000E+00 -0.10225164025E+04  0.10225164025E+04  0.00000000000E+00 0.  1.
         23    2    1    2    0    0  0.63457857504E+03  0.11196804938E+04  0.44229991987E+03  0.13666719215E+04  0.12565248021E+03 0.  0.
         11    1    3    3    0    0  0.27868943431E+03  0.61808331195E+03  0.23986354698E+03  0.71918655610E+03  0.00000000000E+00 0.  1.
        -11    1    3    3    0    0  0.35588914074E+03  0.50159718190E+03  0.20243637289E+03  0.64748536544E+03  0.00000000000E+00 0. -1.
         22    1    1    2    0    0 -0.63457857504E+03 -0.11196804938E+04  0.17868642269E+03  0.12993472261E+04  0.00000000000E+00 0. -1.
<mgrwt>
<rscale>  0 0.25926886E+04</rscale>
<asrwt>0</asrwt>
<pdfrwt beam="1">  1        2 0.25284658E+00 0.25926886E+04</pdfrwt>
<pdfrwt beam="2">  1       -2 0.15731022E+00 0.25926886E+04</pdfrwt>
<totfact> 0.24621418E+00</totfact>
</mgrwt>
</event>
<event>
 6    1  0.2047711E-005  0.1799449E+04  0.7818608E-02  0.8706592E-01
         -2   -1    0    0    0  501 -0.00000000000E+00  0.00000000000E+00  0.31103644360E+03  0.31103644360E+03  0.00000000000E+00 0.  1.
          2   -1    0    0  501    0  0.00000000000E+00 -0.00000000000E+00 -0.26026035990E+04  0.26026035990E+04  0.00000000000E+00 0. -1.
         23    2    1    2    0    0  0.46823486101E+03 -0.74507357212E+03 -0.86343019090E+03  0.12361557052E+04  0.90502596518E+02 0.  0.
         13    1    3    3    0    0  0.38788496220E+03 -0.57221553579E+03 -0.63539680585E+03  0.93894326995E+03  0.00000000000E+00 0. -1.
        -13    1    3    3    0    0  0.80349898808E+02 -0.17285803633E+03 -0.22803338506E+03  0.29721243524E+03  0.00000000000E+00 0.  1.
         22    1    1    2    0    0 -0.46823486101E+03  0.74507357212E+03 -0.14281369645E+04  0.16774843374E+04  0.00000000000E+00 0. -1.
<mgrwt>
<rscale>  0 0.17994494E+04</rscale>
<asrwt>0</asrwt>
<pdfrwt beam="1">  1        2 0.40040054E+00 0.17994494E+04</pdfrwt>
<pdfrwt beam="2">  1       -2 0.47851762E-01 0.17994494E+04</pdfrwt>
<totfact> 0.11866162E+01</totfact>
</mgrwt>
</event>
<event>
 6    1  0.2047711E-005  0.3954526E+04  0.7818608E-02  0.8013783E-01
         -2   -1    0    0    0  501 -0.00000000000E+00  0.00000000000E+00  0.16965352414E+04  0.16965352414E+04  0.00000000000E+00 0. -1.
          2   -1    0    0  501    0  0.00000000000E+00 -0.00000000000E+00 -0.23044427493E+04  0.23044427493E+04  0.00000000000E+00 0.  1.
         23    2    1    2    0    0  0.17793120130E+04  0.54119223179E+03 -0.98063768652E+03  0.21041996543E+04  0.84650111630E+02 0.  0.
         13    1    3    3    0    0  0.41925367852E+03  0.11277287384E+03 -0.19213352391E+03  0.47477011177E+03  0.00000000000E+00 0.  1.
        -13    1    3    3    0    0  0.13600583345E+04  0.42841935795E+03 -0.78850416262E+03  0.16294295425E+04  0.00000000000E+00 0. -1.
         22    1    1    2    0    0 -0.17793120130E+04 -0.54119223179E+03  0.37273017863E+03  0.18967783364E+04  0.00000000000E+00 0. -1.
<mgrwt>
<rscale>  0 0.39545257E+04</rscale>
<asrwt>0</asrwt>
<pdfrwt beam="1">  1        2 0.35452966E+00 0.39545257E+04</pdfrwt>
<pdfrwt beam="2">  1       -2 0.26100542E+00 0.39545257E+04</pdfrwt>
<totfact> 0.19632674E-01</totfact>
</mgrwt>
</event>
<event>
 6    1  0.2047711E-005  0.3654704E+04  0.7818608E-02  0.8078075E-01
         -2   -1    0    0    0  501 -0.00000000000E+00  0.00000000000E+00  0.94379231343E+03  0.94379231343E+03  0.00000000000E+00 0. -1.
          2   -1    0    0  501    0  0.00000000000E+00 -0.00000000000E+00 -0.35380835471E+04  0.35380835471E+04  0.00000000000E+00 0.  1.
         23    2    1    2    0    0  0.91336977062E+03  0.97273659080E+03 -0.28270240198E+04  0.31273924303E+04  0.89765203197E+02 0.  0.
         11    1    3    3    0    0  0.54386819476E+03  0.59168695533E+03 -0.18021054484E+04  0.19731878049E+04  0.00000000000E+00 0. -1.
        -11    1    3    3    0    0  0.36950157586E+03  0.38104963548E+03 -0.10249185714E+04  0.11542046254E+04  0.00000000000E+00 0.  1.
         22    1    1    2    0    0 -0.91336977062E+03 -0.97273659080E+03  0.23273278614E+03  0.13544834302E+04  0.00000000000E+00 0. -1.
<mgrwt>
<rscale>  0 0.36547044E+04</rscale>
<asrwt>0</asrwt>
<pdfrwt beam="1">  1        2 0.54432055E+00 0.36547044E+04</pdfrwt>
<pdfrwt beam="2">  1       -2 0.14519882E+00 0.36547044E+04</pdfrwt>
<totfact> 0.20211507E-01</totfact>
</mgrwt>
</event>
<event>
 6    1  0.2047711E-005  0.2559281E+04  0.7818608E-02  0.8382166E-01
         -1   -1    0    0    0  501 -0.00000000000E+00  0.00000000000E+00  0.43933237267E+03  0.43933237267E+03  0.00000000000E+00 0.  1.
          1   -1    0    0  501    0  0.00000000000E+00 -0.00000000000E+00 -0.37271992290E+04  0.37271992290E+04  0.00000000000E+00 0. -1.
         23    2    1    2    0    0  0.10265267706E+04  0.74482447418E+03 -0.19026960177E+04  0.22884424237E+04  0.90531116407E+02 0.  0.
         13    1    3    3    0    0  0.66369778272E+03  0.43682908290E+03 -0.11451458161E+04  0.13937981685E+04  0.00000000000E+00 0.  1.
        -13    1    3    3    0    0  0.36282898785E+03  0.30799539129E+03 -0.75755020152E+03  0.89464425517E+03  0.00000000000E+00 0. -1.
         22    1    1    2    0    0 -0.10265267706E+04 -0.74482447418E+03 -0.13851708387E+04  0.18780891779E+04  0.00000000000E+00 0.  1.
<mgrwt>
<rscale>  0 0.25592806E+04</rscale>
<asrwt>0</asrwt>
<pdfrwt beam="1">  1        1 0.57341525E+00 0.25592806E+04</pdfrwt>
<pdfrwt beam="2">  1       -1 0.67589598E-01 0.25592806E+04</pdfrwt>
<totfact> 0.32144029E-01</totfact>
</mgrwt>
</event>
<event>
 6    1  0.2047711E-005  0.1895121E+04  0.7818608E-02  0.8657289E-01
         -2   -1    0    0    0  501 -0.00000000000E+00  0.00000000000E+00  0.86439386442E+03  0.86439386442E+03  0.00000000000E+00 0.  1.
          2   -1    0    0  501    0  0.00000000000E+00 -0.00000000000E+00 -0.10387288825E+04  0.10387288825E+04  0.00000000000E+00 0. -1.
         23    2    1    2    0    0 -0.32819844052E+03  0.30365777022E+03 -0.92389754518E+03  0.10303305381E+04  0.89844788493E+02 0.  0.
         13    1    3    3    0    0 -0.46161050376E+02  0.11751980889E+02 -0.67534595655E+02  0.82643047118E+02  0.00000000000E+00 0.  1.
        -13    1    3    3    0    0 -0.28203739014E+03  0.29190578933E+03 -0.85636294952E+03  0.94768749100E+03  0.00000000000E+00 0. -1.
         22    1    1    2    0    0  0.32819844052E+03 -0.30365777022E+03  0.74956252708E+03  0.87279220881E+03  0.00000000000E+00 0.  1.
<mgrwt>
<rscale>  0 0.18951210E+04</rscale>
<asrwt>0</asrwt>
<pdfrwt beam="1">  1        2 0.15980444E+00 0.18951210E+04</pdfrwt>
<pdfrwt beam="2">  1       -2 0.13298367E+00 0.18951210E+04</pdfrwt>
<totfact> 0.91400947E+00</totfact>
</mgrwt>
</event>
<event>
 6    1  0.2047711E-005  0.1104894E+04  0.7818608E-02  0.9200435E-01
         -2   -1    0    0    0  501 -0.00000000000E+00  0.00000000000E+00  0.48096331923E+03  0.48096331923E+03  0.00000000000E+00 0.  1.
          2   -1    0    0  501    0  0.00000000000E+00 -0.00000000000E+00 -0.63455491977E+03  0.63455491977E+03  0.00000000000E+00 0. -1.
         23    2    1    2    0    0  0.22999415133E+03  0.16240333507E+02 -0.57985046365E+03  0.63089707101E+03  0.92970403556E+02 0.  0.
         13    1    3    3    0    0  0.13913315268E+03  0.55190427284E+02 -0.34196319665E+03  0.37328654583E+03  0.00000000000E+00 0. -1.
        -13    1    3    3    0    0  0.90860998654E+02 -0.38950093777E+02 -0.23788726700E+03  0.25761052518E+03  0.00000000000E+00 0.  1.
         22    1    1    2    0    0 -0.22999415133E+03 -0.16240333507E+02  0.42625886312E+03  0.48462116799E+03  0.00000000000E+00 0.  1.
<mgrwt>
<rscale>  0 0.11048939E+04</rscale>
<asrwt>0</asrwt>
<pdfrwt beam="1">  1        2 0.97623834E-01 0.11048939E+04</pdfrwt>
<pdfrwt beam="2">  1       -2 0.73994357E-01 0.11048939E+04</pdfrwt>
<totfact> 0.75689665E+01</totfact>
</mgrwt>
</event>
<event>
 6    1  0.2047711E-005  0.1809026E+04  0.7818608E-02  0.8701514E-01
         -2   -1    0    0    0  501 -0.00000000000E+00  0.00000000000E+00  0.67030767077E+03  0.67030767077E+03  0.00000000000E+00 0.  1.
          2   -1    0    0  501    0  0.00000000000E+00 -0.00000000000E+00 -0.12205494492E+04  0.12205494492E+04  0.00000000000E+00 0. -1.
         23    2    1    2    0    0  0.83717631019E+03  0.29783956164E+03 -0.11749495316E+03  0.90250374509E+03  0.10552424875E+03 0.  0.
         11    1    3    3    0    0  0.71361588864E+03  0.25066639329E+03 -0.61426274575E+02  0.75885075243E+03  0.00000000000E+00 0.  1.
        -11    1    3    3    0    0  0.12356042154E+03  0.47173168343E+02 -0.56068678585E+02  0.14365299267E+03  0.00000000000E+00 0. -1.
         22    1    1    2    0    0 -0.83717631019E+03 -0.29783956164E+03 -0.43274682522E+03  0.98835337484E+03  0.00000000000E+00 0. -1.
<mgrwt>
<rscale>  0 0.18090259E+04</rscale>
<asrwt>0</asrwt>
<pdfrwt beam="1">  1        2 0.18777684E+00 0.18090259E+04</pdfrwt>
<pdfrwt beam="2">  1       -2 0.10312426E+00 0.18090259E+04</pdfrwt>
<totfact> 0.13335606E+01</totfact>
</mgrwt>
</event>
<event>
 6    1  0.2047711E-005  0.1228703E+04  0.7818608E-02  0.9088098E-01
          2   -1    0    0  501    0  0.00000000000E+00  0.00000000000E+00  0.13632525808E+04  0.13632525808E+04  0.00000000000E+00 0. -1.
         -2   -1    0    0    0  501 -0.00000000000E+00 -0.00000000000E+00 -0.27685815060E+03  0.27685815060E+03  0.00000000000E+00 0.  1.
         23    2    1    2    0    0  0.58097192482E+03  0.17931488673E+03  0.62605849234E+03  0.87748934322E+03  0.91411736720E+02 0.  0.
         13    1    3    3    0    0  0.21009145373E+02  0.25868547213E+01  0.52733348147E+02  0.56823252401E+02  0.00000000000E+00 0. -1.
        -13    1    3    3    0    0  0.55996277945E+03  0.17672803201E+03  0.57332514419E+03  0.82066609082E+03  0.00000000000E+00 0.  1.
         22    1    1    2    0    0 -0.58097192482E+03 -0.17931488673E+03  0.46033593788E+03  0.76262138820E+03  0.00000000000E+00 0. -1.
<mgrwt>
<rscale>  0 0.12287027E+04</rscale>
<asrwt>0</asrwt>
<pdfrwt beam="1">  1        2 0.20973116E+00 0.12287027E+04</pdfrwt>
<pdfrwt beam="2">  1       -2 0.42593563E-01 0.12287027E+04</pdfrwt>
<totfact> 0.78141790E+01</totfact>
</mgrwt>
</event>
<event>
 6    1  0.2047711E-005  0.1042954E+04  0.7818608E-02  0.9262649E-01
         -2   -1    0    0    0  501 -0.00000000000E+00  0.00000000000E+00  0.14310454053E+03  0.14310454053E+03  0.00000000000E+00 0.  1.
          2   -1    0    0  501    0  0.00000000000E+00 -0.00000000000E+00 -0.19002768560E+04  0.19002768560E+04  0.00000000000E+00 0. -1.
         23    2    1    2    0    0  0.35806055417E+03 -0.19818176393E+03 -0.15057387989E+04  0.15630667234E+04  0.91896023698E+02 0.  0.
         13    1    3    3    0    0  0.26717825585E+03 -0.11391039353E+03 -0.93716872417E+03  0.98114474759E+03  0.00000000000E+00 0. -1.
        -13    1    3    3    0    0  0.90882298327E+02 -0.84271370393E+02 -0.56857007473E+03  0.58192197578E+03  0.00000000000E+00 0.  1.
         22    1    1    2    0    0 -0.35806055417E+03  0.19818176393E+03 -0.25143351659E+03  0.48031467318E+03  0.00000000000E+00 0. -1.
<mgrwt>
<rscale>  0 0.10429540E+04</rscale>
<asrwt>0</asrwt>
<pdfrwt beam="1">  1        2 0.29235026E+00 0.10429540E+04</pdfrwt>
<pdfrwt beam="2">  1       -2 0.22016085E-01 0.10429540E+04</pdfrwt>
<totfact> 0.13659322E+02</totfact>
</mgrwt>
</event>
<event>
 6    1  0.2047711E-005  0.3566047E+04  0.7818608E-02  0.8098314E-01
         -2   -1    0    0    0  501 -0.00000000000E+00  0.00000000000E+00  0.85254949730E+03  0.85254949730E+03  0.00000000000E+00 0. -1.
          2   -1    0    0  501    0  0.00000000000E+00 -0.00000000000E+00 -0.37290189986E+04  0.37290189986E+04  0.00000000000E+00 0.  1.
         23    2    1    2    0    0 -0.16469868367E+04 -0.66376409334E+03 -0.12459136712E+04  0.21707883883E+04  0.82903188682E+02 0.  0.
         13    1    3    3    0    0 -0.12143163083E+04 -0.45014232521E+03 -0.90064386687E+03  0.15774509769E+04  0.00000000000E+00 0.  1.
        -13    1    3    3    0    0 -0.43267052841E+03 -0.21362176813E+03 -0.34526980431E+03  0.59333741138E+03  0.00000000000E+00 0. -1.
         22    1    1    2    0    0  0.16469868367E+04  0.66376409334E+03 -0.16305558301E+04  0.24107801076E+04  0.00000000000E+00 0.  1.
<mgrwt>
<rscale>  0 0.35660473E+04</rscale>
<asrwt>0</asrwt>
<pdfrwt beam="1">  1        2 0.57369523E+00 0.35660473E+04</pdfrwt>
<pdfrwt beam="2">  1       -2 0.13116146E+00 0.35660473E+04</pdfrwt>
<totfact> 0.19234296E-01</totfact>
</mgrwt>
</event>
<event>
 6    1  0.2047711E-005  0.3223182E+04  0.7818608E-02  0.8182721E-01
         -2   -1    0    0    0  501 -0.00000000000E+00  0.00000000000E+00  0.21136064421E+04  0.21136064421E+04  0.00000000000E+00 0.  1.
          2   -1    0    0  501    0  0.00000000000E+00 -0.00000000000E+00 -0.12288125263E+04  0.12288125263E+04  0.00000000000E+00 0. -1.
         23    2    1    2    0    0 -0.10387006459E+04  0.11645043620E+04  0.85503797967E+03  0.17816964252E+04  0.91557435238E+02 0.  0.
         13    1    3    3    0    0 -0.59280136454E+03  0.73166712153E+03  0.51078197412E+03  0.10712835571E+04  0.00000000000E+00 0.  1.
        -13    1    3    3    0    0 -0.44589928140E+03  0.43283724049E+03  0.34425600555E+03  0.71041286817E+03  0.00000000000E+00 0. -1.
         22    1    1    2    0    0  0.10387006459E+04 -0.11645043620E+04  0.29755936157E+02  0.15607225432E+04  0.00000000000E+00 0.  1.
<mgrwt>
<rscale>  0 0.32231823E+04</rscale>
<asrwt>0</asrwt>
<pdfrwt beam="1">  1        2 0.18904808E+00 0.32231823E+04</pdfrwt>
<pdfrwt beam="2">  1       -2 0.32517022E+00 0.32231823E+04</pdfrwt>
<totfact> 0.34026865E-01</totfact>
</mgrwt>
</event>
<event>
 6    1  0.2047711E-005  0.1767811E+04  0.7818608E-02  0.8723607E-01
         -2   -1    0    0    0  501 -0.00000000000E+00  0.00000000000E+00  0.36947907223E+03  0.36947907223E+03  0.00000000000E+00 0.  1.
          2   -1    0    0  501    0  0.00000000000E+00 -0.00000000000E+00 -0.21145681849E+04  0.21145681849E+04  0.00000000000E+00 0. -1.
         23    2    1    2    0    0  0.67160514961E+03  0.24343174188E+03 -0.14943256210E+03  0.73578174030E+03  0.93446181297E+02 0.  0.
         13    1    3    3    0    0  0.15769487874E+03  0.95976249118E+02 -0.19956123859E+02  0.18568080691E+03  0.00000000000E+00 0. -1.
        -13    1    3    3    0    0  0.51391027087E+03  0.14745549276E+03 -0.12947643824E+03  0.55010093338E+03  0.00000000000E+00 0.  1.
         22    1    1    2    0    0 -0.67160514961E+03 -0.24343174188E+03 -0.15956565506E+04  0.17482655168E+04  0.00000000000E+00 0. -1.
<mgrwt>
<rscale>  0 0.17678107E+04</rscale>
<asrwt>0</asrwt>
<pdfrwt beam="1">  1        2 0.32531818E+00 0.17678107E+04</pdfrwt>
<pdfrwt beam="2">  1       -2 0.56842934E-01 0.17678107E+04</pdfrwt>
<totfact> 0.15843176E+01</totfact>
</mgrwt>
</event>
<event>
 6    1  0.2047711E-005  0.1521481E+04  0.7818608E-02  0.8870292E-01
          2   -1    0    0  501    0  0.00000000000E+00  0.00000000000E+00  0.12026381193E+04  0.12026381193E+04  0.00000000000E+00 0. -1.
         -2   -1    0    0    0  501 -0.00000000000E+00 -0.00000000000E+00 -0.48121408888E+03  0.48121408888E+03  0.00000000000E+00 0.  1.
         23    2    1    2    0    0 -0.55151274308E+03 -0.51787358890E+03  0.41090465244E+03  0.86606149902E+03  0.94130371460E+02 0.  0.
         11    1    3    3    0    0 -0.41735229078E+03 -0.33304061886E+03  0.28369777211E+03  0.60463494302E+03  0.00000000000E+00 0.  1.
        -11    1    3    3    0    0 -0.13416045230E+03 -0.18483297005E+03  0.12720688033E+03  0.26142655600E+03  0.00000000000E+00 0. -1.
         22    1    1    2    0    0  0.55151274308E+03  0.51787358890E+03  0.31051937795E+03  0.81779070913E+03  0.00000000000E+00 0.  1.
<mgrwt>
<rscale>  0 0.15214814E+04</rscale>
<asrwt>0</asrwt>
<pdfrwt beam="1">  1        2 0.18502125E+00 0.15214814E+04</pdfrwt>
<pdfrwt beam="2">  1       -2 0.74032937E-01 0.15214814E+04</pdfrwt>
<totfact> 0.29920998E+01</totfact>
</mgrwt>
</event>
<event>
 6    1  0.2047711E-005  0.1440887E+04  0.7818608E-02  0.8924743E-01
         -2   -1    0    0    0  501 -0.00000000000E+00  0.00000000000E+00  0.24167330208E+03  0.24167330208E+03  0.00000000000E+00 0.  1.
          2   -1    0    0  501    0  0.00000000000E+00 -0.00000000000E+00 -0.21476882635E+04  0.21476882635E+04  0.00000000000E+00 0. -1.
         23    2    1    2    0    0 -0.28049131734E+03 -0.33225330131E+03 -0.19034199066E+04  0.19545347384E+04  0.90172430443E+02 0.  0.
         11    1    3    3    0    0 -0.23917622807E+03 -0.25902293535E+03 -0.16592746828E+04  0.16963167812E+04  0.00000000000E+00 0. -1.
        -11    1    3    3    0    0 -0.41315089279E+02 -0.73230365964E+02 -0.24414522382E+03  0.25821795719E+03  0.00000000000E+00 0.  1.
         22    1    1    2    0    0  0.28049131734E+03  0.33225330131E+03 -0.25950547770E+01  0.43482682719E+03  0.00000000000E+00 0.  1.
<mgrwt>
<rscale>  0 0.14408871E+04</rscale>
<asrwt>0</asrwt>
<pdfrwt beam="1">  1        2 0.33041357E+00 0.14408871E+04</pdfrwt>
<pdfrwt beam="2">  1       -2 0.37180509E-01 0.14408871E+04</pdfrwt>
<totfact> 0.36604692E+01</totfact>
</mgrwt>
</event>
<event>
 6    1  0.2047711E-005  0.1873568E+04  0.7818608E-02  0.8668126E-01
          2   -1    0    0  501    0  0.00000000000E+00  0.00000000000E+00  0.85026879637E+03  0.85026879637E+03  0.00000000000E+00 0.  1.
         -2   -1    0    0    0  501 -0.00000000000E+00 -0.00000000000E+00 -0.10321023147E+04  0.10321023147E+04  0.00000000000E+00 0. -1.
         23    2    1    2    0    0 -0.46292990004E+03 -0.77081762212E+03  0.16490422643E+03  0.91868497829E+03  0.91240268111E+02 0.  0.
         13    1    3    3    0    0 -0.25426326882E+03 -0.49135188935E+03  0.73251647401E+02  0.55807015050E+03  0.00000000000E+00 0. -1.
        -13    1    3    3    0    0 -0.20866663122E+03 -0.27946573278E+03  0.91652579033E+02  0.36061482779E+03  0.00000000000E+00 0.  1.
         22    1    1    2    0    0  0.46292990004E+03  0.77081762212E+03 -0.34673774481E+03  0.96368613282E+03  0.00000000000E+00 0. -1.
<mgrwt>
<rscale>  0 0.18735681E+04</rscale>
<asrwt>0</asrwt>
<pdfrwt beam="1">  1        2 0.13081058E+00 0.18735681E+04</pdfrwt>
<pdfrwt beam="2">  1       -2 0.15878497E+00 0.18735681E+04</pdfrwt>
<totfact> 0.76546379E+00</totfact>
</mgrwt>
</event>
<event>
 6    1  0.2047711E-005  0.1678242E+04  0.7818608E-02  0.8773872E-01
         -2   -1    0    0    0  501 -0.00000000000E+00  0.00000000000E+00  0.68683333683E+03  0.68683333683E+03  0.00000000000E+00 0.  1.
          2   -1    0    0  501    0  0.00000000000E+00 -0.00000000000E+00 -0.10251741556E+04  0.10251741556E+04  0.00000000000E+00 0. -1.
         23    2    1    2    0    0 -0.11151866140E+03  0.25848590207E+03  0.63411502751E+03  0.69962330332E+03  0.90108407124E+02 0.  0.
         13    1    3    3    0    0 -0.93873538970E+02  0.25997755090E+03  0.57630523840E+03  0.63916218293E+03  0.00000000000E+00 0.  1.
        -13    1    3    3    0    0 -0.17645122432E+02 -0.14916488275E+01  0.57809789111E+02  0.60461120391E+02  0.00000000000E+00 0. -1.
         22    1    1    2    0    0  0.11151866140E+03 -0.25848590207E+03 -0.97245584628E+03  0.10123841891E+04  0.00000000000E+00 0. -1.
<mgrwt>
<rscale>  0 0.16782417E+04</rscale>
<asrwt>0</asrwt>
<pdfrwt beam="1">  1        2 0.15771910E+00 0.16782417E+04</pdfrwt>
<pdfrwt beam="2">  1       -2 0.10566667E+00 0.16782417E+04</pdfrwt>
<totfact> 0.16751644E+01</totfact>
</mgrwt>
</event>
<event>
 6    1  0.2047711E-005  0.2522156E+04  0.7818608E-02  0.8395135E-01
         -2   -1    0    0    0  501 -0.00000000000E+00  0.00000000000E+00  0.46183014241E+03  0.46183014241E+03  0.00000000000E+00 0.  1.
          2   -1    0    0  501    0  0.00000000000E+00 -0.00000000000E+00 -0.34435126980E+04  0.34435126980E+04  0.00000000000E+00 0. -1.
         23    2    1    2    0    0  0.61712265696E+03 -0.94718019714E+03 -0.63315916124E+03  0.12988983592E+04  0.90861018041E+02 0.  0.
         11    1    3    3    0    0  0.27213400564E+03 -0.49205503583E+03 -0.29078082464E+03  0.63303124985E+03  0.00000000000E+00 0. -1.
        -11    1    3    3    0    0  0.34498865132E+03 -0.45512516131E+03 -0.34237833661E+03  0.66586710940E+03  0.00000000000E+00 0.  1.
         22    1    1    2    0    0 -0.61712265696E+03  0.94718019714E+03 -0.23485233943E+04  0.26064444811E+04  0.00000000000E+00 0. -1.
<mgrwt>
<rscale>  0 0.25221562E+04</rscale>
<asrwt>0</asrwt>
<pdfrwt beam="1">  1        2 0.52977117E+00 0.25221562E+04</pdfrwt>
<pdfrwt beam="2">  1       -2 0.71050793E-01 0.25221562E+04</pdfrwt>
<totfact> 0.14269702E+00</totfact>
</mgrwt>
</event>
<event>
 6    1  0.2047711E-005  0.5310890E+03  0.7818608E-02  0.1005968E+00
         -2   -1    0    0    0  501 -0.00000000000E+00  0.00000000000E+00  0.76509447153E+02  0.76509447153E+02  0.00000000000E+00 0.  1.
          2   -1    0    0  501    0  0.00000000000E+00 -0.00000000000E+00 -0.92163622577E+03  0.92163622577E+03  0.00000000000E+00 0. -1.
         23    2    1    2    0    0 -0.14893183689E+03 -0.15419989166E+03 -0.16769663113E+03  0.28760369432E+03  0.92926994297E+02 0.  0.
         13    1    3    3    0    0 -0.14228467979E+03 -0.99197581995E+02 -0.15036554473E+03  0.22955367001E+03  0.00000000000E+00 0.  1.
        -13    1    3    3    0    0 -0.66471570963E+01 -0.55002309668E+02 -0.17331086403E+02  0.58050024309E+02  0.00000000000E+00 0. -1.
         22    1    1    2    0    0  0.14893183689E+03  0.15419989166E+03 -0.67743014748E+03  0.71054197860E+03  0.00000000000E+00 0. -1.
<mgrwt>
<rscale>  0 0.53108899E+03</rscale>
<asrwt>0</asrwt>
<pdfrwt beam="1">  1        2 0.14179019E+00 0.53108899E+03</pdfrwt>
<pdfrwt beam="2">  1       -2 0.11770684E-01 0.53108899E+03</pdfrwt>
<totfact> 0.14983519E+03</totfact>
</mgrwt>
</event>
<event>
 6    1  0.2047711E-005  0.3187634E+04  0.7818608E-02  0.8192091E-01
          2   -1    0    0  501    0  0.00000000000E+00  0.00000000000E+00  0.20144509867E+04  0.20144509867E+04  0.00000000000E+00 0. -1.
         -2   -1    0    0    0  501 -0.00000000000E+00 -0.00000000000E+00 -0.12610145819E+04  0.12610145819E+04  0.00000000000E+00 0.  1.
         23    2    1    2    0    0 -0.10860802366E+04 -0.69390734533E+03  0.13381996131E+04  0.18601826661E+04  0.91780511283E+02 0.  0.
         13    1    3    3    0    0 -0.41258219964E+03 -0.25489405825E+03  0.44118120580E+03  0.65561872208E+03  0.00000000000E+00 0. -1.
        -13    1    3    3    0    0 -0.67349803700E+03 -0.43901328708E+03  0.89701840735E+03  0.12045639440E+04  0.00000000000E+00 0.  1.
         22    1    1    2    0    0  0.10860802366E+04  0.69390734533E+03 -0.58476320840E+03  0.14152829025E+04  0.00000000000E+00 0.  1.
<mgrwt>
<rscale>  0 0.31876336E+04</rscale>
<asrwt>0</asrwt>
<pdfrwt beam="1">  1        2 0.30991554E+00 0.31876336E+04</pdfrwt>
<pdfrwt beam="2">  1       -2 0.19400224E+00 0.31876336E+04</pdfrwt>
<totfact> 0.80571067E-01</totfact>
</mgrwt>
</event>
<event>
 6    1  0.2047711E-005  0.1935587E+04  0.7818608E-02  0.8637342E-01
          2   -1    0    0  501    0  0.00000000000E+00  0.00000000000E+00  0.34709382020E+04  0.34709382020E+04  0.00000000000E+00 0. -1.
         -2   -1    0    0    0  501 -0.00000000000E+00 -0.00000000000E+00 -0.26984768523E+03  0.26984768523E+03  0.00000000000E+00 0.  1.
         23    2    1    2    0    0 -0.54497951236E+03 -0.77794778043E+03  0.19401220545E+04  0.21621007125E+04  0.91654169486E+02 0.  0.
         11    1    3    3    0    0 -0.65928399591E+02 -0.12596289868E+03  0.35581063357E+03  0.38316368914E+03  0.00000000000E+00 0. -1.
        -11    1    3    3    0    0 -0.47905111277E+03 -0.65198488175E+03  0.15843114209E+04  0.17789370234E+04  0.00000000000E+00 0.  1.
         22    1    1    2    0    0  0.54497951236E+03  0.77794778043E+03  0.12609684623E+04  0.15786851747E+04  0.00000000000E+00 0.  1.
<mgrwt>
<rscale>  0 0.19355874E+04</rscale>
<asrwt>0</asrwt>
<pdfrwt beam="1">  1        2 0.53399046E+00 0.19355874E+04</pdfrwt>
<pdfrwt beam="2">  1       -2 0.41515031E-01 0.19355874E+04</pdfrwt>
<totfact> 0.44002470E+00</totfact>
</mgrwt>
</event>
<event>
 6    1  0.2047711E-005  0.3078355E+04  0.7818608E-02  0.8221703E-01
         -2   -1    0    0    0  501 -0.00000000000E+00  0.00000000000E+00  0.77217221465E+03  0.77217221465E+03  0.00000000000E+00 0.  1.
          2   -1    0    0  501    0  0.00000000000E+00 -0.00000000000E+00 -0.30680566416E+04  0.30680566416E+04  0.00000000000E+00 0. -1.
         23    2    1    2    0    0 -0.10911454159E+04  0.51116251178E+03 -0.23408290421E+04  0.26344488387E+04  0.94628999356E+02 0.  0.
         11    1    3    3    0    0 -0.54725467621E+03  0.29200270223E+03 -0.12785562420E+04  0.14210768180E+04  0.00000000000E+00 0. -1.
        -11    1    3    3    0    0 -0.54389073973E+03  0.21915980955E+03 -0.10622728000E+04  0.12133720207E+04  0.00000000000E+00 0.  1.
         22    1    1    2    0    0  0.10911454159E+04 -0.51116251178E+03  0.44944615133E+02  0.12057800175E+04  0.00000000000E+00 0.  1.
<mgrwt>
<rscale>  0 0.30783555E+04</rscale>
<asrwt>0</asrwt>
<pdfrwt beam="1">  1        2 0.47200871E+00 0.30783555E+04</pdfrwt>
<pdfrwt beam="2">  1       -2 0.11879573E+00 0.30783555E+04</pdfrwt>
<totfact> 0.72983839E-01</totfact>
</mgrwt>
</event>
<event>
 6    1  0.2047711E-005  0.2668476E+04  0.7818608E-02  0.8345306E-01
         -2   -1    0    0    0  501 -0.00000000000E+00  0.00000000000E+00  0.10076731076E+04  0.10076731076E+04  0.00000000000E+00 0.  1.
          2   -1    0    0  501    0  0.00000000000E+00 -0.00000000000E+00 -0.17666356590E+04  0.17666356590E+04  0.00000000000E+00 0. -1.
         23    2    1    2    0    0  0.12227275670E+04  0.30537533209E+03  0.70460285229E+02  0.12655811442E+04  0.91728862327E+02 0.  0.
         11    1    3    3    0    0  0.18671585967E+03  0.31540087000E+02  0.40102323711E+02  0.19356080623E+03  0.00000000000E+00 0. -1.
        -11    1    3    3    0    0  0.10360117073E+04  0.27383524509E+03  0.30357961518E+02  0.10720203380E+04  0.00000000000E+00 0.  1.
         22    1    1    2    0    0 -0.12227275670E+04 -0.30537533209E+03 -0.82942283661E+03  0.15087276224E+04  0.00000000000E+00 0. -1.
<mgrwt>
<rscale>  0 0.26684762E+04</rscale>
<asrwt>0</asrwt>
<pdfrwt beam="1">  1        2 0.27179010E+00 0.26684762E+04</pdfrwt>
<pdfrwt beam="2">  1       -2 0.15502663E+00 0.26684762E+04</pdfrwt>
<totfact> 0.21736892E+00</totfact>
</mgrwt>
</event>
<event>
 6    1  0.2047711E-005  0.1870935E+04  0.7818608E-02  0.8669460E-01
          2   -1    0    0  501    0  0.00000000000E+00  0.00000000000E+00  0.66563971396E+03  0.66563971396E+03  0.00000000000E+00 0. -1.
         -2   -1    0    0    0  501 -0.00000000000E+00 -0.00000000000E+00 -0.13146748075E+04  0.13146748075E+04  0.00000000000E+00 0.  1.
         23    2    1    2    0    0 -0.32938118571E+03  0.15979389890E+02  0.59844009401E+03  0.68998834177E+03  0.95948211339E+02 0.  0.
         11    1    3    3    0    0 -0.29780116215E+03  0.20133828235E+01  0.46530035636E+03  0.55244366909E+03  0.00000000000E+00 0.  1.
        -11    1    3    3    0    0 -0.31580023561E+02  0.13966007066E+02  0.13313973765E+03  0.13754467268E+03  0.00000000000E+00 0. -1.
         22    1    1    2    0    0  0.32938118571E+03 -0.15979389890E+02 -0.12474751876E+04  0.12903261797E+04  0.00000000000E+00 0.  1.
<mgrwt>
<rscale>  0 0.18709353E+04</rscale>
<asrwt>0</asrwt>
<pdfrwt beam="1">  1        2 0.10240611E+00 0.18709353E+04</pdfrwt>
<pdfrwt beam="2">  1       -2 0.20225766E+00 0.18709353E+04</pdfrwt>
<totfact> 0.52636414E+00</totfact>
</mgrwt>
</event>
<event>
 6    1  0.2047711E-005  0.3353672E+04  0.7818608E-02  0.8149371E-01
          2   -1    0    0  501    0  0.00000000000E+00  0.00000000000E+00  0.18342650990E+04  0.18342650990E+04  0.00000000000E+00 0. -1.
         -2   -1    0    0    0  501 -0.00000000000E+00 -0.00000000000E+00 -0.15329185587E+04  0.15329185587E+04  0.00000000000E+00 0.  1.
         23    2    1    2    0    0  0.43406853843E+03 -0.31893857062E+03 -0.14423966666E+04  0.15421418282E+04  0.86925062869E+02 0.  0.
         11    1    3    3    0    0  0.21049197248E+03 -0.15341820192E+03 -0.57534101504E+03  0.63155466806E+03  0.00000000000E+00 0. -1.
        -11    1    3    3    0    0  0.22357656595E+03 -0.16552036870E+03 -0.86705565159E+03  0.91058716016E+03  0.00000000000E+00 0.  1.
         22    1    1    2    0    0 -0.43406853843E+03  0.31893857062E+03  0.17437432069E+04  0.18250418295E+04  0.00000000000E+00 0. -1.
<mgrwt>
<rscale>  0 0.33536720E+04</rscale>
<asrwt>0</asrwt>
<pdfrwt beam="1">  1        2 0.28219463E+00 0.33536720E+04</pdfrwt>
<pdfrwt beam="2">  1       -2 0.23583363E+00 0.33536720E+04</pdfrwt>
<totfact> 0.54000551E-01</totfact>
</mgrwt>
</event>
<event>
 6    1  0.2047711E-005  0.1169813E+04  0.7818608E-02  0.9139697E-01
          2   -1    0    0  501    0  0.00000000000E+00  0.00000000000E+00  0.50501455036E+03  0.50501455036E+03  0.00000000000E+00 0. -1.
         -2   -1    0    0    0  501 -0.00000000000E+00 -0.00000000000E+00 -0.67743756261E+03  0.67743756261E+03  0.00000000000E+00 0.  1.
         23    2    1    2    0    0  0.83551323341E+02  0.46023148048E+03 -0.43565566435E+03  0.64571636011E+03  0.91432601295E+02 0.  0.
         11    1    3    3    0    0  0.63219697544E+02  0.32564725494E+03 -0.36179996264E+03  0.49085851095E+03  0.00000000000E+00 0.  1.
        -11    1    3    3    0    0  0.20331625796E+02  0.13458422554E+03 -0.73855701716E+02  0.15485784917E+03  0.00000000000E+00 0. -1.
         22    1    1    2    0    0 -0.83551323341E+02 -0.46023148048E+03  0.26323265210E+03  0.53673575285E+03  0.00000000000E+00 0. -1.
<mgrwt>
<rscale>  0 0.11698134E+04</rscale>
<asrwt>0</asrwt>
<pdfrwt beam="1">  1        2 0.77694546E-01 0.11698134E+04</pdfrwt>
<pdfrwt beam="2">  1       -2 0.10422116E+00 0.11698134E+04</pdfrwt>
<totfact> 0.45038398E+01</totfact>
</mgrwt>
</event>
<event>
 6    1  0.2047711E-005  0.3195639E+04  0.7818608E-02  0.8189970E-01
         -1   -1    0    0    0  501 -0.00000000000E+00  0.00000000000E+00  0.20972405609E+04  0.20972405609E+04  0.00000000000E+00 0.  1.
          1   -1    0    0  501    0  0.00000000000E+00 -0.00000000000E+00 -0.12173269826E+04  0.12173269826E+04  0.00000000000E+00 0. -1.
         23    2    1    2    0    0 -0.55792860863E+03 -0.31204997591E+03 -0.10770521524E+04  0.12558362859E+04  0.91781905135E+02 0.  0.
         11    1    3    3    0    0 -0.30890490890E+03 -0.20037510544E+03 -0.69219620599E+03  0.78403317099E+03  0.00000000000E+00 0. -1.
        -11    1    3    3    0    0 -0.24902369973E+03 -0.11167487047E+03 -0.38485594646E+03  0.47180311492E+03  0.00000000000E+00 0.  1.
         22    1    1    2    0    0  0.55792860863E+03  0.31204997591E+03  0.19569657307E+04  0.20587312576E+04  0.00000000000E+00 0.  1.
<mgrwt>
<rscale>  0 0.31956392E+04</rscale>
<asrwt>0</asrwt>
<pdfrwt beam="1">  1        1 0.18728107E+00 0.31956392E+04</pdfrwt>
<pdfrwt beam="2">  1       -1 0.32265239E+00 0.31956392E+04</pdfrwt>
<totfact> 0.20423963E-01</totfact>
</mgrwt>
</event>
<event>
 6    1  0.2047711E-005  0.4718744E+03  0.7818608E-02  0.1021393E+00
          2   -1    0    0  501    0  0.00000000000E+00  0.00000000000E+00  0.68133422733E+03  0.68133422733E+03  0.00000000000E+00 0. -1.
         -2   -1    0    0    0  501 -0.00000000000E+00 -0.00000000000E+00 -0.81701979508E+02  0.81701979508E+02  0.00000000000E+00 0.  1.
         23    2    1    2    0    0 -0.16892091620E+03  0.14834477697E+03  0.25527305319E+03  0.35178968259E+03  0.89728481018E+02 0.  0.
         13    1    3    3    0    0 -0.16586681041E+03  0.10045113565E+03  0.19953920317E+03  0.27824112393E+03  0.00000000000E+00 0.  1.
        -13    1    3    3    0    0 -0.30541057878E+01  0.47893641321E+02  0.55733850024E+02  0.73548558651E+02  0.00000000000E+00 0. -1.
         22    1    1    2    0    0  0.16892091620E+03 -0.14834477697E+03  0.34435919463E+03  0.41124652425E+03  0.00000000000E+00 0. -1.
<mgrwt>
<rscale>  0 0.47187437E+03</rscale>
<asrwt>0</asrwt>
<pdfrwt beam="1">  1        2 0.10482065E+00 0.47187437E+03</pdfrwt>
<pdfrwt beam="2">  1       -2 0.12569536E-01 0.47187437E+03</pdfrwt>
<totfact> 0.19955480E+03</totfact>
</mgrwt>
</event>
<event>
 6    1  0.2047711E-005  0.3312490E+04  0.7818608E-02  0.8159725E-01
          2   -1    0    0  501    0  0.00000000000E+00  0.00000000000E+00  0.31047302494E+04  0.31047302494E+04  0.00000000000E+00 0. -1.
         -2   -1    0    0    0  501 -0.00000000000E+00 -0.00000000000E+00 -0.88353816646E+03  0.88353816646E+03  0.00000000000E+00 0.  1.
         23    2    1    2    0    0  0.86591801792E+03 -0.13947291173E+04  0.85934446477E+03  0.18552629635E+04  0.91893581346E+02 0.  0.
         13    1    3    3    0    0  0.36662055133E+03 -0.51773499241E+03  0.35769434115E+03  0.72828936057E+03  0.00000000000E+00 0.  1.
        -13    1    3    3    0    0  0.49929746659E+03 -0.87699412491E+03  0.50165012362E+03  0.11269736030E+04  0.00000000000E+00 0. -1.
         22    1    1    2    0    0 -0.86591801792E+03  0.13947291173E+04  0.13618476181E+04  0.21330054523E+04  0.00000000000E+00 0.  1.
<mgrwt>
<rscale>  0 0.33124901E+04</rscale>
<asrwt>0</asrwt>
<pdfrwt beam="1">  1        2 0.47765080E+00 0.33124901E+04</pdfrwt>
<pdfrwt beam="2">  1       -2 0.13592895E+00 0.33124901E+04</pdfrwt>
<totfact> 0.48292693E-01</totfact>
</mgrwt>
</event>
<event>
 6    1  0.2047711E-005  0.4415451E+04  0.7818608E-02  0.7925608E-01
          2   -1    0    0  501    0  0.00000000000E+00  0.00000000000E+00  0.32097562476E+04  0.32097562476E+04  0.00000000000E+00 0. -1.
         -2   -1    0    0    0  501 -0.00000000000E+00 -0.00000000000E+00 -0.15185112967E+04  0.15185112967E+04  0.00000000000E+00 0.  1.
         23    2    1    2    0    0  0.59795414987E+03  0.20183705912E+04  0.13706516171E+03  0.21116201041E+04  0.93720845877E+02 0.  0.
         11    1    3    3    0    0  0.54871174888E+03  0.19047277237E+04  0.11267516692E+03  0.19853886215E+04  0.00000000000E+00 0. -1.
        -11    1    3    3    0    0  0.49242400990E+02  0.11364286743E+03  0.24389994790E+02  0.12623148268E+03  0.00000000000E+00 0.  1.
         22    1    1    2    0    0 -0.59795414987E+03 -0.20183705912E+04  0.15541797892E+04  0.26166474401E+04  0.00000000000E+00 0.  1.
<mgrwt>
<rscale>  0 0.44154507E+04</rscale>
<asrwt>0</asrwt>
<pdfrwt beam="1">  1        2 0.49380865E+00 0.44154507E+04</pdfrwt>
<pdfrwt beam="2">  1       -2 0.23361712E+00 0.44154507E+04</pdfrwt>
<totfact> 0.79042441E-02</totfact>
</mgrwt>
</event>
<event>
 6    1  0.2047711E-005  0.1599660E+04  0.7818608E-02  0.8820757E-01
          2   -1    0    0  501    0  0.00000000000E+00  0.00000000000E+00  0.79406572004E+03  0.79406572004E+03  0.00000000000E+00 0. -1.
         -2   -1    0    0    0  501 -0.00000000000E+00 -0.00000000000E+00 -0.80563594085E+03  0.80563594085E+03  0.00000000000E+00 0.  1.
         23    2    1    2    0    0 -0.23931597035E+03 -0.58668091412E+03 -0.48921934809E+03  0.80621863181E+03  0.95845099316E+02 0.  0.
         11    1    3    3    0    0 -0.20241283890E+03 -0.54103846367E+03 -0.41345787556E+03  0.71038087769E+03  0.00000000000E+00 0.  1.
        -11    1    3    3    0    0 -0.36903131445E+02 -0.45642450449E+02 -0.75761472530E+02  0.95837754113E+02  0.00000000000E+00 0. -1.
         22    1    1    2    0    0  0.23931597035E+03  0.58668091412E+03  0.47764912727E+03  0.79348302908E+03  0.00000000000E+00 0. -1.
<mgrwt>
<rscale>  0 0.15996598E+04</rscale>
<asrwt>0</asrwt>
<pdfrwt beam="1">  1        2 0.12216396E+00 0.15996598E+04</pdfrwt>
<pdfrwt beam="2">  1       -2 0.12394399E+00 0.15996598E+04</pdfrwt>
<totfact> 0.16338520E+01</totfact>
</mgrwt>
</event>
<event>
 6    1  0.2047711E-005  0.1703921E+04  0.7818608E-02  0.8759131E-01
          2   -1    0    0  501    0  0.00000000000E+00  0.00000000000E+00  0.24235046232E+04  0.24235046232E+04  0.00000000000E+00 0. -1.
         -2   -1    0    0    0  501 -0.00000000000E+00 -0.00000000000E+00 -0.29949870821E+03  0.29949870821E+03  0.00000000000E+00 0.  1.
         23    2    1    2    0    0 -0.30486099074E+03 -0.31335423164E+03 -0.97521643931E+02  0.45886645543E+03  0.99583405859E+02 0.  0.
         13    1    3    3    0    0 -0.17267481044E+03 -0.23266646731E+03 -0.34970652036E+02  0.29184451627E+03  0.00000000000E+00 0. -1.
        -13    1    3    3    0    0 -0.13218618030E+03 -0.80687764330E+02 -0.62550991895E+02  0.16702193917E+03  0.00000000000E+00 0.  1.
         22    1    1    2    0    0  0.30486099074E+03  0.31335423164E+03  0.22215275589E+04  0.22641368760E+04  0.00000000000E+00 0. -1.
<mgrwt>
<rscale>  0 0.17039208E+04</rscale>
<asrwt>0</asrwt>
<pdfrwt beam="1">  1        2 0.37284685E+00 0.17039208E+04</pdfrwt>
<pdfrwt beam="2">  1       -2 0.46076726E-01 0.17039208E+04</pdfrwt>
<totfact> 0.16393606E+01</totfact>
</mgrwt>
</event>
<event>
 6    1  0.2047711E-005  0.3272216E+04  0.7818608E-02  0.8170001E-01
         -2   -1    0    0    0  501 -0.00000000000E+00  0.00000000000E+00  0.22031299517E+04  0.22031299517E+04  0.00000000000E+00 0.  1.
          2   -1    0    0  501    0  0.00000000000E+00 -0.00000000000E+00 -0.12150208591E+04  0.12150208591E+04  0.00000000000E+00 0. -1.
         23    2    1    2    0    0  0.77779523742E+03  0.14156369021E+04  0.75811315862E+03  0.17866204251E+04  0.91014901203E+02 0.  0.
         13    1    3    3    0    0  0.17918501851E+03  0.40006846454E+03  0.18442379333E+03  0.47557773574E+03  0.00000000000E+00 0.  1.
        -13    1    3    3    0    0  0.59861021890E+03  0.10155684376E+04  0.57368936528E+03  0.13110426894E+04  0.00000000000E+00 0. -1.
         22    1    1    2    0    0 -0.77779523742E+03 -0.14156369021E+04  0.22999593395E+03  0.16315303857E+04  0.00000000000E+00 0. -1.
<mgrwt>
<rscale>  0 0.32722157E+04</rscale>
<asrwt>0</asrwt>
<pdfrwt beam="1">  1        2 0.18692629E+00 0.32722157E+04</pdfrwt>
<pdfrwt beam="2">  1       -2 0.33894307E+00 0.32722157E+04</pdfrwt>
<totfact> 0.28345567E-01</totfact>
</mgrwt>
</event>
<event>
 6    1  0.2047711E-005  0.2893925E+04  0.7818608E-02  0.8274687E-01
         -2   -1    0    0    0  501 -0.00000000000E+00  0.00000000000E+00  0.98303263293E+03  0.98303263293E+03  0.00000000000E+00 0.  1.
          2   -1    0    0  501    0  0.00000000000E+00 -0.00000000000E+00 -0.21298381354E+04  0.21298381354E+04  0.00000000000E+00 0. -1.
         23    2    1    2    0    0 -0.83129171723E+02 -0.10317316115E+04  0.51133481285E+03  0.11581815647E+04  0.92415737807E+02 0.  0.
         11    1    3    3    0    0 -0.20614860580E+02 -0.12262741359E+03  0.31311701805E+02  0.12822978481E+03  0.00000000000E+00 0.  1.
        -11    1    3    3    0    0 -0.62514311142E+02 -0.90910419794E+03  0.48002311104E+03  0.10299517799E+04  0.00000000000E+00 0. -1.
         22    1    1    2    0    0  0.83129171723E+02  0.10317316115E+04 -0.16581403153E+04  0.19546892036E+04  0.00000000000E+00 0. -1.
<mgrwt>
<rscale>  0 0.28939249E+04</rscale>
<asrwt>0</asrwt>
<pdfrwt beam="1">  1        2 0.32766741E+00 0.28939249E+04</pdfrwt>
<pdfrwt beam="2">  1       -2 0.15123579E+00 0.28939249E+04</pdfrwt>
<totfact> 0.14313108E+00</totfact>
</mgrwt>
</event>
<event>
 6    1  0.2047711E-005  0.3816976E+04  0.7818608E-02  0.8042522E-01
          2   -1    0    0  501    0  0.00000000000E+00  0.00000000000E+00  0.14542637311E+04  0.14542637311E+04  0.00000000000E+00 0. -1.
         -2   -1    0    0    0  501 -0.00000000000E+00 -0.00000000000E+00 -0.25045847682E+04  0.25045847682E+04  0.00000000000E+00 0.  1.
         23    2    1    2    0    0  0.81967842968E+03  0.14560032982E+04  0.42884479031E+03  0.17273131808E+04  0.88795484042E+02 0.  0.
         11    1    3    3    0    0  0.66357263533E+03  0.11968092401E+04  0.31671680071E+03  0.14046318134E+04  0.00000000000E+00 0. -1.
        -11    1    3    3    0    0  0.15610579435E+03  0.25919405814E+03  0.11212798959E+03  0.32268136738E+03  0.00000000000E+00 0.  1.
         22    1    1    2    0    0 -0.81967842968E+03 -0.14560032982E+04 -0.14791658275E+04  0.22315353185E+04  0.00000000000E+00 0.  1.
<mgrwt>
<rscale>  0 0.38169762E+04</rscale>
<asrwt>0</asrwt>
<pdfrwt beam="1">  1        2 0.22373288E+00 0.38169762E+04</pdfrwt>
<pdfrwt beam="2">  1       -2 0.38532073E+00 0.38169762E+04</pdfrwt>
<totfact> 0.99736043E-02</totfact>
</mgrwt>
</event>
<event>
 6    1  0.2047711E-005  0.2161606E+04  0.7818608E-02  0.8534581E-01
          1   -1    0    0  501    0  0.00000000000E+00  0.00000000000E+00  0.16237854963E+04  0.16237854963E+04  0.00000000000E+00 0. -1.
         -1   -1    0    0    0  501 -0.00000000000E+00 -0.00000000000E+00 -0.71939006130E+03  0.71939006130E+03  0.00000000000E+00 0.  1.
         23    2    1    2    0    0 -0.72742121767E+03 -0.45007261597E+02  0.13153099029E+04  0.15065047852E+04  0.91374206505E+02 0.  0.
         13    1    3    3    0    0 -0.40701784359E+03 -0.66790073708E+02  0.70205229509E+03  0.81424926404E+03  0.00000000000E+00 0. -1.
        -13    1    3    3    0    0 -0.32040337408E+03  0.21782812111E+02  0.61325760778E+03  0.69225552112E+03  0.00000000000E+00 0.  1.
         22    1    1    2    0    0  0.72742121767E+03  0.45007261597E+02 -0.41091446788E+03  0.83667077242E+03  0.00000000000E+00 0.  1.
<mgrwt>
<rscale>  0 0.21616060E+04</rscale>
<asrwt>0</asrwt>
<pdfrwt beam="1">  1        1 0.24981315E+00 0.21616060E+04</pdfrwt>
<pdfrwt beam="2">  1       -1 0.11067539E+00 0.21616060E+04</pdfrwt>
<totfact> 0.36976108E+00</totfact>
</mgrwt>
</event>
<event>
 6    1  0.2047711E-005  0.1042565E+04  0.7818608E-02  0.9263054E-01
          1   -1    0    0  501    0  0.00000000000E+00  0.00000000000E+00  0.87966998215E+03  0.87966998215E+03  0.00000000000E+00 0. -1.
         -1   -1    0    0    0  501 -0.00000000000E+00 -0.00000000000E+00 -0.30890606455E+03  0.30890606455E+03  0.00000000000E+00 0.  1.
         23    2    1    2    0    0 -0.38788949391E+02 -0.40887919373E+03  0.64602532949E+03  0.77102238814E+03  0.91869576124E+02 0.  0.
         11    1    3    3    0    0 -0.79123702890E+01 -0.88863955243E+02  0.21919981654E+03  0.23666002560E+03  0.00000000000E+00 0. -1.
        -11    1    3    3    0    0 -0.30876579102E+02 -0.32001523848E+03  0.42682551295E+03  0.53436236255E+03  0.00000000000E+00 0.  1.
         22    1    1    2    0    0  0.38788949391E+02  0.40887919373E+03 -0.75261411894E+02  0.41755365856E+03  0.00000000000E+00 0.  1.
<mgrwt>
<rscale>  0 0.10425649E+04</rscale>
<asrwt>0</asrwt>
<pdfrwt beam="1">  1        1 0.13533384E+00 0.10425649E+04</pdfrwt>
<pdfrwt beam="2">  1       -1 0.47524010E-01 0.10425649E+04</pdfrwt>
<totfact> 0.83566273E+01</totfact>
</mgrwt>
</event>
<event>
 6    1  0.2047711E-005  0.3723197E+04  0.7818608E-02  0.8062840E-01
          2   -1    0    0  501    0  0.00000000000E+00  0.00000000000E+00  0.21075604241E+04  0.21075604241E+04  0.00000000000E+00 0. -1.
         -2   -1    0    0    0  501 -0.00000000000E+00 -0.00000000000E+00 -0.16443417825E+04  0.16443417825E+04  0.00000000000E+00 0.  1.
         23    2    1    2    0    0  0.99571486662E+03  0.15492047653E+04 -0.34811522112E+02  0.18441502458E+04  0.90525060714E+02 0.  0.
         11    1    3    3    0    0  0.60820464494E+03  0.86972087265E+03 -0.30712622842E+01  0.10612901201E+04  0.00000000000E+00 0.  1.
        -11    1    3    3    0    0  0.38751022168E+03  0.67948389261E+03 -0.31740259828E+02  0.78286012564E+03  0.00000000000E+00 0. -1.
         22    1    1    2    0    0 -0.99571486662E+03 -0.15492047653E+04  0.49803016366E+03  0.19077519609E+04  0.00000000000E+00 0.  1.
<mgrwt>
<rscale>  0 0.37231974E+04</rscale>
<asrwt>0</asrwt>
<pdfrwt beam="1">  1        2 0.32424006E+00 0.37231974E+04</pdfrwt>
<pdfrwt beam="2">  1       -2 0.25297566E+00 0.37231974E+04</pdfrwt>
<totfact> 0.28928625E-01</totfact>
</mgrwt>
</event>
<event>
 6    1  0.2291812E-005  0.4094790E+04  0.7818608E-02  0.7985693E-01
         -1   -1    0    0    0  501 -0.00000000000E+00  0.00000000000E+00  0.25790710771E+04  0.25790710771E+04  0.00000000000E+00 0.  1.
          1   -1    0    0  501    0  0.00000000000E+00 -0.00000000000E+00 -0.16253238190E+04  0.16253238190E+04  0.00000000000E+00 0. -1.
         23    2    1    2    0    0  0.60705467635E+03  0.10971050411E+04 -0.11839212081E+04  0.17261331418E+04  0.75573440510E+02 0.  0.
         11    1    3    3    0    0  0.15824394886E+03  0.34095665079E+03 -0.32448357091E+03  0.49657041078E+03  0.00000000000E+00 0. -1.
        -11    1    3    3    0    0  0.44881072749E+03  0.75614839033E+03 -0.85943763716E+03  0.12295627310E+04  0.00000000000E+00 0.  1.
         22    1    1    2    0    0 -0.60705467635E+03 -0.10971050411E+04  0.21376684662E+04  0.24782617543E+04  0.00000000000E+00 0.  1.
<mgrwt>
<rscale>  0 0.40947897E+04</rscale>
<asrwt>0</asrwt>
<pdfrwt beam="1">  1        1 0.25004982E+00 0.40947897E+04</pdfrwt>
<pdfrwt beam="2">  1       -1 0.39678017E+00 0.40947897E+04</pdfrwt>
<totfact> 0.31313803E-02</totfact>
</mgrwt>
</event>
<event>
 6    1  0.2047711E-005  0.5968492E+03  0.7818608E-02  0.9911965E-01
         -2   -1    0    0    0  501 -0.00000000000E+00  0.00000000000E+00  0.13060163777E+04  0.13060163777E+04  0.00000000000E+00 0.  1.
          2   -1    0    0  501    0  0.00000000000E+00 -0.00000000000E+00 -0.68189980919E+02  0.68189980919E+02  0.00000000000E+00 0. -1.
         23    2    1    2    0    0  0.22552914723E+03  0.69276284966E+02  0.25222213238E+03  0.36075761008E+03  0.10424705875E+03 0.  0.
         13    1    3    3    0    0  0.20670015524E+03  0.58074295631E+02  0.16487674191E+03  0.27070633168E+03  0.00000000000E+00 0. -1.
        -13    1    3    3    0    0  0.18828991985E+02  0.11201989334E+02  0.87345390468E+02  0.90051278393E+02  0.00000000000E+00 0.  1.
         22    1    1    2    0    0 -0.22552914723E+03 -0.69276284966E+02  0.98560426436E+03  0.10134487485E+04  0.00000000000E+00 0.  1.
<mgrwt>
<rscale>  0 0.59684917E+03</rscale>
<asrwt>0</asrwt>
<pdfrwt beam="1">  1        2 0.10490767E-01 0.59684917E+03</pdfrwt>
<pdfrwt beam="2">  1       -2 0.20092558E+00 0.59684917E+03</pdfrwt>
<totfact> 0.84155160E+01</totfact>
</mgrwt>
</event>
<event>
 6    1  0.2047711E-005  0.1378579E+04  0.7818608E-02  0.8969472E-01
         -2   -1    0    0    0  501 -0.00000000000E+00  0.00000000000E+00  0.19275822805E+03  0.19275822805E+03  0.00000000000E+00 0.  1.
          2   -1    0    0  501    0  0.00000000000E+00 -0.00000000000E+00 -0.24648505020E+04  0.24648505020E+04  0.00000000000E+00 0. -1.
         23    2    1    2    0    0  0.45357360310E+03  0.21236228157E+03 -0.23648876611E+03  0.56130045281E+03  0.91129083024E+02 0.  0.
         11    1    3    3    0    0  0.23556876758E+03  0.15209179897E+03 -0.15821107476E+03  0.32195543752E+03  0.00000000000E+00 0. -1.
        -11    1    3    3    0    0  0.21800483552E+03  0.60270482596E+02 -0.78277691346E+02  0.23934501529E+03  0.00000000000E+00 0.  1.
         22    1    1    2    0    0 -0.45357360310E+03 -0.21236228157E+03 -0.20356035079E+04  0.20963082773E+04  0.00000000000E+00 0. -1.
<mgrwt>
<rscale>  0 0.13785793E+04</rscale>
<asrwt>0</asrwt>
<pdfrwt beam="1">  1        2 0.37920776E+00 0.13785793E+04</pdfrwt>
<pdfrwt beam="2">  1       -2 0.29655113E-01 0.13785793E+04</pdfrwt>
<totfact> 0.37395943E+01</totfact>
</mgrwt>
</event>
<event>
 6    1  0.2047711E-005  0.2652517E+04  0.7818608E-02  0.8350578E-01
          2   -1    0    0  501    0  0.00000000000E+00  0.00000000000E+00  0.16843888272E+04  0.16843888272E+04  0.00000000000E+00 0.  1.
         -2   -1    0    0    0  501 -0.00000000000E+00 -0.00000000000E+00 -0.10442725976E+04  0.10442725976E+04  0.00000000000E+00 0. -1.
         23    2    1    2    0    0  0.62544662023E+03 -0.64225815188E+03  0.13236773828E+04  0.16013039578E+04  0.91507065651E+02 0.  0.
         13    1    3    3    0    0  0.55575895004E+03 -0.57908269583E+03  0.11305405830E+04  0.13864799995E+04  0.00000000000E+00 0.  1.
        -13    1    3    3    0    0  0.69687670195E+02 -0.63175456050E+02  0.19313679977E+03  0.21482395828E+03  0.00000000000E+00 0. -1.
         22    1    1    2    0    0 -0.62544662023E+03  0.64225815188E+03 -0.68356115320E+03  0.11273574671E+04  0.00000000000E+00 0. -1.
<mgrwt>
<rscale>  0 0.26525166E+04</rscale>
<asrwt>0</asrwt>
<pdfrwt beam="1">  1        2 0.25913674E+00 0.26525166E+04</pdfrwt>
<pdfrwt beam="2">  1       -2 0.16065732E+00 0.26525166E+04</pdfrwt>
<totfact> 0.21953272E+00</totfact>
</mgrwt>
</event>
<event>
 6    1  0.2047711E-005  0.1017504E+04  0.7818608E-02  0.9289552E-01
         -2   -1    0    0    0  501 -0.00000000000E+00  0.00000000000E+00  0.18963790385E+03  0.18963790385E+03  0.00000000000E+00 0.  1.
          2   -1    0    0  501    0  0.00000000000E+00 -0.00000000000E+00 -0.13648578546E+04  0.13648578546E+04  0.00000000000E+00 0. -1.
         23    2    1    2    0    0  0.40618943686E+03  0.12694577912E+03 -0.10065763063E+04  0.10967340647E+04  0.92329078610E+02 0.  0.
         11    1    3    3    0    0  0.26012208795E+03  0.97339861957E+02 -0.54493619381E+03  0.61163224628E+03  0.00000000000E+00 0.  1.
        -11    1    3    3    0    0  0.14606734891E+03  0.29605917161E+02 -0.46164011249E+03  0.48510181840E+03  0.00000000000E+00 0. -1.
         22    1    1    2    0    0 -0.40618943686E+03 -0.12694577912E+03 -0.16864364441E+03  0.45776169374E+03  0.00000000000E+00 0.  1.
<mgrwt>
<rscale>  0 0.10175044E+04</rscale>
<asrwt>0</asrwt>
<pdfrwt beam="1">  1        2 0.20997813E+00 0.10175044E+04</pdfrwt>
<pdfrwt beam="2">  1       -2 0.29175062E-01 0.10175044E+04</pdfrwt>
<totfact> 0.16312975E+02</totfact>
</mgrwt>
</event>
<event>
 6    1  0.2047711E-005  0.1943844E+04  0.7818608E-02  0.8633335E-01
         -2   -1    0    0    0  501 -0.00000000000E+00  0.00000000000E+00  0.27778931177E+03  0.27778931177E+03  0.00000000000E+00 0.  1.
          2   -1    0    0  501    0  0.00000000000E+00 -0.00000000000E+00 -0.34005352772E+04  0.34005352772E+04  0.00000000000E+00 0. -1.
         23    2    1    2    0    0  0.23248882236E+03 -0.60094787454E+03 -0.29362407991E+04  0.30075238902E+04  0.92198261529E+02 0.  0.
         13    1    3    3    0    0  0.79596729137E+02 -0.26032898876E+03 -0.10521767684E+04  0.10868223285E+04  0.00000000000E+00 0. -1.
        -13    1    3    3    0    0  0.15289209322E+03 -0.34061888578E+03 -0.18840640307E+04  0.19207015617E+04  0.00000000000E+00 0.  1.
         22    1    1    2    0    0 -0.23248882236E+03  0.60094787454E+03 -0.18650516637E+03  0.67080069881E+03  0.00000000000E+00 0.  1.
<mgrwt>
<rscale>  0 0.19438440E+04</rscale>
<asrwt>0</asrwt>
<pdfrwt beam="1">  1        2 0.52315931E+00 0.19438440E+04</pdfrwt>
<pdfrwt beam="2">  1       -2 0.42736814E-01 0.19438440E+04</pdfrwt>
<totfact> 0.46399156E+00</totfact>
</mgrwt>
</event>
<event>
 6    1  0.2047711E-005  0.2313273E+04  0.7818608E-02  0.8472706E-01
         -2   -1    0    0    0  501 -0.00000000000E+00  0.00000000000E+00  0.84961410497E+03  0.84961410497E+03  0.00000000000E+00 0.  1.
          2   -1    0    0  501    0  0.00000000000E+00 -0.00000000000E+00 -0.15746065730E+04  0.15746065730E+04  0.00000000000E+00 0. -1.
         23    2    1    2    0    0 -0.10378698377E+04 -0.12084742421E+03 -0.87849253721E+03  0.13681240105E+04  0.90753899257E+02 0.  0.
         13    1    3    3    0    0 -0.28116239683E+03 -0.19868629310E+02 -0.28811585682E+03  0.40306054480E+03  0.00000000000E+00 0. -1.
        -13    1    3    3    0    0 -0.75670744084E+03 -0.10097879490E+03 -0.59037668039E+03  0.96506346568E+03  0.00000000000E+00 0.  1.
         22    1    1    2    0    0  0.10378698377E+04  0.12084742421E+03  0.15350006916E+03  0.10560966675E+04  0.00000000000E+00 0.  1.
<mgrwt>
<rscale>  0 0.23132730E+04</rscale>
<asrwt>0</asrwt>
<pdfrwt beam="1">  1        2 0.24224716E+00 0.23132730E+04</pdfrwt>
<pdfrwt beam="2">  1       -2 0.13070986E+00 0.23132730E+04</pdfrwt>
<totfact> 0.44709482E+00</totfact>
</mgrwt>
</event>
<event>
 6    1  0.2047711E-005  0.9440117E+03  0.7818608E-02  0.9372178E-01
          2   -1    0    0  501    0  0.00000000000E+00  0.00000000000E+00  0.15600444795E+04  0.15600444795E+04  0.00000000000E+00 0. -1.
         -2   -1    0    0    0  501 -0.00000000000E+00 -0.00000000000E+00 -0.14280971417E+03  0.14280971417E+03  0.00000000000E+00 0.  1.
         23    2    1    2    0    0 -0.10580485129E+03 -0.38775129185E+03  0.28403567390E+03  0.50048739784E+03  0.90915567765E+02 0.  0.
         11    1    3    3    0    0 -0.10829256246E+03 -0.26521456830E+03  0.22596275791E+03  0.36486328163E+03  0.00000000000E+00 0. -1.
        -11    1    3    3    0    0  0.24877111657E+01 -0.12253672356E+03  0.58072915987E+02  0.13562411621E+03  0.00000000000E+00 0.  1.
         22    1    1    2    0    0  0.10580485129E+03  0.38775129185E+03  0.11331990914E+04  0.12023667958E+04  0.00000000000E+00 0. -1.
<mgrwt>
<rscale>  0 0.94401167E+03</rscale>
<asrwt>0</asrwt>
<pdfrwt beam="1">  1        2 0.24000683E+00 0.94401167E+03</pdfrwt>
<pdfrwt beam="2">  1       -2 0.21970726E-01 0.94401167E+03</pdfrwt>
<totfact> 0.21270172E+02</totfact>
</mgrwt>
</event>
<event>
 6    1  0.2047711E-005  0.1700688E+04  0.7818608E-02  0.8760972E-01
          4   -1    0    0  501    0  0.00000000000E+00  0.00000000000E+00  0.44140969751E+03  0.44140969751E+03  0.00000000000E+00 0. -1.
         -4   -1    0    0    0  501 -0.00000000000E+00 -0.00000000000E+00 -0.16381268759E+04  0.16381268759E+04  0.00000000000E+00 0.  1.
         23    2    1    2    0    0 -0.31812611773E+03 -0.78413064664E+03 -0.66774052042E+03  0.10815979969E+04  0.88947886797E+02 0.  0.
         11    1    3    3    0    0 -0.11498861783E+03 -0.22422747664E+03 -0.15627967553E+03  0.29651927508E+03  0.00000000000E+00 0. -1.
        -11    1    3    3    0    0 -0.20313749990E+03 -0.55990317000E+03 -0.51146084488E+03  0.78507872184E+03  0.00000000000E+00 0.  1.
         22    1    1    2    0    0  0.31812611773E+03  0.78413064664E+03 -0.52897665799E+03  0.99793857650E+03  0.00000000000E+00 0. -1.
<mgrwt>
<rscale>  0 0.17006882E+04</rscale>
<asrwt>0</asrwt>
<pdfrwt beam="1">  1        4 0.67909185E-01 0.17006882E+04</pdfrwt>
<pdfrwt beam="2">  1       -4 0.25201952E+00 0.17006882E+04</pdfrwt>
<totfact> 0.23414214E-01</totfact>
</mgrwt>
</event>
<event>
 6    1  0.2175175E-005  0.2692055E+04  0.7818608E-02  0.8337587E-01
          2   -1    0    0  501    0  0.00000000000E+00  0.00000000000E+00  0.17619880955E+04  0.17619880955E+04  0.00000000000E+00 0. -1.
         -2   -1    0    0    0  501 -0.00000000000E+00 -0.00000000000E+00 -0.10282647992E+04  0.10282647992E+04  0.00000000000E+00 0.  1.
         23    2    1    2    0    0 -0.36282089946E+03 -0.13633259117E+03 -0.96723123850E+03  0.10456979629E+04  0.87877075855E+02 0.  0.
         13    1    3    3    0    0 -0.95379277449E+02 -0.78276729520E+02 -0.32175908573E+03  0.34460609716E+03  0.00000000000E+00 0. -1.
        -13    1    3    3    0    0 -0.26744162201E+03 -0.58055861651E+02 -0.64547215277E+03  0.70109186578E+03  0.00000000000E+00 0.  1.
         22    1    1    2    0    0  0.36282089946E+03  0.13633259117E+03  0.17009545348E+04  0.17445549317E+04  0.00000000000E+00 0. -1.
<mgrwt>
<rscale>  0 0.26920552E+04</rscale>
<asrwt>0</asrwt>
<pdfrwt beam="1">  1        2 0.27107509E+00 0.26920552E+04</pdfrwt>
<pdfrwt beam="2">  1       -2 0.15819458E+00 0.26920552E+04</pdfrwt>
<totfact> 0.20662236E+00</totfact>
</mgrwt>
</event>
<event>
 6    1  0.2047711E-005  0.4561668E+04  0.7818608E-02  0.7899929E-01
          2   -1    0    0  501    0  0.00000000000E+00  0.00000000000E+00  0.15876566014E+04  0.15876566014E+04  0.00000000000E+00 0. -1.
         -2   -1    0    0    0  501 -0.00000000000E+00 -0.00000000000E+00 -0.32766556998E+04  0.32766556998E+04  0.00000000000E+00 0.  1.
         23    2    1    2    0    0  0.21588584962E+04  0.39310851468E+03 -0.15046067186E+04  0.26622212812E+04  0.91523011982E+02 0.  0.
         11    1    3    3    0    0  0.87733939036E+03  0.18591186141E+03 -0.57017542814E+03  0.10627265146E+04  0.00000000000E+00 0. -1.
        -11    1    3    3    0    0  0.12815191058E+04  0.20719665327E+03 -0.93443129050E+03  0.15994947666E+04  0.00000000000E+00 0.  1.
         22    1    1    2    0    0 -0.21588584962E+04 -0.39310851468E+03 -0.18439237973E+03  0.22020910200E+04  0.00000000000E+00 0. -1.
<mgrwt>
<rscale>  0 0.45616681E+04</rscale>
<asrwt>0</asrwt>
<pdfrwt beam="1">  1        2 0.24425486E+00 0.45616681E+04</pdfrwt>
<pdfrwt beam="2">  1       -2 0.50410087E+00 0.45616681E+04</pdfrwt>
<totfact> 0.13355088E-02</totfact>
</mgrwt>
</event>
<event>
 6    1  0.2047711E-005  0.4141555E+04  0.7818608E-02  0.7976584E-01
         -2   -1    0    0    0  501 -0.00000000000E+00  0.00000000000E+00  0.18349884599E+04  0.18349884599E+04  0.00000000000E+00 0.  1.
          2   -1    0    0  501    0  0.00000000000E+00 -0.00000000000E+00 -0.23368640218E+04  0.23368640218E+04  0.00000000000E+00 0. -1.
         23    2    1    2    0    0  0.15068275010E+04  0.10961973704E+04  0.65529097329E+03  0.19784049253E+04  0.11181232499E+03 0.  0.
         13    1    3    3    0    0  0.11941390128E+04  0.90962081783E+03  0.49579634432E+03  0.15808833066E+04  0.00000000000E+00 0.  1.
        -13    1    3    3    0    0  0.31268848821E+03  0.18657655258E+03  0.15949462897E+03  0.39752161866E+03  0.00000000000E+00 0. -1.
         22    1    1    2    0    0 -0.15068275010E+04 -0.10961973704E+04 -0.11571665352E+04  0.21934475564E+04  0.00000000000E+00 0. -1.
<mgrwt>
<rscale>  0 0.41415545E+04</rscale>
<asrwt>0</asrwt>
<pdfrwt beam="1">  1        2 0.35951754E+00 0.41415545E+04</pdfrwt>
<pdfrwt beam="2">  1       -2 0.28230592E+00 0.41415545E+04</pdfrwt>
<totfact> 0.13737320E-01</totfact>
</mgrwt>
</event>
<event>
 6    1  0.2047711E-005  0.2745960E+04  0.7818608E-02  0.8320245E-01
          2   -1    0    0  501    0  0.00000000000E+00  0.00000000000E+00  0.14776344847E+04  0.14776344847E+04  0.00000000000E+00 0. -1.
         -2   -1    0    0    0  501 -0.00000000000E+00 -0.00000000000E+00 -0.12757378374E+04  0.12757378374E+04  0.00000000000E+00 0.  1.
         23    2    1    2    0    0 -0.27469223042E+02  0.98899177273E+03 -0.85134010744E+03  0.13083232066E+04  0.89835124471E+02 0.  0.
         11    1    3    3    0    0 -0.32536606383E+02  0.34513916633E+03 -0.34636738631E+03  0.49005105977E+03  0.00000000000E+00 0.  1.
        -11    1    3    3    0    0  0.50673833417E+01  0.64385260640E+03 -0.50497272114E+03  0.81827214681E+03  0.00000000000E+00 0. -1.
         22    1    1    2    0    0  0.27469223042E+02 -0.98899177273E+03  0.10532367547E+04  0.14450491155E+04  0.00000000000E+00 0. -1.
<mgrwt>
<rscale>  0 0.27459601E+04</rscale>
<asrwt>0</asrwt>
<pdfrwt beam="1">  1        2 0.22732838E+00 0.27459601E+04</pdfrwt>
<pdfrwt beam="2">  1       -2 0.19626736E+00 0.27459601E+04</pdfrwt>
<totfact> 0.16080741E+00</totfact>
</mgrwt>
</event>
<event>
 6    1  0.2047711E-005  0.2152520E+04  0.7818608E-02  0.8538455E-01
         -2   -1    0    0    0  501 -0.00000000000E+00  0.00000000000E+00  0.40754427861E+03  0.40754427861E+03  0.00000000000E+00 0.  1.
          2   -1    0    0  501    0  0.00000000000E+00 -0.00000000000E+00 -0.28422314394E+04  0.28422314394E+04  0.00000000000E+00 0. -1.
         23    2    1    2    0    0 -0.67848740004E+03  0.31434643520E+03 -0.23841668591E+04  0.25003018130E+04  0.89992839006E+02 0.  0.
         11    1    3    3    0    0 -0.27803980805E+03  0.86234501180E+02 -0.85516236305E+03  0.90335219667E+03  0.00000000000E+00 0.  1.
        -11    1    3    3    0    0 -0.40044759199E+03  0.22811193402E+03 -0.15290044960E+04  0.15969496164E+04  0.00000000000E+00 0. -1.
         22    1    1    2    0    0  0.67848740004E+03 -0.31434643520E+03 -0.50520301725E+02  0.74947390496E+03  0.00000000000E+00 0.  1.
<mgrwt>
<rscale>  0 0.21525196E+04</rscale>
<asrwt>0</asrwt>
<pdfrwt beam="1">  1        2 0.43726638E+00 0.21525196E+04</pdfrwt>
<pdfrwt beam="2">  1       -2 0.62699120E-01 0.21525196E+04</pdfrwt>
<totfact> 0.47219453E+00</totfact>
</mgrwt>
</event>
<event>
 6    1  0.2047711E-005  0.2040278E+04  0.7818608E-02  0.8588018E-01
         -2   -1    0    0    0  501 -0.00000000000E+00  0.00000000000E+00  0.57920898911E+03  0.57920898911E+03  0.00000000000E+00 0.  1.
          2   -1    0    0  501    0  0.00000000000E+00 -0.00000000000E+00 -0.17967323594E+04  0.17967323594E+04  0.00000000000E+00 0. -1.
         23    2    1    2    0    0 -0.50793757068E+03  0.16443903002E+03  0.39963011675E+03  0.67293630714E+03  0.89990404739E+02 0.  0.
         13    1    3    3    0    0 -0.23049235972E+03  0.86020248135E+02  0.23850960433E+03  0.34265586575E+03  0.00000000000E+00 0.  1.
        -13    1    3    3    0    0 -0.27744521096E+03  0.78418781887E+02  0.16112051243E+03  0.33028044139E+03  0.00000000000E+00 0. -1.
         22    1    1    2    0    0  0.50793757068E+03 -0.16443903002E+03 -0.16171534870E+04  0.17030050414E+04  0.00000000000E+00 0. -1.
<mgrwt>
<rscale>  0 0.20402780E+04</rscale>
<asrwt>0</asrwt>
<pdfrwt beam="1">  1        2 0.27642036E+00 0.20402780E+04</pdfrwt>
<pdfrwt beam="2">  1       -2 0.89109075E-01 0.20402780E+04</pdfrwt>
<totfact> 0.86764059E+00</totfact>
</mgrwt>
</event>
<event>
 6    1  0.2047711E-005  0.3475136E+04  0.7818608E-02  0.8119708E-01
          2   -1    0    0  501    0  0.00000000000E+00  0.00000000000E+00  0.21710407875E+04  0.21710407875E+04  0.00000000000E+00 0. -1.
         -2   -1    0    0    0  501 -0.00000000000E+00 -0.00000000000E+00 -0.13906428097E+04  0.13906428097E+04  0.00000000000E+00 0.  1.
         23    2    1    2    0    0 -0.55483097918E+03  0.16166676993E+04  0.76863514864E+02  0.17133295711E+04  0.90212826345E+02 0.  0.
         13    1    3    3    0    0 -0.19867447403E+03  0.68451938707E+03  0.60391365058E+02  0.71532192395E+03  0.00000000000E+00 0.  1.
        -13    1    3    3    0    0 -0.35615650514E+03  0.93214831220E+03  0.16472149806E+02  0.99800764717E+03  0.00000000000E+00 0. -1.
         22    1    1    2    0    0  0.55483097918E+03 -0.16166676993E+04  0.70353446287E+03  0.18483540261E+04  0.00000000000E+00 0.  1.
<mgrwt>
<rscale>  0 0.34751358E+04</rscale>
<asrwt>0</asrwt>
<pdfrwt beam="1">  1        2 0.33400627E+00 0.34751358E+04</pdfrwt>
<pdfrwt beam="2">  1       -2 0.21394505E+00 0.34751358E+04</pdfrwt>
<totfact> 0.47683097E-01</totfact>
</mgrwt>
</event>
<event>
 6    1  0.2047711E-005  0.1997379E+04  0.7818608E-02  0.8607847E-01
          2   -1    0    0  501    0  0.00000000000E+00  0.00000000000E+00  0.16754421950E+04  0.16754421950E+04  0.00000000000E+00 0. -1.
         -2   -1    0    0    0  501 -0.00000000000E+00 -0.00000000000E+00 -0.59529426225E+03  0.59529426225E+03  0.00000000000E+00 0.  1.
         23    2    1    2    0    0 -0.11327863272E+02  0.19178528029E+03  0.16529319149E+04  0.16665912723E+04  0.91829405452E+02 0.  0.
         11    1    3    3    0    0 -0.40884151732E+02  0.16997958494E+03  0.12868579694E+04  0.12986793317E+04  0.00000000000E+00 0. -1.
        -11    1    3    3    0    0  0.29556288460E+02  0.21805695353E+02  0.36607394541E+03  0.36791194061E+03  0.00000000000E+00 0.  1.
         22    1    1    2    0    0  0.11327863272E+02 -0.19178528029E+03 -0.57278398213E+03  0.60414518488E+03  0.00000000000E+00 0.  1.
<mgrwt>
<rscale>  0 0.19973794E+04</rscale>
<asrwt>0</asrwt>
<pdfrwt beam="1">  1        2 0.25776034E+00 0.19973794E+04</pdfrwt>
<pdfrwt beam="2">  1       -2 0.91583733E-01 0.19973794E+04</pdfrwt>
<totfact> 0.95458614E+00</totfact>
</mgrwt>
</event>
<event>
 6    1  0.2047711E-005  0.5097715E+04  0.7818608E-02  0.7813608E-01
         -2   -1    0    0    0  501 -0.00000000000E+00  0.00000000000E+00  0.25996949909E+04  0.25996949909E+04  0.00000000000E+00 0.  1.
          2   -1    0    0  501    0  0.00000000000E+00 -0.00000000000E+00 -0.24990145329E+04  0.24990145329E+04  0.00000000000E+00 0. -1.
         23    2    1    2    0    0  0.13701039233E+04  0.63818366857E+03  0.21021003290E+04  0.25906934442E+04  0.91671005072E+02 0.  0.
         11    1    3    3    0    0  0.33944525939E+03  0.19880801498E+03  0.51927998386E+03  0.65145944815E+03  0.00000000000E+00 0.  1.
        -11    1    3    3    0    0  0.10306586639E+04  0.43937565359E+03  0.15828203452E+04  0.19392339961E+04  0.00000000000E+00 0. -1.
         22    1    1    2    0    0 -0.13701039233E+04 -0.63818366857E+03 -0.20014198709E+04  0.25080160796E+04  0.00000000000E+00 0. -1.
<mgrwt>
<rscale>  0 0.50977154E+04</rscale>
<asrwt>0</asrwt>
<pdfrwt beam="1">  1        2 0.38446377E+00 0.50977154E+04</pdfrwt>
<pdfrwt beam="2">  1       -2 0.39995308E+00 0.50977154E+04</pdfrwt>
<totfact> 0.18718358E-02</totfact>
</mgrwt>
</event>
<event>
 6    1  0.2813068E-005  0.3650094E+04  0.7818608E-02  0.8079113E-01
         -2   -1    0    0    0  501 -0.00000000000E+00  0.00000000000E+00  0.20771741450E+04  0.20771741450E+04  0.00000000000E+00 0.  1.
          2   -1    0    0  501    0  0.00000000000E+00 -0.00000000000E+00 -0.16035226531E+04  0.16035226531E+04  0.00000000000E+00 0. -1.
         23    2    1    2    0    0 -0.34304730672E+03  0.12421958117E+04 -0.10645967270E+04  0.16739732317E+04  0.89934976069E+02 0.  0.
         11    1    3    3    0    0 -0.28570775346E+03  0.88860889121E+03 -0.78284935164E+03  0.12182396272E+04  0.00000000000E+00 0.  1.
        -11    1    3    3    0    0 -0.57339553255E+02  0.35358692046E+03 -0.28174737539E+03  0.45573360445E+03  0.00000000000E+00 0. -1.
         22    1    1    2    0    0  0.34304730672E+03 -0.12421958117E+04  0.15382482189E+04  0.20067235664E+04  0.00000000000E+00 0.  1.
<mgrwt>
<rscale>  0 0.36500936E+04</rscale>
<asrwt>0</asrwt>
<pdfrwt beam="1">  1        2 0.24669579E+00 0.36500936E+04</pdfrwt>
<pdfrwt beam="2">  1       -2 0.31956525E+00 0.36500936E+04</pdfrwt>
<totfact> 0.21706242E-01</totfact>
</mgrwt>
</event>
<event>
 6    1  0.2047711E-005  0.2222530E+04  0.7818608E-02  0.8509109E-01
         -2   -1    0    0    0  501 -0.00000000000E+00  0.00000000000E+00  0.50756404687E+03  0.50756404687E+03  0.00000000000E+00 0.  1.
          2   -1    0    0  501    0  0.00000000000E+00 -0.00000000000E+00 -0.24330121297E+04  0.24330121297E+04  0.00000000000E+00 0. -1.
         23    2    1    2    0    0  0.10391087262E+03 -0.68005952486E+03 -0.21158648044E+04  0.22267576039E+04  0.91033672715E+02 0.  0.
         11    1    3    3    0    0  0.40503115529E+02 -0.31490088546E+03 -0.83400848585E+03  0.89239745881E+03  0.00000000000E+00 0.  1.
        -11    1    3    3    0    0  0.63407757087E+02 -0.36515863940E+03 -0.12818563185E+04  0.13343601451E+04  0.00000000000E+00 0. -1.
         22    1    1    2    0    0 -0.10391087262E+03  0.68005952486E+03  0.19041672152E+03  0.71381857263E+03  0.00000000000E+00 0.  1.
<mgrwt>
<rscale>  0 0.22225296E+04</rscale>
<asrwt>0</asrwt>
<pdfrwt beam="1">  1        2 0.37430956E+00 0.22225296E+04</pdfrwt>
<pdfrwt beam="2">  1       -2 0.78086777E-01 0.22225296E+04</pdfrwt>
<totfact> 0.50674127E+00</totfact>
</mgrwt>
</event>
<event>
 6    1  0.2047711E-005  0.4737154E+03  0.7818608E-02  0.1020877E+00
         -2   -1    0    0    0  501 -0.00000000000E+00  0.00000000000E+00  0.19692021057E+03  0.19692021057E+03  0.00000000000E+00 0.  1.
          2   -1    0    0  501    0  0.00000000000E+00 -0.00000000000E+00 -0.28489496117E+03  0.28489496117E+03  0.00000000000E+00 0. -1.
         23    2    1    2    0    0  0.17465165531E+03  0.12664705106E+03 -0.12065153196E+03  0.26361698593E+03  0.91621214038E+02 0.  0.
         13    1    3    3    0    0  0.80437511098E+02  0.54050614817E+01 -0.47040361628E+02  0.93339185251E+02  0.00000000000E+00 0. -1.
        -13    1    3    3    0    0  0.94214144217E+02  0.12124198958E+03 -0.73611170333E+02  0.17027780068E+03  0.00000000000E+00 0.  1.
         22    1    1    2    0    0 -0.17465165531E+03 -0.12664705106E+03  0.32676781359E+02  0.21819818580E+03  0.00000000000E+00 0.  1.
<mgrwt>
<rscale>  0 0.47371542E+03</rscale>
<asrwt>0</asrwt>
<pdfrwt beam="1">  1        2 0.43829994E-01 0.47371542E+03</pdfrwt>
<pdfrwt beam="2">  1       -2 0.30295417E-01 0.47371542E+03</pdfrwt>
<totfact> 0.11695960E+03</totfact>
</mgrwt>
</event>
<event>
 6    1  0.2047711E-005  0.2561018E+03  0.7818608E-02  0.1109508E+00
         -1   -1    0    0    0  501 -0.00000000000E+00  0.00000000000E+00  0.38920362326E+02  0.38920362326E+02  0.00000000000E+00 0. -1.
          1   -1    0    0  501    0  0.00000000000E+00 -0.00000000000E+00 -0.42129712870E+03  0.42129712870E+03  0.00000000000E+00 0.  1.
         23    2    1    2    0    0  0.22103440673E+02 -0.10821788833E+03 -0.24630741701E+03  0.28496184552E+03  0.91302991659E+02 0.  0.
         13    1    3    3    0    0  0.35619748028E+02 -0.81377185012E+02 -0.92503134325E+02  0.12824914249E+03  0.00000000000E+00 0. -1.
        -13    1    3    3    0    0 -0.13516307355E+02 -0.26840703318E+02 -0.15380428268E+03  0.15671270303E+03  0.00000000000E+00 0.  1.
         22    1    1    2    0    0 -0.22103440673E+02  0.10821788833E+03 -0.13606934937E+03  0.17525564551E+03  0.00000000000E+00 0. -1.
<mgrwt>
<rscale>  0 0.25610183E+03</rscale>
<asrwt>0</asrwt>
<pdfrwt beam="1">  1        1 0.64814944E-01 0.25610183E+03</pdfrwt>
<pdfrwt beam="2">  1       -1 0.59877480E-02 0.25610183E+03</pdfrwt>
<totfact> 0.75187612E+03</totfact>
</mgrwt>
</event>
<event>
 6    1  0.2799379E-005  0.2100091E+04  0.7818608E-02  0.8561203E-01
          2   -1    0    0  501    0  0.00000000000E+00  0.00000000000E+00  0.18750489968E+04  0.18750489968E+04  0.00000000000E+00 0. -1.
         -2   -1    0    0    0  501 -0.00000000000E+00 -0.00000000000E+00 -0.58803571323E+03  0.58803571323E+03  0.00000000000E+00 0.  1.
         23    2    1    2    0    0 -0.44426326313E+03  0.16976944055E+03  0.17401063389E+04  0.18062096635E+04  0.90729089755E+02 0.  0.
         11    1    3    3    0    0 -0.19833873530E+03  0.50322423963E+02  0.89008554156E+03  0.91330327469E+03  0.00000000000E+00 0. -1.
        -11    1    3    3    0    0 -0.24592452783E+03  0.11944701658E+03  0.85002079737E+03  0.89290638877E+03  0.00000000000E+00 0.  1.
         22    1    1    2    0    0  0.44426326313E+03 -0.16976944055E+03 -0.45309305538E+03  0.65687504653E+03  0.00000000000E+00 0.  1.
<mgrwt>
<rscale>  0 0.21000912E+04</rscale>
<asrwt>0</asrwt>
<pdfrwt beam="1">  1        2 0.28846907E+00 0.21000912E+04</pdfrwt>
<pdfrwt beam="2">  1       -2 0.90467034E-01 0.21000912E+04</pdfrwt>
<totfact> 0.75437098E+00</totfact>
</mgrwt>
</event>
<event>
 6    1  0.2047711E-005  0.1987166E+04  0.7818608E-02  0.8612645E-01
         -2   -1    0    0    0  501 -0.00000000000E+00  0.00000000000E+00  0.68737276801E+03  0.68737276801E+03  0.00000000000E+00 0.  1.
          2   -1    0    0  501    0  0.00000000000E+00 -0.00000000000E+00 -0.14362028839E+04  0.14362028839E+04  0.00000000000E+00 0. -1.
         23    2    1    2    0    0  0.24657408573E+03 -0.36010137190E+03  0.57620835898E+03  0.72851338172E+03  0.90795906174E+02 0.  0.
         13    1    3    3    0    0  0.19738330366E+03 -0.27973598737E+03  0.38404996499E+03  0.51449661496E+03  0.00000000000E+00 0. -1.
        -13    1    3    3    0    0  0.49190782066E+02 -0.80365384531E+02  0.19215839399E+03  0.21401676676E+03  0.00000000000E+00 0.  1.
         22    1    1    2    0    0 -0.24657408573E+03  0.36010137190E+03 -0.13250384748E+04  0.13950622702E+04  0.00000000000E+00 0. -1.
<mgrwt>
<rscale>  0 0.19871656E+04</rscale>
<asrwt>0</asrwt>
<pdfrwt beam="1">  1        2 0.22095429E+00 0.19871656E+04</pdfrwt>
<pdfrwt beam="2">  1       -2 0.10574966E+00 0.19871656E+04</pdfrwt>
<totfact> 0.92739475E+00</totfact>
</mgrwt>
</event>
<event>
 6    1  0.2047711E-005  0.1620695E+04  0.7818608E-02  0.8807934E-01
          2   -1    0    0  501    0  0.00000000000E+00  0.00000000000E+00  0.27232471854E+04  0.27232471854E+04  0.00000000000E+00 0. -1.
         -2   -1    0    0    0  501 -0.00000000000E+00 -0.00000000000E+00 -0.24113235878E+03  0.24113235878E+03  0.00000000000E+00 0.  1.
         23    2    1    2    0    0  0.73153890033E+03  0.32011116577E+03  0.10224183966E+04  0.13005484262E+04  0.92013641200E+02 0.  0.
         13    1    3    3    0    0  0.29508712246E+03  0.16427297349E+03  0.48339102402E+03  0.58968542610E+03  0.00000000000E+00 0. -1.
        -13    1    3    3    0    0  0.43645177788E+03  0.15583819228E+03  0.53902737258E+03  0.71086300015E+03  0.00000000000E+00 0.  1.
         22    1    1    2    0    0 -0.73153890033E+03 -0.32011116577E+03  0.14596964300E+04  0.16638311179E+04  0.00000000000E+00 0.  1.
<mgrwt>
<rscale>  0 0.16206949E+04</rscale>
<asrwt>0</asrwt>
<pdfrwt beam="1">  1        2 0.41896108E+00 0.16206949E+04</pdfrwt>
<pdfrwt beam="2">  1       -2 0.37097288E-01 0.16206949E+04</pdfrwt>
<totfact> 0.16923114E+01</totfact>
</mgrwt>
</event>
<event>
 6    1  0.2047711E-005  0.1264146E+04  0.7818608E-02  0.9058491E-01
         -2   -1    0    0    0  501 -0.00000000000E+00  0.00000000000E+00  0.61109594782E+03  0.61109594782E+03  0.00000000000E+00 0.  1.
          2   -1    0    0  501    0  0.00000000000E+00 -0.00000000000E+00 -0.65377047978E+03  0.65377047978E+03  0.00000000000E+00 0. -1.
         23    2    1    2    0    0 -0.33542310494E+03 -0.27669888313E+03  0.43296612701E+03  0.62042483388E+03  0.91631741771E+02 0.  0.
         13    1    3    3    0    0 -0.10747034035E+03 -0.14025262324E+03  0.14445730673E+03  0.22822923969E+03  0.00000000000E+00 0.  1.
        -13    1    3    3    0    0 -0.22795276459E+03 -0.13644625989E+03  0.28850882029E+03  0.39219559419E+03  0.00000000000E+00 0. -1.
         22    1    1    2    0    0  0.33542310494E+03  0.27669888313E+03 -0.47564065897E+03  0.64444159372E+03  0.00000000000E+00 0. -1.
<mgrwt>
<rscale>  0 0.12641463E+04</rscale>
<asrwt>0</asrwt>
<pdfrwt beam="1">  1        2 0.10058007E+00 0.12641463E+04</pdfrwt>
<pdfrwt beam="2">  1       -2 0.94014761E-01 0.12641463E+04</pdfrwt>
<totfact> 0.41903049E+01</totfact>
</mgrwt>
</event>
<event>
 6    1  0.2047711E-005  0.8752782E+03  0.7818608E-02  0.9457024E-01
          2   -1    0    0  501    0  0.00000000000E+00  0.00000000000E+00  0.15437587917E+04  0.15437587917E+04  0.00000000000E+00 0. -1.
         -2   -1    0    0    0  501 -0.00000000000E+00 -0.00000000000E+00 -0.12406600845E+03  0.12406600845E+03  0.00000000000E+00 0.  1.
         23    2    1    2    0    0  0.90873269483E+02 -0.41416287061E+03  0.88331260805E+03  0.98409054853E+03  0.91674476617E+02 0.  0.
         13    1    3    3    0    0  0.38825126920E+02 -0.31848310815E+03  0.59685687258E+03  0.67762600821E+03  0.00000000000E+00 0. -1.
        -13    1    3    3    0    0  0.52048142562E+02 -0.95679762464E+02  0.28645573547E+03  0.30646454032E+03  0.00000000000E+00 0.  1.
         22    1    1    2    0    0 -0.90873269483E+02  0.41416287061E+03  0.53638017522E+03  0.68373425164E+03  0.00000000000E+00 0. -1.
<mgrwt>
<rscale>  0 0.87527822E+03</rscale>
<asrwt>0</asrwt>
<pdfrwt beam="1">  1        2 0.23750134E+00 0.87527822E+03</pdfrwt>
<pdfrwt beam="2">  1       -2 0.19087079E-01 0.87527822E+03</pdfrwt>
<totfact> 0.27942136E+02</totfact>
</mgrwt>
</event>
<event>
 6    1  0.2047711E-005  0.2942543E+04  0.7818608E-02  0.8260331E-01
          2   -1    0    0  501    0  0.00000000000E+00  0.00000000000E+00  0.41702807494E+04  0.41702807494E+04  0.00000000000E+00 0. -1.
         -2   -1    0    0    0  501 -0.00000000000E+00 -0.00000000000E+00 -0.51906341818E+03  0.51906341818E+03  0.00000000000E+00 0.  1.
         23    2    1    2    0    0 -0.15520301227E+03  0.74005048149E+02  0.41535762001E+04  0.41583741540E+04  0.10156590265E+03 0.  0.
         13    1    3    3    0    0 -0.15615004663E+03  0.35772753180E+02  0.31522477142E+04  0.31563156019E+04  0.00000000000E+00 0.  1.
        -13    1    3    3    0    0  0.94703435843E+00  0.38232294969E+02  0.10013284859E+04  0.10020585521E+04  0.00000000000E+00 0. -1.
         22    1    1    2    0    0  0.15520301227E+03 -0.74005048149E+02 -0.50235886887E+03  0.53097001356E+03  0.00000000000E+00 0.  1.
<mgrwt>
<rscale>  0 0.29425432E+04</rscale>
<asrwt>0</asrwt>
<pdfrwt beam="1">  1        2 0.64158163E+00 0.29425432E+04</pdfrwt>
<pdfrwt beam="2">  1       -2 0.79855913E-01 0.29425432E+04</pdfrwt>
<totfact> 0.29442659E-01</totfact>
</mgrwt>
</event>
<event>
 6    1  0.2047711E-005  0.1414588E+04  0.7818608E-02  0.8943326E-01
          2   -1    0    0  501    0  0.00000000000E+00  0.00000000000E+00  0.18290615522E+04  0.18290615522E+04  0.00000000000E+00 0. -1.
         -2   -1    0    0    0  501 -0.00000000000E+00 -0.00000000000E+00 -0.27350892048E+03  0.27350892048E+03  0.00000000000E+00 0.  1.
         23    2    1    2    0    0 -0.11441054073E+03  0.18991444551E+02  0.18136619128E+04  0.18196025455E+04  0.90185601067E+02 0.  0.
         13    1    3    3    0    0 -0.70759778906E+02 -0.19023616931E+02  0.58394877234E+03  0.58852783539E+03  0.00000000000E+00 0. -1.
        -13    1    3    3    0    0 -0.43650761822E+02  0.38015061482E+02  0.12297131405E+04  0.12310747101E+04  0.00000000000E+00 0.  1.
         22    1    1    2    0    0  0.11441054073E+03 -0.18991444551E+02 -0.25810928114E+03  0.28296792717E+03  0.00000000000E+00 0.  1.
<mgrwt>
<rscale>  0 0.14145878E+04</rscale>
<asrwt>0</asrwt>
<pdfrwt beam="1">  1        2 0.28139408E+00 0.14145878E+04</pdfrwt>
<pdfrwt beam="2">  1       -2 0.42078297E-01 0.14145878E+04</pdfrwt>
<totfact> 0.43273572E+01</totfact>
</mgrwt>
</event>
<event>
 6    1  0.2047711E-005  0.2500449E+03  0.7818608E-02  0.1113276E+00
          2   -1    0    0  501    0  0.00000000000E+00  0.00000000000E+00  0.13742401385E+04  0.13742401385E+04  0.00000000000E+00 0. -1.
         -2   -1    0    0    0  501 -0.00000000000E+00 -0.00000000000E+00 -0.11374004131E+02  0.11374004131E+02  0.00000000000E+00 0.  1.
         23    2    1    2    0    0 -0.10353298388E+03  0.10002458350E+02  0.93372844331E+03  0.94405068648E+03  0.92540611962E+02 0.  0.
         11    1    3    3    0    0 -0.47308086178E+02  0.50701141834E+02  0.42794217698E+03  0.43352412579E+03  0.00000000000E+00 0. -1.
        -11    1    3    3    0    0 -0.56224897705E+02 -0.40698683485E+02  0.50578626633E+03  0.51052656069E+03  0.00000000000E+00 0.  1.
         22    1    1    2    0    0  0.10353298388E+03 -0.10002458350E+02  0.42913769102E+03  0.44156345611E+03  0.00000000000E+00 0.  1.
<mgrwt>
<rscale>  0 0.25004490E+03</rscale>
<asrwt>0</asrwt>
<pdfrwt beam="1">  1        2 0.21142143E+00 0.25004490E+03</pdfrwt>
<pdfrwt beam="2">  1       -2 0.17498479E-02 0.25004490E+03</pdfrwt>
<totfact> 0.14963900E+04</totfact>
</mgrwt>
</event>
<event>
 6    1  0.2047711E-005  0.1730663E+04  0.7818608E-02  0.8744067E-01
          2   -1    0    0  501    0  0.00000000000E+00  0.00000000000E+00  0.14568904437E+04  0.14568904437E+04  0.00000000000E+00 0. -1.
         -2   -1    0    0    0  501 -0.00000000000E+00 -0.00000000000E+00 -0.51397013316E+03  0.51397013316E+03  0.00000000000E+00 0.  1.
         23    2    1    2    0    0 -0.28120263701E+03 -0.26329797667E+03 -0.40595054319E+03  0.56805862092E+03  0.97437188502E+02 0.  0.
         11    1    3    3    0    0 -0.17969185295E+03 -0.20763208814E+03 -0.23403024105E+03  0.36079135213E+03  0.00000000000E+00 0.  1.
        -11    1    3    3    0    0 -0.10151078406E+03 -0.55665888537E+02 -0.17192030213E+03  0.20726726879E+03  0.00000000000E+00 0. -1.
         22    1    1    2    0    0  0.28120263701E+03  0.26329797667E+03  0.13488708537E+04  0.14028019559E+04  0.00000000000E+00 0. -1.
<mgrwt>
<rscale>  0 0.17306625E+04</rscale>
<asrwt>0</asrwt>
<pdfrwt beam="1">  1        2 0.22413699E+00 0.17306625E+04</pdfrwt>
<pdfrwt beam="2">  1       -2 0.79072329E-01 0.17306625E+04</pdfrwt>
<totfact> 0.18088513E+01</totfact>
</mgrwt>
</event>
<event>
 6    1  0.2047711E-005  0.2046779E+04  0.7818608E-02  0.8585057E-01
          4   -1    0    0  501    0  0.00000000000E+00  0.00000000000E+00  0.96650100811E+03  0.96650100811E+03  0.00000000000E+00 0. -1.
         -4   -1    0    0    0  501 -0.00000000000E+00 -0.00000000000E+00 -0.10836269916E+04  0.10836269916E+04  0.00000000000E+00 0.  1.
         23    2    1    2    0    0  0.60494289478E+03 -0.63886575666E+03  0.46077646620E+03  0.99747582432E+03  0.92399714925E+02 0.  0.
         13    1    3    3    0    0  0.44672558467E+03 -0.42570732758E+03  0.35346566070E+03  0.71114587115E+03  0.00000000000E+00 0. -1.
        -13    1    3    3    0    0  0.15821731012E+03 -0.21315842908E+03  0.10731080550E+03  0.28632995317E+03  0.00000000000E+00 0.  1.
         22    1    1    2    0    0 -0.60494289478E+03  0.63886575666E+03 -0.57790244968E+03  0.10526521754E+04  0.00000000000E+00 0.  1.
<mgrwt>
<rscale>  0 0.20467795E+04</rscale>
<asrwt>0</asrwt>
<pdfrwt beam="1">  1        4 0.14869246E+00 0.20467795E+04</pdfrwt>
<pdfrwt beam="2">  1       -4 0.16671184E+00 0.20467795E+04</pdfrwt>
<totfact> 0.12606551E-01</totfact>
</mgrwt>
</event>
<event>
 6    1  0.2047711E-005  0.1498573E+04  0.7818608E-02  0.8885403E-01
          2   -1    0    0  501    0  0.00000000000E+00  0.00000000000E+00  0.12329157329E+04  0.12329157329E+04  0.00000000000E+00 0. -1.
         -2   -1    0    0    0  501 -0.00000000000E+00 -0.00000000000E+00 -0.45536761582E+03  0.45536761582E+03  0.00000000000E+00 0.  1.
         23    2    1    2    0    0 -0.74405031389E+03 -0.58583610875E+02  0.38017430823E+03  0.84273686682E+03  0.92897863254E+02 0.  0.
         11    1    3    3    0    0 -0.57290578792E+03 -0.16675896146E+02  0.25939158163E+03  0.62911296280E+03  0.00000000000E+00 0.  1.
        -11    1    3    3    0    0 -0.17114452597E+03 -0.41907714729E+02  0.12078272660E+03  0.21362390401E+03  0.00000000000E+00 0. -1.
         22    1    1    2    0    0  0.74405031389E+03  0.58583610875E+02  0.39737380881E+03  0.84554648186E+03  0.00000000000E+00 0.  1.
<mgrwt>
<rscale>  0 0.14985725E+04</rscale>
<asrwt>0</asrwt>
<pdfrwt beam="1">  1        2 0.18967934E+00 0.14985725E+04</pdfrwt>
<pdfrwt beam="2">  1       -2 0.70056557E-01 0.14985725E+04</pdfrwt>
<totfact> 0.32465136E+01</totfact>
</mgrwt>
</event>
<event>
 6    1  0.2047711E-005  0.4259573E+04  0.7818608E-02  0.7954136E-01
          2   -1    0    0  501    0  0.00000000000E+00  0.00000000000E+00  0.36882441211E+04  0.36882441211E+04  0.00000000000E+00 0. -1.
         -2   -1    0    0    0  501 -0.00000000000E+00 -0.00000000000E+00 -0.12298507375E+04  0.12298507375E+04  0.00000000000E+00 0.  1.
         23    2    1    2    0    0 -0.10348112816E+04  0.32602062254E+03  0.33445008280E+04  0.35172700166E+04  0.91535489791E+02 0.  0.
         11    1    3    3    0    0 -0.74676465635E+03  0.25901104004E+03  0.25396167912E+04  0.26597739786E+04  0.00000000000E+00 0.  1.
        -11    1    3    3    0    0 -0.28804662526E+03  0.67009582500E+02  0.80488403681E+03  0.85749603799E+03  0.00000000000E+00 0. -1.
         22    1    1    2    0    0  0.10348112816E+04 -0.32602062254E+03 -0.88610744450E+03  0.14008248420E+04  0.00000000000E+00 0.  1.
<mgrwt>
<rscale>  0 0.42595726E+04</rscale>
<asrwt>0</asrwt>
<pdfrwt beam="1">  1        2 0.56742217E+00 0.42595726E+04</pdfrwt>
<pdfrwt beam="2">  1       -2 0.18920781E+00 0.42595726E+04</pdfrwt>
<totfact> 0.72001878E-02</totfact>
</mgrwt>
</event>
<event>
 6    1  0.2047711E-005  0.4864234E+04  0.7818608E-02  0.7849799E-01
          2   -1    0    0  501    0  0.00000000000E+00  0.00000000000E+00  0.23544815637E+04  0.23544815637E+04  0.00000000000E+00 0. -1.
         -2   -1    0    0    0  501 -0.00000000000E+00 -0.00000000000E+00 -0.25123121509E+04  0.25123121509E+04  0.00000000000E+00 0.  1.
         23    2    1    2    0    0  0.18272865706E+04  0.15304164654E+04 -0.55878208159E+03  0.24497887767E+04  0.89871390432E+02 0.  0.
         13    1    3    3    0    0  0.61665903688E+03  0.57211716004E+03 -0.19204336766E+03  0.86282505042E+03  0.00000000000E+00 0.  1.
        -13    1    3    3    0    0  0.12106275337E+04  0.95829930541E+03 -0.36673871393E+03  0.15869637263E+04  0.00000000000E+00 0. -1.
         22    1    1    2    0    0 -0.18272865706E+04 -0.15304164654E+04  0.40095149435E+03  0.24170049379E+04  0.00000000000E+00 0.  1.
<mgrwt>
<rscale>  0 0.48642338E+04</rscale>
<asrwt>0</asrwt>
<pdfrwt beam="1">  1        2 0.36222794E+00 0.48642338E+04</pdfrwt>
<pdfrwt beam="2">  1       -2 0.38650956E+00 0.48642338E+04</pdfrwt>
<totfact> 0.28237489E-02</totfact>
</mgrwt>
</event>
<event>
 6    1  0.2047711E-005  0.3690856E+04  0.7818608E-02  0.8069991E-01
          2   -1    0    0  501    0  0.00000000000E+00  0.00000000000E+00  0.35235266982E+04  0.35235266982E+04  0.00000000000E+00 0. -1.
         -2   -1    0    0    0  501 -0.00000000000E+00 -0.00000000000E+00 -0.96653271189E+03  0.96653271189E+03  0.00000000000E+00 0.  1.
         23    2    1    2    0    0  0.10557438648E+04  0.66679261757E+03  0.29304476883E+04  0.31867270770E+04  0.92186257703E+02 0.  0.
         13    1    3    3    0    0  0.61763634135E+03  0.44085336045E+03  0.17415756076E+04  0.18997136449E+04  0.00000000000E+00 0. -1.
        -13    1    3    3    0    0  0.43810752348E+03  0.22593925712E+03  0.11888720807E+04  0.12870134321E+04  0.00000000000E+00 0.  1.
         22    1    1    2    0    0 -0.10557438648E+04 -0.66679261757E+03 -0.37345370202E+03  0.13033323331E+04  0.00000000000E+00 0.  1.
<mgrwt>
<rscale>  0 0.36908556E+04</rscale>
<asrwt>0</asrwt>
<pdfrwt beam="1">  1        2 0.54208102E+00 0.36908556E+04</pdfrwt>
<pdfrwt beam="2">  1       -2 0.14869734E+00 0.36908556E+04</pdfrwt>
<totfact> 0.19378816E-01</totfact>
</mgrwt>
</event>
<event>
 6    1  0.2047711E-005  0.5079925E+04  0.7818608E-02  0.7816295E-01
          2   -1    0    0  501    0  0.00000000000E+00  0.00000000000E+00  0.37911334357E+04  0.37911334357E+04  0.00000000000E+00 0. -1.
         -2   -1    0    0    0  501 -0.00000000000E+00 -0.00000000000E+00 -0.17017096988E+04  0.17017096988E+04  0.00000000000E+00 0.  1.
         23    2    1    2    0    0 -0.67384745283E+02 -0.13458564188E+04 -0.12819538147E+04  0.18621329010E+04  0.90901892014E+02 0.  0.
         11    1    3    3    0    0 -0.15922254216E+02 -0.70594484697E+03 -0.72795592833E+03  0.10141654099E+04  0.00000000000E+00 0. -1.
        -11    1    3    3    0    0 -0.51462491067E+02 -0.63991157187E+03 -0.55399788641E+03  0.84796749109E+03  0.00000000000E+00 0.  1.
         22    1    1    2    0    0  0.67384745283E+02  0.13458564188E+04  0.33713775516E+04  0.36307102335E+04  0.00000000000E+00 0. -1.
<mgrwt>
<rscale>  0 0.50799246E+04</rscale>
<asrwt>0</asrwt>
<pdfrwt beam="1">  1        2 0.58325130E+00 0.50799246E+04</pdfrwt>
<pdfrwt beam="2">  1       -2 0.26180149E+00 0.50799246E+04</pdfrwt>
<totfact> 0.19561489E-02</totfact>
</mgrwt>
</event>
<event>
 6    1  0.2047711E-005  0.5614470E+04  0.7818608E-02  0.7740132E-01
          2   -1    0    0  501    0  0.00000000000E+00  0.00000000000E+00  0.28914129468E+04  0.28914129468E+04  0.00000000000E+00 0. -1.
         -2   -1    0    0    0  501 -0.00000000000E+00 -0.00000000000E+00 -0.27255080156E+04  0.27255080156E+04  0.00000000000E+00 0.  1.
         23    2    1    2    0    0 -0.25866942336E+04 -0.10877843613E+04  0.36184297074E+02  0.28078126843E+04  0.90779358894E+02 0.  0.
         13    1    3    3    0    0 -0.17629027640E+04 -0.75898881572E+03 -0.14215153422E+02  0.19193989289E+04  0.00000000000E+00 0. -1.
        -13    1    3    3    0    0 -0.82379146966E+03 -0.32879554555E+03  0.50399450496E+02  0.88841375545E+03  0.00000000000E+00 0.  1.
         22    1    1    2    0    0  0.25866942336E+04  0.10877843613E+04  0.12972063410E+03  0.28091082781E+04  0.00000000000E+00 0.  1.
<mgrwt>
<rscale>  0 0.56144703E+04</rscale>
<asrwt>0</asrwt>
<pdfrwt beam="1">  1        2 0.44483276E+00 0.56144703E+04</pdfrwt>
<pdfrwt beam="2">  1       -2 0.41930892E+00 0.56144703E+04</pdfrwt>
<totfact> 0.78280316E-03</totfact>
</mgrwt>
</event>
<event>
 6    1  0.2047711E-005  0.4436860E+04  0.7818608E-02  0.7921785E-01
          2   -1    0    0  501    0  0.00000000000E+00  0.00000000000E+00  0.22286913139E+04  0.22286913139E+04  0.00000000000E+00 0. -1.
         -2   -1    0    0    0  501 -0.00000000000E+00 -0.00000000000E+00 -0.22082160464E+04  0.22082160464E+04  0.00000000000E+00 0.  1.
         23    2    1    2    0    0 -0.20082311754E+04 -0.74634342819E+03 -0.56187450852E+03  0.22167379459E+04  0.90571467920E+02 0.  0.
         11    1    3    3    0    0 -0.15597480349E+04 -0.55909674347E+03 -0.46801270902E+03  0.17217546273E+04  0.00000000000E+00 0. -1.
        -11    1    3    3    0    0 -0.44848314054E+03 -0.18724668473E+03 -0.93861799494E+02  0.49498331860E+03  0.00000000000E+00 0.  1.
         22    1    1    2    0    0  0.20082311754E+04  0.74634342819E+03  0.58234977606E+03  0.22201694143E+04  0.00000000000E+00 0. -1.
<mgrwt>
<rscale>  0 0.44368601E+04</rscale>
<asrwt>0</asrwt>
<pdfrwt beam="1">  1        2 0.34287559E+00 0.44368601E+04</pdfrwt>
<pdfrwt beam="2">  1       -2 0.33972555E+00 0.44368601E+04</pdfrwt>
<totfact> 0.68396680E-02</totfact>
</mgrwt>
</event>
<event>
 6    1  0.2047711E-005  0.1820167E+04  0.7818608E-02  0.8695648E-01
         -1   -1    0    0    0  501 -0.00000000000E+00  0.00000000000E+00  0.30923266551E+03  0.30923266551E+03  0.00000000000E+00 0.  1.
          1   -1    0    0  501    0  0.00000000000E+00 -0.00000000000E+00 -0.26784090586E+04  0.26784090586E+04  0.00000000000E+00 0. -1.
         23    2    1    2    0    0  0.60940755978E+03 -0.57513877160E+03 -0.17605589740E+04  0.19519886242E+04  0.92355333307E+02 0.  0.
         13    1    3    3    0    0  0.37285609456E+03 -0.33439735609E+03 -0.11505583724E+04  0.12548417539E+04  0.00000000000E+00 0. -1.
        -13    1    3    3    0    0  0.23655146522E+03 -0.24074141552E+03 -0.61000060163E+03  0.69714687034E+03  0.00000000000E+00 0.  1.
         22    1    1    2    0    0 -0.60940755978E+03  0.57513877160E+03 -0.60861741911E+03  0.10356530999E+04  0.00000000000E+00 0.  1.
<mgrwt>
<rscale>  0 0.18201666E+04</rscale>
<asrwt>0</asrwt>
<pdfrwt beam="1">  1        1 0.41206292E+00 0.18201666E+04</pdfrwt>
<pdfrwt beam="2">  1       -1 0.47574257E-01 0.18201666E+04</pdfrwt>
<totfact> 0.42302364E+00</totfact>
</mgrwt>
</event>
<event>
 6    1  0.2047711E-005  0.3814196E+04  0.7818608E-02  0.8043115E-01
         -2   -1    0    0    0  501 -0.00000000000E+00  0.00000000000E+00  0.17951801310E+04  0.17951801310E+04  0.00000000000E+00 0.  1.
          2   -1    0    0  501    0  0.00000000000E+00 -0.00000000000E+00 -0.20259933515E+04  0.20259933515E+04  0.00000000000E+00 0. -1.
         23    2    1    2    0    0  0.17735597767E+04 -0.14856663643E+03  0.56810193700E+03  0.18703142473E+04  0.88029801359E+02 0.  0.
         11    1    3    3    0    0  0.78132187568E+03 -0.74147302135E+02  0.29554853753E+03  0.83863617491E+03  0.00000000000E+00 0.  1.
        -11    1    3    3    0    0  0.99223790098E+03 -0.74419334299E+02  0.27255339947E+03  0.10316780724E+04  0.00000000000E+00 0. -1.
         22    1    1    2    0    0 -0.17735597767E+04  0.14856663643E+03 -0.79891515750E+03  0.19508592352E+04  0.00000000000E+00 0. -1.
<mgrwt>
<rscale>  0 0.38141961E+04</rscale>
<asrwt>0</asrwt>
<pdfrwt beam="1">  1        2 0.31169128E+00 0.38141961E+04</pdfrwt>
<pdfrwt beam="2">  1       -2 0.27618156E+00 0.38141961E+04</pdfrwt>
<totfact> 0.22997542E-01</totfact>
</mgrwt>
</event>
<event>
 6    1  0.2047711E-005  0.1912839E+04  0.7818608E-02  0.8648492E-01
         -2   -1    0    0    0  501 -0.00000000000E+00  0.00000000000E+00  0.28021600120E+03  0.28021600120E+03  0.00000000000E+00 0.  1.
          2   -1    0    0  501    0  0.00000000000E+00 -0.00000000000E+00 -0.32644026405E+04  0.32644026405E+04  0.00000000000E+00 0. -1.
         23    2    1    2    0    0  0.71561705888E+03  0.35926478835E+03 -0.53332225338E+03  0.96626350688E+03  0.89741716451E+02 0.  0.
         11    1    3    3    0    0  0.42430505762E+03  0.24738344636E+03 -0.28839823464E+03  0.56956728592E+03  0.00000000000E+00 0.  1.
        -11    1    3    3    0    0  0.29131200126E+03  0.11188134199E+03 -0.24492401874E+03  0.39669622096E+03  0.00000000000E+00 0. -1.
         22    1    1    2    0    0 -0.71561705888E+03 -0.35926478835E+03 -0.24508643860E+04  0.25783551349E+04  0.00000000000E+00 0. -1.
<mgrwt>
<rscale>  0 0.19128386E+04</rscale>
<asrwt>0</asrwt>
<pdfrwt beam="1">  1        2 0.50221581E+00 0.19128386E+04</pdfrwt>
<pdfrwt beam="2">  1       -2 0.43110153E-01 0.19128386E+04</pdfrwt>
<totfact> 0.56410637E+00</totfact>
</mgrwt>
</event>
<event>
 6    1  0.2047711E-005  0.5345627E+03  0.7818608E-02  0.1005132E+00
         -2   -1    0    0    0  501 -0.00000000000E+00  0.00000000000E+00  0.43515233062E+02  0.43515233062E+02  0.00000000000E+00 0. -1.
          2   -1    0    0  501    0  0.00000000000E+00 -0.00000000000E+00 -0.16417083445E+04  0.16417083445E+04  0.00000000000E+00 0.  1.
         23    2    1    2    0    0 -0.25520815157E+03 -0.62907698584E+01 -0.84847737304E+03  0.89323591174E+03  0.11307416613E+03 0.  0.
         11    1    3    3    0    0 -0.13033358389E+03 -0.12151456656E+02 -0.61099534424E+03  0.62485983362E+03  0.00000000000E+00 0.  1.
        -11    1    3    3    0    0 -0.12487456768E+03  0.58606867977E+01 -0.23748202880E+03  0.26837607812E+03  0.00000000000E+00 0. -1.
         22    1    1    2    0    0  0.25520815157E+03  0.62907698584E+01 -0.74971573844E+03  0.79198766586E+03  0.00000000000E+00 0. -1.
<mgrwt>
<rscale>  0 0.53456270E+03</rscale>
<asrwt>0</asrwt>
<pdfrwt beam="1">  1        2 0.25257051E+00 0.53456270E+03</pdfrwt>
<pdfrwt beam="2">  1       -2 0.66946513E-02 0.53456270E+03</pdfrwt>
<totfact> 0.14136232E+03</totfact>
</mgrwt>
</event>
<event>
 6    1  0.2047711E-005  0.3502695E+04  0.7818608E-02  0.8113152E-01
         -2   -1    0    0    0  501 -0.00000000000E+00  0.00000000000E+00  0.96155961482E+03  0.96155961482E+03  0.00000000000E+00 0.  1.
          2   -1    0    0  501    0  0.00000000000E+00 -0.00000000000E+00 -0.31898364590E+04  0.31898364590E+04  0.00000000000E+00 0. -1.
         23    2    1    2    0    0 -0.21841224721E+03 -0.17248618615E+04 -0.13525542642E+04  0.22046700047E+04  0.91183557390E+02 0.  0.
         11    1    3    3    0    0 -0.77903264168E+02 -0.37742839739E+03 -0.27049160442E+03  0.47083630041E+03  0.00000000000E+00 0. -1.
        -11    1    3    3    0    0 -0.14050898304E+03 -0.13474334641E+04 -0.10820626598E+04  0.17338337043E+04  0.00000000000E+00 0.  1.
         22    1    1    2    0    0  0.21841224721E+03  0.17248618615E+04 -0.87572258004E+03  0.19467260691E+04  0.00000000000E+00 0.  1.
<mgrwt>
<rscale>  0 0.35026949E+04</rscale>
<asrwt>0</asrwt>
<pdfrwt beam="1">  1        2 0.49074406E+00 0.35026949E+04</pdfrwt>
<pdfrwt beam="2">  1       -2 0.14793225E+00 0.35026949E+04</pdfrwt>
<totfact> 0.33589487E-01</totfact>
</mgrwt>
</event>
<event>
 6    1  0.2047711E-005  0.4665997E+04  0.7818608E-02  0.7882203E-01
         -2   -1    0    0    0  501 -0.00000000000E+00  0.00000000000E+00  0.25455277921E+04  0.25455277921E+04  0.00000000000E+00 0.  1.
          2   -1    0    0  501    0  0.00000000000E+00 -0.00000000000E+00 -0.21382136229E+04  0.21382136229E+04  0.00000000000E+00 0. -1.
         23    2    1    2    0    0  0.15813837832E+04 -0.12073492066E+04  0.14248817893E+04  0.24490354752E+04  0.94972990393E+02 0.  0.
         11    1    3    3    0    0  0.39381018784E+03 -0.29112165436E+03  0.40095893452E+03  0.63293471137E+03  0.00000000000E+00 0. -1.
        -11    1    3    3    0    0  0.11875735953E+04 -0.91622755222E+03  0.10239228548E+04  0.18161007638E+04  0.00000000000E+00 0.  1.
         22    1    1    2    0    0 -0.15813837832E+04  0.12073492066E+04 -0.10175676200E+04  0.22347059399E+04  0.00000000000E+00 0. -1.
<mgrwt>
<rscale>  0 0.46659971E+04</rscale>
<asrwt>0</asrwt>
<pdfrwt beam="1">  1        2 0.32895594E+00 0.46659971E+04</pdfrwt>
<pdfrwt beam="2">  1       -2 0.39161966E+00 0.46659971E+04</pdfrwt>
<totfact> 0.35211910E-02</totfact>
</mgrwt>
</event>
<event>
 6    1  0.2047711E-005  0.1229019E+04  0.7818608E-02  0.9087829E-01
          2   -1    0    0  501    0  0.00000000000E+00  0.00000000000E+00  0.73582879200E+03  0.73582879200E+03  0.00000000000E+00 0. -1.
         -2   -1    0    0    0  501 -0.00000000000E+00 -0.00000000000E+00 -0.51319229194E+03  0.51319229194E+03  0.00000000000E+00 0.  1.
         23    2    1    2    0    0 -0.21557458206E+03  0.11046535527E+03 -0.45843788206E+03  0.52615366239E+03  0.89428125338E+02 0.  0.
         13    1    3    3    0    0 -0.39216901736E+02 -0.14771609113E+02 -0.73670524209E+02  0.84755601318E+02  0.00000000000E+00 0.  1.
        -13    1    3    3    0    0 -0.17635768033E+03  0.12523696438E+03 -0.38476735785E+03  0.44139806108E+03  0.00000000000E+00 0. -1.
         22    1    1    2    0    0  0.21557458206E+03 -0.11046535527E+03  0.68107438212E+03  0.72286742154E+03  0.00000000000E+00 0. -1.
<mgrwt>
<rscale>  0 0.12290186E+04</rscale>
<asrwt>0</asrwt>
<pdfrwt beam="1">  1        2 0.11320443E+00 0.12290186E+04</pdfrwt>
<pdfrwt beam="2">  1       -2 0.78952660E-01 0.12290186E+04</pdfrwt>
<totfact> 0.53928554E+01</totfact>
</mgrwt>
</event>
<event>
 6    1  0.2047711E-005  0.2845585E+04  0.7818608E-02  0.8289254E-01
         -2   -1    0    0    0  501 -0.00000000000E+00  0.00000000000E+00  0.44065824320E+03  0.44065824320E+03  0.00000000000E+00 0. -1.
          2   -1    0    0  501    0  0.00000000000E+00 -0.00000000000E+00 -0.45938961362E+04  0.45938961362E+04  0.00000000000E+00 0.  1.
         23    2    1    2    0    0  0.17789147681E+03  0.11328068256E+04 -0.35645240292E+04  0.37455700138E+04  0.92555342197E+02 0.  0.
         13    1    3    3    0    0  0.14909461891E+03  0.71700830920E+03 -0.23554642766E+04  0.24666864574E+04  0.00000000000E+00 0. -1.
        -13    1    3    3    0    0  0.28796857904E+02  0.41579851635E+03 -0.12090597526E+04  0.12788835563E+04  0.00000000000E+00 0.  1.
         22    1    1    2    0    0 -0.17789147681E+03 -0.11328068256E+04 -0.58871386381E+03  0.12889843657E+04  0.00000000000E+00 0. -1.
<mgrwt>
<rscale>  0 0.28455848E+04</rscale>
<asrwt>0</asrwt>
<pdfrwt beam="1">  1        2 0.70675326E+00 0.28455848E+04</pdfrwt>
<pdfrwt beam="2">  1       -2 0.67793575E-01 0.28455848E+04</pdfrwt>
<totfact> 0.17150470E-01</totfact>
</mgrwt>
</event>
<event>
 6    1  0.2047711E-005  0.2592707E+04  0.7818608E-02  0.8370683E-01
          1   -1    0    0  501    0  0.00000000000E+00  0.00000000000E+00  0.18263752083E+04  0.18263752083E+04  0.00000000000E+00 0.  1.
         -1   -1    0    0    0  501 -0.00000000000E+00 -0.00000000000E+00 -0.92014604810E+03  0.92014604810E+03  0.00000000000E+00 0. -1.
         23    2    1    2    0    0  0.74062313029E+03 -0.10623859367E+04  0.48043912838E+03  0.13832591207E+04  0.73467946780E+02 0.  0.
         13    1    3    3    0    0  0.28299963238E+03 -0.37201361352E+03  0.20489022480E+03  0.51035568458E+03  0.00000000000E+00 0. -1.
        -13    1    3    3    0    0  0.45762349792E+03 -0.69037232317E+03  0.27554890358E+03  0.87290343608E+03  0.00000000000E+00 0.  1.
         22    1    1    2    0    0 -0.74062313029E+03  0.10623859367E+04  0.42579003184E+03  0.13632621358E+04  0.00000000000E+00 0. -1.
<mgrwt>
<rscale>  0 0.25927066E+04</rscale>
<asrwt>0</asrwt>
<pdfrwt beam="1">  1        1 0.28098080E+00 0.25927066E+04</pdfrwt>
<pdfrwt beam="2">  1       -1 0.14156093E+00 0.25927066E+04</pdfrwt>
<totfact> 0.14025726E+00</totfact>
</mgrwt>
</event>
<event>
 6    1  0.2047711E-005  0.4995002E+04  0.7818608E-02  0.7829279E-01
         -2   -1    0    0    0  501 -0.00000000000E+00  0.00000000000E+00  0.19644235924E+04  0.19644235924E+04  0.00000000000E+00 0.  1.
          2   -1    0    0  501    0  0.00000000000E+00 -0.00000000000E+00 -0.31752375432E+04  0.31752375432E+04  0.00000000000E+00 0. -1.
         23    2    1    2    0    0 -0.13850040786E+04  0.10507820600E+04  0.12379616120E+04  0.21365159523E+04  0.98854571182E+02 0.  0.
         13    1    3    3    0    0 -0.33451753373E+03  0.26813659823E+03  0.35657634725E+03  0.55762523894E+03  0.00000000000E+00 0.  1.
        -13    1    3    3    0    0 -0.10504865449E+04  0.78264546172E+03  0.88138526471E+03  0.15788907133E+04  0.00000000000E+00 0. -1.
         22    1    1    2    0    0  0.13850040786E+04 -0.10507820600E+04 -0.24487755627E+04  0.30031451833E+04  0.00000000000E+00 0. -1.
<mgrwt>
<rscale>  0 0.49950021E+04</rscale>
<asrwt>0</asrwt>
<pdfrwt beam="1">  1        2 0.48849808E+00 0.49950021E+04</pdfrwt>
<pdfrwt beam="2">  1       -2 0.30221902E+00 0.49950021E+04</pdfrwt>
<totfact> 0.30167146E-02</totfact>
</mgrwt>
</event>
<event>
 6    1  0.2047711E-005  0.4217107E+04  0.7818608E-02  0.7962126E-01
          2   -1    0    0  501    0  0.00000000000E+00  0.00000000000E+00  0.18908439053E+04  0.18908439053E+04  0.00000000000E+00 0. -1.
         -2   -1    0    0    0  501 -0.00000000000E+00 -0.00000000000E+00 -0.23513300624E+04  0.23513300624E+04  0.00000000000E+00 0.  1.
         23    2    1    2    0    0 -0.52728749971E+03  0.18587606387E+04 -0.10772349345E+04  0.22140215390E+04  0.91831649095E+02 0.  0.
         11    1    3    3    0    0 -0.22751341272E+03  0.97015884785E+03 -0.55587392646E+03  0.11410374074E+04  0.00000000000E+00 0.  1.
        -11    1    3    3    0    0 -0.29977408699E+03  0.88860179089E+03 -0.52136100803E+03  0.10729841316E+04  0.00000000000E+00 0. -1.
         22    1    1    2    0    0  0.52728749971E+03 -0.18587606387E+04  0.61674877741E+03  0.20281524287E+04  0.00000000000E+00 0.  1.
<mgrwt>
<rscale>  0 0.42171071E+04</rscale>
<asrwt>0</asrwt>
<pdfrwt beam="1">  1        2 0.29089906E+00 0.42171071E+04</pdfrwt>
<pdfrwt beam="2">  1       -2 0.36174309E+00 0.42171071E+04</pdfrwt>
<totfact> 0.78055352E-02</totfact>
</mgrwt>
</event>
<event>
 6    1  0.2047711E-005  0.2931929E+04  0.7818608E-02  0.8263441E-01
         -2   -1    0    0    0  501 -0.00000000000E+00  0.00000000000E+00  0.50756017659E+03  0.50756017659E+03  0.00000000000E+00 0.  1.
          2   -1    0    0  501    0  0.00000000000E+00 -0.00000000000E+00 -0.42340815735E+04  0.42340815735E+04  0.00000000000E+00 0. -1.
         23    2    1    2    0    0  0.10242640816E+04  0.93767086092E+03 -0.11128176358E+04  0.17819473565E+04  0.92896386687E+02 0.  0.
         13    1    3    3    0    0  0.12969180111E+03  0.82297433101E+02 -0.13723312546E+03  0.20597514776E+03  0.00000000000E+00 0. -1.
        -13    1    3    3    0    0  0.89457228048E+03  0.85537342782E+03 -0.97558451030E+03  0.15759722088E+04  0.00000000000E+00 0.  1.
         22    1    1    2    0    0 -0.10242640816E+04 -0.93767086092E+03 -0.26137037612E+04  0.29596943936E+04  0.00000000000E+00 0. -1.
<mgrwt>
<rscale>  0 0.29319285E+04</rscale>
<asrwt>0</asrwt>
<pdfrwt beam="1">  1        2 0.65139713E+00 0.29319285E+04</pdfrwt>
<pdfrwt beam="2">  1       -2 0.78086185E-01 0.29319285E+04</pdfrwt>
<totfact> 0.27276894E-01</totfact>
</mgrwt>
</event>
<event>
 6    1  0.2244608E-005  0.2170278E+04  0.7818608E-02  0.8530902E-01
         -1   -1    0    0    0  501 -0.00000000000E+00  0.00000000000E+00  0.79184579799E+03  0.79184579799E+03  0.00000000000E+00 0. -1.
          1   -1    0    0  501    0  0.00000000000E+00 -0.00000000000E+00 -0.14870661483E+04  0.14870661483E+04  0.00000000000E+00 0.  1.
         23    2    1    2    0    0  0.15985065654E+03 -0.10388769362E+04 -0.62285302280E+03  0.12253206826E+04  0.92991215388E+02 0.  0.
         11    1    3    3    0    0  0.48311252507E+02 -0.60414695407E+03 -0.37279338630E+03  0.71154931530E+03  0.00000000000E+00 0. -1.
        -11    1    3    3    0    0  0.11153940403E+03 -0.43472998213E+03 -0.25005963649E+03  0.51377136726E+03  0.00000000000E+00 0.  1.
         22    1    1    2    0    0 -0.15985065654E+03  0.10388769362E+04 -0.72367327536E+02  0.10535912637E+04  0.00000000000E+00 0. -1.
<mgrwt>
<rscale>  0 0.21702784E+04</rscale>
<asrwt>0</asrwt>
<pdfrwt beam="1">  1        1 0.22877941E+00 0.21702784E+04</pdfrwt>
<pdfrwt beam="2">  1       -1 0.12182243E+00 0.21702784E+04</pdfrwt>
<totfact> 0.36416247E+00</totfact>
</mgrwt>
</event>
<event>
 6    1  0.2047711E-005  0.2864519E+04  0.7818608E-02  0.8283513E-01
         -1   -1    0    0    0  501 -0.00000000000E+00  0.00000000000E+00  0.70000274206E+03  0.70000274206E+03  0.00000000000E+00 0.  1.
          1   -1    0    0  501    0  0.00000000000E+00 -0.00000000000E+00 -0.29305127296E+04  0.29305127296E+04  0.00000000000E+00 0. -1.
         23    2    1    2    0    0 -0.11922556776E+04 -0.29278136855E+02 -0.21182433138E+04  0.24326279075E+04  0.91613263167E+02 0.  0.
         13    1    3    3    0    0 -0.78917017650E+03 -0.59005839206E+01 -0.14833188899E+04  0.16801962128E+04  0.00000000000E+00 0. -1.
        -13    1    3    3    0    0 -0.40308550113E+03 -0.23377552934E+02 -0.63492442394E+03  0.75243169478E+03  0.00000000000E+00 0.  1.
         22    1    1    2    0    0  0.11922556776E+04  0.29278136855E+02 -0.11226667372E+03  0.11978875641E+04  0.00000000000E+00 0.  1.
<mgrwt>
<rscale>  0 0.28645188E+04</rscale>
<asrwt>0</asrwt>
<pdfrwt beam="1">  1        1 0.45084811E+00 0.28645188E+04</pdfrwt>
<pdfrwt beam="2">  1       -1 0.10769273E+00 0.28645188E+04</pdfrwt>
<totfact> 0.46356029E-01</totfact>
</mgrwt>
</event>
<event>
 6    1  0.2047711E-005  0.1640872E+04  0.7818608E-02  0.8795825E-01
         -2   -1    0    0    0  501 -0.00000000000E+00  0.00000000000E+00  0.13087632700E+04  0.13087632700E+04  0.00000000000E+00 0.  1.
          2   -1    0    0  501    0  0.00000000000E+00 -0.00000000000E+00 -0.51431396971E+03  0.51431396971E+03  0.00000000000E+00 0. -1.
         23    2    1    2    0    0 -0.32828482587E+03  0.29055120148E+03 -0.36874655462E+03  0.58001025662E+03  0.90812711998E+02 0.  0.
         11    1    3    3    0    0 -0.83100198528E+02  0.44662310587E+02 -0.12107801888E+03  0.15349349054E+03  0.00000000000E+00 0.  1.
        -11    1    3    3    0    0 -0.24518462734E+03  0.24588889090E+03 -0.24766853574E+03  0.42651676608E+03  0.00000000000E+00 0. -1.
         22    1    1    2    0    0  0.32828482587E+03 -0.29055120148E+03  0.11631958549E+04  0.12430669831E+04  0.00000000000E+00 0.  1.
<mgrwt>
<rscale>  0 0.16408720E+04</rscale>
<asrwt>0</asrwt>
<pdfrwt beam="1">  1        2 0.79125227E-01 0.16408720E+04</pdfrwt>
<pdfrwt beam="2">  1       -2 0.20134819E+00 0.16408720E+04</pdfrwt>
<totfact> 0.74154340E+00</totfact>
</mgrwt>
</event>
<event>
 6    1  0.2047711E-005  0.3831880E+04  0.7818608E-02  0.8039348E-01
         -2   -1    0    0    0  501 -0.00000000000E+00  0.00000000000E+00  0.20754273123E+04  0.20754273123E+04  0.00000000000E+00 0.  1.
          2   -1    0    0  501    0  0.00000000000E+00 -0.00000000000E+00 -0.17687082117E+04  0.17687082117E+04  0.00000000000E+00 0. -1.
         23    2    1    2    0    0 -0.52429002323E+03  0.12745638942E+04 -0.11802198732E+04  0.18167281498E+04  0.90493492379E+02 0.  0.
         13    1    3    3    0    0 -0.42060135340E+03  0.92074775793E+03 -0.85170712669E+03  0.13229085236E+04  0.00000000000E+00 0. -1.
        -13    1    3    3    0    0 -0.10368866983E+03  0.35381613629E+03 -0.32851274651E+03  0.49381962615E+03  0.00000000000E+00 0.  1.
         22    1    1    2    0    0  0.52429002323E+03 -0.12745638942E+04  0.14869389738E+04  0.20274073742E+04  0.00000000000E+00 0.  1.
<mgrwt>
<rscale>  0 0.38318796E+04</rscale>
<asrwt>0</asrwt>
<pdfrwt beam="1">  1        2 0.27210896E+00 0.38318796E+04</pdfrwt>
<pdfrwt beam="2">  1       -2 0.31929651E+00 0.38318796E+04</pdfrwt>
<totfact> 0.17368566E-01</totfact>
</mgrwt>
</event>
<event>
 6    1  0.2047711E-005  0.2646672E+04  0.7818608E-02  0.8352518E-01
         -2   -1    0    0    0  501 -0.00000000000E+00  0.00000000000E+00  0.43461087392E+03  0.43461087392E+03  0.00000000000E+00 0. -1.
          2   -1    0    0  501    0  0.00000000000E+00 -0.00000000000E+00 -0.40293935896E+04  0.40293935896E+04  0.00000000000E+00 0.  1.
         23    2    1    2    0    0 -0.73677621555E+03  0.10946984539E+04 -0.19355006859E+04  0.23439995694E+04  0.83469632646E+02 0.  0.
         11    1    3    3    0    0 -0.53852151933E+03  0.84126685699E+03 -0.14139935721E+04  0.17312172519E+04  0.00000000000E+00 0. -1.
        -11    1    3    3    0    0 -0.19825469623E+03  0.25343159688E+03 -0.52150711378E+03  0.61278231746E+03  0.00000000000E+00 0.  1.
         22    1    1    2    0    0  0.73677621555E+03 -0.10946984539E+04 -0.16592820298E+04  0.21200048942E+04  0.00000000000E+00 0.  1.
<mgrwt>
<rscale>  0 0.26466721E+04</rscale>
<asrwt>0</asrwt>
<pdfrwt beam="1">  1        2 0.61990671E+00 0.26466721E+04</pdfrwt>
<pdfrwt beam="2">  1       -2 0.66863211E-01 0.26466721E+04</pdfrwt>
<totfact> 0.58718101E-01</totfact>
</mgrwt>
</event>
<event>
 6    1  0.2047711E-005  0.9952781E+03  0.7818608E-02  0.9313739E-01
         -1   -1    0    0    0  501 -0.00000000000E+00  0.00000000000E+00  0.18489568005E+03  0.18489568005E+03  0.00000000000E+00 0.  1.
          1   -1    0    0  501    0  0.00000000000E+00 -0.00000000000E+00 -0.13393747952E+04  0.13393747952E+04  0.00000000000E+00 0. -1.
         23    2    1    2    0    0 -0.17246543361E+03  0.44738112844E+03 -0.75998795564E+03  0.90336993990E+03  0.92743494228E+02 0.  0.
         13    1    3    3    0    0 -0.12124911225E+02  0.13198299324E+03 -0.24498708923E+03  0.27854119600E+03  0.00000000000E+00 0.  1.
        -13    1    3    3    0    0 -0.16034052239E+03  0.31539813519E+03 -0.51500086641E+03  0.62482874390E+03  0.00000000000E+00 0. -1.
         22    1    1    2    0    0  0.17246543361E+03 -0.44738112844E+03 -0.39449115954E+03  0.62090053537E+03  0.00000000000E+00 0.  1.
<mgrwt>
<rscale>  0 0.99527808E+03</rscale>
<asrwt>0</asrwt>
<pdfrwt beam="1">  1        1 0.20605766E+00 0.99527808E+03</pdfrwt>
<pdfrwt beam="2">  1       -1 0.28445490E-01 0.99527808E+03</pdfrwt>
<totfact> 0.95178397E+01</totfact>
</mgrwt>
</event>
<event>
 6    1  0.2272589E-005  0.3151924E+04  0.7818608E-02  0.8201631E-01
          2   -1    0    0  501    0  0.00000000000E+00  0.00000000000E+00  0.26929879630E+04  0.26929879630E+04  0.00000000000E+00 0. -1.
         -2   -1    0    0    0  501 -0.00000000000E+00 -0.00000000000E+00 -0.92226769508E+03  0.92226769508E+03  0.00000000000E+00 0.  1.
         23    2    1    2    0    0  0.21856968366E+03 -0.11949654323E+04  0.20352697138E+04  0.23719932158E+04  0.91180683840E+02 0.  0.
         13    1    3    3    0    0  0.18113369984E+03 -0.97086977334E+03  0.15820755854E+04  0.18650363782E+04  0.00000000000E+00 0.  1.
        -13    1    3    3    0    0  0.37435983820E+02 -0.22409565898E+03  0.45319412831E+03  0.50695683760E+03  0.00000000000E+00 0. -1.
         22    1    1    2    0    0 -0.21856968366E+03  0.11949654323E+04 -0.26454944584E+03  0.12432624423E+04  0.00000000000E+00 0.  1.
<mgrwt>
<rscale>  0 0.31519237E+04</rscale>
<asrwt>0</asrwt>
<pdfrwt beam="1">  1        2 0.41430584E+00 0.31519237E+04</pdfrwt>
<pdfrwt beam="2">  1       -2 0.14188734E+00 0.31519237E+04</pdfrwt>
<totfact> 0.78588559E-01</totfact>
</mgrwt>
</event>
<event>
 6    1  0.2047711E-005  0.7825849E+03  0.7818608E-02  0.9585573E-01
         -3   -1    0    0    0  501 -0.00000000000E+00  0.00000000000E+00  0.14062977660E+03  0.14062977660E+03  0.00000000000E+00 0.  1.
          3   -1    0    0  501    0  0.00000000000E+00 -0.00000000000E+00 -0.10887436048E+04  0.10887436048E+04  0.00000000000E+00 0. -1.
         23    2    1    2    0    0 -0.29169121639E+02 -0.40196988945E+02 -0.10818160171E+04  0.10867448048E+04  0.90673812510E+02 0.  0.
         11    1    3    3    0    0  0.96787637260E+01  0.24890494221E+02 -0.34846824340E+03  0.34949010262E+03  0.00000000000E+00 0.  1.
        -11    1    3    3    0    0 -0.38847885365E+02 -0.65087483167E+02 -0.73334777368E+03  0.73725470214E+03  0.00000000000E+00 0. -1.
         22    1    1    2    0    0  0.29169121639E+02  0.40196988945E+02  0.13370218885E+03  0.14262857666E+03  0.00000000000E+00 0.  1.
<mgrwt>
<rscale>  0 0.78258487E+03</rscale>
<asrwt>0</asrwt>
<pdfrwt beam="1">  1        3 0.16749902E+00 0.78258487E+03</pdfrwt>
<pdfrwt beam="2">  1       -3 0.21635349E-01 0.78258487E+03</pdfrwt>
<totfact> 0.12729706E+01</totfact>
</mgrwt>
</event>
<event>
 6    1  0.2047711E-005  0.1602793E+04  0.7818608E-02  0.8818834E-01
          2   -1    0    0  501    0  0.00000000000E+00  0.00000000000E+00  0.17856522891E+04  0.17856522891E+04  0.00000000000E+00 0. -1.
         -2   -1    0    0    0  501 -0.00000000000E+00 -0.00000000000E+00 -0.35966470600E+03  0.35966470600E+03  0.00000000000E+00 0.  1.
         23    2    1    2    0    0 -0.37308821127E+03 -0.33420508602E+03  0.15482150480E+04  0.16297324665E+04  0.90389295021E+02 0.  0.
         11    1    3    3    0    0 -0.33856672176E+03 -0.26047190139E+03  0.12760238741E+04  0.13456262348E+04  0.00000000000E+00 0.  1.
        -11    1    3    3    0    0 -0.34521489512E+02 -0.73733184634E+02  0.27219117389E+03  0.28410623171E+03  0.00000000000E+00 0. -1.
         22    1    1    2    0    0  0.37308821127E+03  0.33420508602E+03 -0.12222746492E+03  0.51558452856E+03  0.00000000000E+00 0.  1.
<mgrwt>
<rscale>  0 0.16027927E+04</rscale>
<asrwt>0</asrwt>
<pdfrwt beam="1">  1        2 0.27471573E+00 0.16027927E+04</pdfrwt>
<pdfrwt beam="2">  1       -2 0.55333033E-01 0.16027927E+04</pdfrwt>
<totfact> 0.25866498E+01</totfact>
</mgrwt>
</event>
<event>
 6    1  0.2047711E-005  0.2450641E+04  0.7818608E-02  0.8420784E-01
          2   -1    0    0  501    0  0.00000000000E+00  0.00000000000E+00  0.52205955923E+03  0.52205955923E+03  0.00000000000E+00 0. -1.
         -2   -1    0    0    0  501 -0.00000000000E+00 -0.00000000000E+00 -0.28759374803E+04  0.28759374803E+04  0.00000000000E+00 0.  1.
         23    2    1    2    0    0 -0.78010704612E+02  0.87749742050E+03 -0.23561611215E+04  0.25170358565E+04  0.88808105985E+02 0.  0.
         13    1    3    3    0    0 -0.81166863581E+02  0.46965675841E+03 -0.12113245112E+04  0.13017190949E+04  0.00000000000E+00 0. -1.
        -13    1    3    3    0    0  0.31561589691E+01  0.40784066209E+03 -0.11448366103E+04  0.12153167617E+04  0.00000000000E+00 0.  1.
         22    1    1    2    0    0  0.78010704612E+02 -0.87749742050E+03  0.22832003662E+01  0.88096118304E+03  0.00000000000E+00 0. -1.
<mgrwt>
<rscale>  0 0.24506413E+04</rscale>
<asrwt>0</asrwt>
<pdfrwt beam="1">  1        2 0.80316857E-01 0.24506413E+04</pdfrwt>
<pdfrwt beam="2">  1       -2 0.44245191E+00 0.24506413E+04</pdfrwt>
<totfact> 0.20406803E-01</totfact>
</mgrwt>
</event>
<event>
 6    1  0.2047711E-005  0.2141861E+04  0.7818608E-02  0.8543024E-01
         -2   -1    0    0    0  501 -0.00000000000E+00  0.00000000000E+00  0.72017148493E+03  0.72017148493E+03  0.00000000000E+00 0.  1.
          2   -1    0    0  501    0  0.00000000000E+00 -0.00000000000E+00 -0.15925259408E+04  0.15925259408E+04  0.00000000000E+00 0. -1.
         23    2    1    2    0    0 -0.61371110526E+03  0.74243912569E+03 -0.93765532960E+03  0.13472330918E+04  0.89343775989E+02 0.  0.
         11    1    3    3    0    0 -0.28627883636E+03  0.41328235252E+03 -0.50576159512E+03  0.71312878651E+03  0.00000000000E+00 0.  1.
        -11    1    3    3    0    0 -0.32743226890E+03  0.32915677317E+03 -0.43189373447E+03  0.63410430524E+03  0.00000000000E+00 0. -1.
         22    1    1    2    0    0  0.61371110526E+03 -0.74243912569E+03  0.65300873731E+02  0.96546433398E+03  0.00000000000E+00 0.  1.
<mgrwt>
<rscale>  0 0.21418607E+04</rscale>
<asrwt>0</asrwt>
<pdfrwt beam="1">  1        2 0.24500399E+00 0.21418607E+04</pdfrwt>
<pdfrwt beam="2">  1       -2 0.11079561E+00 0.21418607E+04</pdfrwt>
<totfact> 0.66774097E+00</totfact>
</mgrwt>
</event>
<event>
 6    1  0.2047711E-005  0.1539591E+04  0.7818608E-02  0.8858544E-01
         -2   -1    0    0    0  501 -0.00000000000E+00  0.00000000000E+00  0.45460089276E+03  0.45460089276E+03  0.00000000000E+00 0.  1.
          2   -1    0    0  501    0  0.00000000000E+00 -0.00000000000E+00 -0.13035281296E+04  0.13035281296E+04  0.00000000000E+00 0. -1.
         23    2    1    2    0    0  0.57642785719E+03 -0.50619875067E+03 -0.43073725838E+03  0.88440760920E+03  0.90199688046E+02 0.  0.
         11    1    3    3    0    0  0.93834077808E+02 -0.10077853748E+03 -0.42348569286E+02  0.14406439218E+03  0.00000000000E+00 0.  1.
        -11    1    3    3    0    0  0.48259377938E+03 -0.40542021319E+03 -0.38838868910E+03  0.74034321702E+03  0.00000000000E+00 0. -1.
         22    1    1    2    0    0 -0.57642785719E+03  0.50619875067E+03 -0.41818997844E+03  0.87372141315E+03  0.00000000000E+00 0.  1.
<mgrwt>
<rscale>  0 0.15395909E+04</rscale>
<asrwt>0</asrwt>
<pdfrwt beam="1">  1        2 0.20054279E+00 0.15395909E+04</pdfrwt>
<pdfrwt beam="2">  1       -2 0.69938600E-01 0.15395909E+04</pdfrwt>
<totfact> 0.29520761E+01</totfact>
</mgrwt>
</event>
<event>
 6    1  0.2047711E-005  0.4027952E+04  0.7818608E-02  0.7998931E-01
          2   -1    0    0  501    0  0.00000000000E+00  0.00000000000E+00  0.19710357578E+04  0.19710357578E+04  0.00000000000E+00 0. -1.
         -2   -1    0    0    0  501 -0.00000000000E+00 -0.00000000000E+00 -0.20578517058E+04  0.20578517058E+04  0.00000000000E+00 0.  1.
         23    2    1    2    0    0 -0.87728170444E+03  0.15478110166E+04  0.89834565943E+03  0.19951997970E+04  0.91952021024E+02 0.  0.
         11    1    3    3    0    0 -0.58033601844E+03  0.10040461252E+04  0.53735884444E+03  0.12781443751E+04  0.00000000000E+00 0. -1.
        -11    1    3    3    0    0 -0.29694568600E+03  0.54376489141E+03  0.36098681500E+03  0.71705542196E+03  0.00000000000E+00 0.  1.
         22    1    1    2    0    0  0.87728170444E+03 -0.15478110166E+04 -0.98516160745E+03  0.20336876665E+04  0.00000000000E+00 0.  1.
<mgrwt>
<rscale>  0 0.40279520E+04</rscale>
<asrwt>0</asrwt>
<pdfrwt beam="1">  1        2 0.30323627E+00 0.40279520E+04</pdfrwt>
<pdfrwt beam="2">  1       -2 0.31659257E+00 0.40279520E+04</pdfrwt>
<totfact> 0.13715772E-01</totfact>
</mgrwt>
</event>
<event>
 6    1  0.2047711E-005  0.3388121E+04  0.7818608E-02  0.8140828E-01
         -2   -1    0    0    0  501 -0.00000000000E+00  0.00000000000E+00  0.16362873284E+04  0.16362873284E+04  0.00000000000E+00 0.  1.
          2   -1    0    0  501    0  0.00000000000E+00 -0.00000000000E+00 -0.17538732814E+04  0.17538732814E+04  0.00000000000E+00 0. -1.
         23    2    1    2    0    0  0.14666376621E+04  0.76705322721E+03  0.29669886379E+03  0.16839869391E+04  0.91570246899E+02 0.  0.
         11    1    3    3    0    0  0.49213462132E+03  0.26981483695E+03  0.14333610394E+03  0.57925967444E+03  0.00000000000E+00 0. -1.
        -11    1    3    3    0    0  0.97450304073E+03  0.49723839027E+03  0.15336275985E+03  0.11047272647E+04  0.00000000000E+00 0.  1.
         22    1    1    2    0    0 -0.14666376621E+04 -0.76705322721E+03 -0.41428481687E+03  0.17061736707E+04  0.00000000000E+00 0. -1.
<mgrwt>
<rscale>  0 0.33881208E+04</rscale>
<asrwt>0</asrwt>
<pdfrwt beam="1">  1        2 0.26982666E+00 0.33881208E+04</pdfrwt>
<pdfrwt beam="2">  1       -2 0.25173651E+00 0.33881208E+04</pdfrwt>
<totfact> 0.47592421E-01</totfact>
</mgrwt>
</event>
<event>
 6    1  0.2047711E-005  0.2176314E+04  0.7818608E-02  0.8528352E-01
          2   -1    0    0  501    0  0.00000000000E+00  0.00000000000E+00  0.15624580792E+04  0.15624580792E+04  0.00000000000E+00 0. -1.
         -2   -1    0    0    0  501 -0.00000000000E+00 -0.00000000000E+00 -0.75783547898E+03  0.75783547898E+03  0.00000000000E+00 0.  1.
         23    2    1    2    0    0  0.99761346519E+03  0.38628927288E+03  0.20202735395E+03  0.10924608908E+04  0.90574377417E+02 0.  0.
         11    1    3    3    0    0  0.38356799534E+03  0.10660844274E+03  0.55006762436E+02  0.40188992402E+03  0.00000000000E+00 0.  1.
        -11    1    3    3    0    0  0.61404546985E+03  0.27968083014E+03  0.14702059152E+03  0.69057096675E+03  0.00000000000E+00 0. -1.
         22    1    1    2    0    0 -0.99761346519E+03 -0.38628927288E+03  0.60259524623E+03  0.12278326674E+04  0.00000000000E+00 0.  1.
<mgrwt>
<rscale>  0 0.21763145E+04</rscale>
<asrwt>0</asrwt>
<pdfrwt beam="1">  1        2 0.24037817E+00 0.21763145E+04</pdfrwt>
<pdfrwt beam="2">  1       -2 0.11659007E+00 0.21763145E+04</pdfrwt>
<totfact> 0.61132909E+00</totfact>
</mgrwt>
</event>
<event>
 6    1  0.2047711E-005  0.3770746E+04  0.7818608E-02  0.8052462E-01
         -1   -1    0    0    0  501 -0.00000000000E+00  0.00000000000E+00  0.13790355021E+04  0.13790355021E+04  0.00000000000E+00 0.  1.
          1   -1    0    0  501    0  0.00000000000E+00 -0.00000000000E+00 -0.25776209977E+04  0.25776209977E+04  0.00000000000E+00 0. -1.
         23    2    1    2    0    0 -0.85847272554E+03  0.11137972986E+04 -0.19156550199E+04  0.23781418354E+04  0.91129530102E+02 0.  0.
         13    1    3    3    0    0 -0.51787964281E+03  0.64300008646E+03 -0.11933734766E+04  0.14511335880E+04  0.00000000000E+00 0. -1.
        -13    1    3    3    0    0 -0.34059308273E+03  0.47079721216E+03 -0.72228154331E+03  0.92700824742E+03  0.00000000000E+00 0.  1.
         22    1    1    2    0    0  0.85847272554E+03 -0.11137972986E+04  0.71706952434E+03  0.15785146644E+04  0.00000000000E+00 0.  1.
<mgrwt>
<rscale>  0 0.37707457E+04</rscale>
<asrwt>0</asrwt>
<pdfrwt beam="1">  1        1 0.39655708E+00 0.37707457E+04</pdfrwt>
<pdfrwt beam="2">  1       -1 0.21215931E+00 0.37707457E+04</pdfrwt>
<totfact> 0.11857399E-01</totfact>
</mgrwt>
</event>
<event>
 6    1  0.2047711E-005  0.4367155E+04  0.7818608E-02  0.7934316E-01
         -2   -1    0    0    0  501 -0.00000000000E+00  0.00000000000E+00  0.20094583108E+04  0.20094583108E+04  0.00000000000E+00 0.  1.
          2   -1    0    0  501    0  0.00000000000E+00 -0.00000000000E+00 -0.23727845570E+04  0.23727845570E+04  0.00000000000E+00 0. -1.
         23    2    1    2    0    0 -0.76116923579E+03 -0.16563016728E+03 -0.22276672380E+04  0.23617035111E+04  0.91269894397E+02 0.  0.
         11    1    3    3    0    0 -0.37723500284E+03 -0.10835432169E+03 -0.12335357480E+04  0.12944718413E+04  0.00000000000E+00 0.  1.
        -11    1    3    3    0    0 -0.38393423295E+03 -0.57275845589E+02 -0.99413148996E+03  0.10672316698E+04  0.00000000000E+00 0. -1.
         22    1    1    2    0    0  0.76116923579E+03  0.16563016728E+03  0.18643409918E+04  0.20205393566E+04  0.00000000000E+00 0.  1.
<mgrwt>
<rscale>  0 0.43671554E+04</rscale>
<asrwt>0</asrwt>
<pdfrwt beam="1">  1        2 0.36504377E+00 0.43671554E+04</pdfrwt>
<pdfrwt beam="2">  1       -2 0.30914744E+00 0.43671554E+04</pdfrwt>
<totfact> 0.88149034E-02</totfact>
</mgrwt>
</event>
<event>
 6    1  0.2047711E-005  0.3925136E+04  0.7818608E-02  0.8019822E-01
         -2   -1    0    0    0  501 -0.00000000000E+00  0.00000000000E+00  0.23593047341E+04  0.23593047341E+04  0.00000000000E+00 0.  1.
          2   -1    0    0  501    0  0.00000000000E+00 -0.00000000000E+00 -0.16325462197E+04  0.16325462197E+04  0.00000000000E+00 0. -1.
         23    2    1    2    0    0  0.47573909188E+03  0.12808862670E+04  0.17948253526E+04  0.22575602967E+04  0.90460679039E+02 0.  0.
         11    1    3    3    0    0  0.15893872029E+03  0.38226147117E+03  0.48160375251E+03  0.63508072209E+03  0.00000000000E+00 0. -1.
        -11    1    3    3    0    0  0.31680037160E+03  0.89862479580E+03  0.13132216001E+04  0.16224795746E+04  0.00000000000E+00 0.  1.
         22    1    1    2    0    0 -0.47573909188E+03 -0.12808862670E+04 -0.10680668382E+04  0.17342906571E+04  0.00000000000E+00 0. -1.
<mgrwt>
<rscale>  0 0.39251364E+04</rscale>
<asrwt>0</asrwt>
<pdfrwt beam="1">  1        2 0.25116096E+00 0.39251364E+04</pdfrwt>
<pdfrwt beam="2">  1       -2 0.36296996E+00 0.39251364E+04</pdfrwt>
<totfact> 0.10923286E-01</totfact>
</mgrwt>
</event>
<event>
 6    1  0.2047711E-005  0.1906093E+04  0.7818608E-02  0.8651829E-01
          2   -1    0    0  501    0  0.00000000000E+00  0.00000000000E+00  0.16867634768E+04  0.16867634768E+04  0.00000000000E+00 0. -1.
         -2   -1    0    0    0  501 -0.00000000000E+00 -0.00000000000E+00 -0.53848552064E+03  0.53848552064E+03  0.00000000000E+00 0.  1.
         23    2    1    2    0    0 -0.83013084652E+03  0.84659956802E+02  0.42963359844E+02  0.84032846273E+03  0.89563074785E+02 0.  0.
         11    1    3    3    0    0 -0.47379503421E+03  0.29418812769E+02  0.64624624585E+02  0.47908615414E+03  0.00000000000E+00 0.  1.
        -11    1    3    3    0    0 -0.35633581231E+03  0.55241144034E+02 -0.21661264741E+02  0.36124230859E+03  0.00000000000E+00 0. -1.
         22    1    1    2    0    0  0.83013084652E+03 -0.84659956802E+02  0.11053145963E+04  0.13849205347E+04  0.00000000000E+00 0. -1.
<mgrwt>
<rscale>  0 0.19060931E+04</rscale>
<asrwt>0</asrwt>
<pdfrwt beam="1">  1        2 0.25950207E+00 0.19060931E+04</pdfrwt>
<pdfrwt beam="2">  1       -2 0.82843927E-01 0.19060931E+04</pdfrwt>
<totfact> 0.11926885E+01</totfact>
</mgrwt>
</event>
<event>
 6    1  0.2047711E-005  0.1643969E+04  0.7818608E-02  0.8793982E-01
          3   -1    0    0  501    0  0.00000000000E+00  0.00000000000E+00  0.52130396782E+03  0.52130396782E+03  0.00000000000E+00 0. -1.
         -3   -1    0    0    0  501 -0.00000000000E+00 -0.00000000000E+00 -0.12960935959E+04  0.12960935959E+04  0.00000000000E+00 0.  1.
         23    2    1    2    0    0  0.26713146651E+02 -0.30484086215E+03 -0.12291091311E+04  0.12696314145E+04  0.87253247394E+02 0.  0.
         11    1    3    3    0    0 -0.28328956117E+02 -0.11634879858E+03 -0.53811440082E+03  0.55127731774E+03  0.00000000000E+00 0. -1.
        -11    1    3    3    0    0  0.55042102768E+02 -0.18849206357E+03 -0.69099473023E+03  0.71835409674E+03  0.00000000000E+00 0.  1.
         22    1    1    2    0    0 -0.26713146651E+02  0.30484086215E+03  0.45431950299E+03  0.54776614922E+03  0.00000000000E+00 0. -1.
<mgrwt>
<rscale>  0 0.16439693E+04</rscale>
<asrwt>0</asrwt>
<pdfrwt beam="1">  1        3 0.80200611E-01 0.16439693E+04</pdfrwt>
<pdfrwt beam="2">  1       -3 0.19939901E+00 0.16439693E+04</pdfrwt>
<totfact> 0.53474576E-01</totfact>
</mgrwt>
</event>
<event>
 6    1  0.2047711E-005  0.2225585E+04  0.7818608E-02  0.8507854E-01
          2   -1    0    0  501    0  0.00000000000E+00  0.00000000000E+00  0.38753457312E+04  0.38753457312E+04  0.00000000000E+00 0. -1.
         -2   -1    0    0    0  501 -0.00000000000E+00 -0.00000000000E+00 -0.31953471360E+03  0.31953471360E+03  0.00000000000E+00 0.  1.
         23    2    1    2    0    0 -0.13262524133E+03  0.57441264190E+03  0.35556457448E+04  0.36053557506E+04  0.91837290764E+02 0.  0.
         13    1    3    3    0    0 -0.39519459315E+02  0.20093919321E+03  0.15087777906E+04  0.15226124814E+04  0.00000000000E+00 0.  1.
        -13    1    3    3    0    0 -0.93105782011E+02  0.37347344869E+03  0.20468679542E+04  0.20827432692E+04  0.00000000000E+00 0. -1.
         22    1    1    2    0    0  0.13262524133E+03 -0.57441264190E+03  0.16527282979E+00  0.58952469425E+03  0.00000000000E+00 0.  1.
<mgrwt>
<rscale>  0 0.22255853E+04</rscale>
<asrwt>0</asrwt>
<pdfrwt beam="1">  1        2 0.59620700E+00 0.22255853E+04</pdfrwt>
<pdfrwt beam="2">  1       -2 0.49159190E-01 0.22255853E+04</pdfrwt>
<totfact> 0.15443969E+00</totfact>
</mgrwt>
</event>
<event>
 6    1  0.2047711E-005  0.1820732E+04  0.7818608E-02  0.8695351E-01
          2   -1    0    0  501    0  0.00000000000E+00  0.00000000000E+00  0.87356544444E+03  0.87356544444E+03  0.00000000000E+00 0. -1.
         -2   -1    0    0    0  501 -0.00000000000E+00 -0.00000000000E+00 -0.94871702691E+03  0.94871702691E+03  0.00000000000E+00 0.  1.
         23    2    1    2    0    0  0.82291000750E+03 -0.15105715837E+03  0.31600647580E+03  0.89870043813E+03  0.88335945157E+02 0.  0.
         13    1    3    3    0    0  0.11662638354E+03 -0.41607053820E+02  0.73331868628E+02  0.14391116434E+03  0.00000000000E+00 0.  1.
        -13    1    3    3    0    0  0.70628362396E+03 -0.10945010455E+03  0.24267460717E+03  0.75478927379E+03  0.00000000000E+00 0. -1.
         22    1    1    2    0    0 -0.82291000750E+03  0.15105715837E+03 -0.39115805827E+03  0.92358203322E+03  0.00000000000E+00 0.  1.
<mgrwt>
<rscale>  0 0.18207322E+04</rscale>
<asrwt>0</asrwt>
<pdfrwt beam="1">  1        2 0.13439468E+00 0.18207322E+04</pdfrwt>
<pdfrwt beam="2">  1       -2 0.14595647E+00 0.18207322E+04</pdfrwt>
<totfact> 0.92759501E+00</totfact>
</mgrwt>
</event>
<event>
 6    1  0.2047711E-005  0.4488132E+04  0.7818608E-02  0.7912718E-01
          2   -1    0    0  501    0  0.00000000000E+00  0.00000000000E+00  0.19690232797E+04  0.19690232797E+04  0.00000000000E+00 0. -1.
         -2   -1    0    0    0  501 -0.00000000000E+00 -0.00000000000E+00 -0.25575278020E+04  0.25575278020E+04  0.00000000000E+00 0.  1.
         23    2    1    2    0    0  0.91620693606E+03 -0.19871173025E+04 -0.79218551346E+03  0.23289259385E+04  0.90927531566E+02 0.  0.
         13    1    3    3    0    0  0.51675644654E+03 -0.10327097728E+04 -0.38965745823E+03  0.12187533117E+04  0.00000000000E+00 0. -1.
        -13    1    3    3    0    0  0.39945048953E+03 -0.95440752965E+03 -0.40252805523E+03  0.11101726269E+04  0.00000000000E+00 0.  1.
         22    1    1    2    0    0 -0.91620693606E+03  0.19871173025E+04  0.20368099117E+03  0.21976251431E+04  0.00000000000E+00 0. -1.
<mgrwt>
<rscale>  0 0.44881318E+04</rscale>
<asrwt>0</asrwt>
<pdfrwt beam="1">  1        2 0.30292666E+00 0.44881318E+04</pdfrwt>
<pdfrwt beam="2">  1       -2 0.39346582E+00 0.44881318E+04</pdfrwt>
<totfact> 0.43175814E-02</totfact>
</mgrwt>
</event>
<event>
 6    1  0.2047711E-005  0.1138148E+04  0.7818608E-02  0.9168787E-01
         -2   -1    0    0    0  501 -0.00000000000E+00  0.00000000000E+00  0.22374160646E+03  0.22374160646E+03  0.00000000000E+00 0.  1.
          2   -1    0    0  501    0  0.00000000000E+00 -0.00000000000E+00 -0.14474082558E+04  0.14474082558E+04  0.00000000000E+00 0. -1.
         23    2    1    2    0    0 -0.61759272565E+02 -0.28961839050E+03 -0.13232579620E+04  0.13587215514E+04  0.86137102081E+02 0.  0.
         11    1    3    3    0    0  0.17037571171E+02 -0.12194657983E+03 -0.53320217500E+03  0.54723469059E+03  0.00000000000E+00 0. -1.
        -11    1    3    3    0    0 -0.78796843736E+02 -0.16767181068E+03 -0.79005578703E+03  0.81148686083E+03  0.00000000000E+00 0.  1.
         22    1    1    2    0    0  0.61759272565E+02  0.28961839050E+03  0.99591312671E+02  0.31242831086E+03  0.00000000000E+00 0.  1.
<mgrwt>
<rscale>  0 0.11381484E+04</rscale>
<asrwt>0</asrwt>
<pdfrwt beam="1">  1        2 0.22267820E+00 0.11381484E+04</pdfrwt>
<pdfrwt beam="2">  1       -2 0.34421785E-01 0.11381484E+04</pdfrwt>
<totfact> 0.10643767E+02</totfact>
</mgrwt>
</event>
<event>
 6    1  0.2047711E-005  0.1091074E+04  0.7818608E-02  0.9213936E-01
          2   -1    0    0  501    0  0.00000000000E+00  0.00000000000E+00  0.18131037648E+04  0.18131037648E+04  0.00000000000E+00 0. -1.
         -2   -1    0    0    0  501 -0.00000000000E+00 -0.00000000000E+00 -0.16414421102E+03  0.16414421102E+03  0.00000000000E+00 0.  1.
         23    2    1    2    0    0  0.39801059872E+03 -0.35648012806E+03  0.67195533360E+03  0.86368263664E+03  0.94515649959E+02 0.  0.
         11    1    3    3    0    0  0.17903395795E+03 -0.15536795603E+03  0.22470600590E+03  0.32662692625E+03  0.00000000000E+00 0.  1.
        -11    1    3    3    0    0  0.21897664076E+03 -0.20111217203E+03  0.44724932770E+03  0.53705571039E+03  0.00000000000E+00 0. -1.
         22    1    1    2    0    0 -0.39801059872E+03  0.35648012806E+03  0.97700422016E+03  0.11135653392E+04  0.00000000000E+00 0. -1.
<mgrwt>
<rscale>  0 0.10910738E+04</rscale>
<asrwt>0</asrwt>
<pdfrwt beam="1">  1        2 0.27893903E+00 0.10910738E+04</pdfrwt>
<pdfrwt beam="2">  1       -2 0.25252957E-01 0.10910738E+04</pdfrwt>
<totfact> 0.11881847E+02</totfact>
</mgrwt>
</event>
<event>
 6    1  0.2047711E-005  0.1650563E+04  0.7818608E-02  0.8790073E-01
          2   -1    0    0  501    0  0.00000000000E+00  0.00000000000E+00  0.44754806156E+03  0.44754806156E+03  0.00000000000E+00 0. -1.
         -2   -1    0    0    0  501 -0.00000000000E+00 -0.00000000000E+00 -0.15218246210E+04  0.15218246210E+04  0.00000000000E+00 0.  1.
         23    2    1    2    0    0 -0.38994933620E+03 -0.42190642848E+03  0.16418842608E+03  0.60413972091E+03  0.89226923794E+02 0.  0.
         13    1    3    3    0    0 -0.27562345104E+03 -0.25146566315E+03  0.13534634345E+03  0.39689028609E+03  0.00000000000E+00 0. -1.
        -13    1    3    3    0    0 -0.11432588516E+03 -0.17044076533E+03  0.28842082631E+02  0.20724943482E+03  0.00000000000E+00 0.  1.
         22    1    1    2    0    0  0.38994933620E+03  0.42190642848E+03 -0.12384649855E+04  0.13652329616E+04  0.00000000000E+00 0.  1.
<mgrwt>
<rscale>  0 0.16505631E+04</rscale>
<asrwt>0</asrwt>
<pdfrwt beam="1">  1        2 0.68853550E-01 0.16505631E+04</pdfrwt>
<pdfrwt beam="2">  1       -2 0.23412686E+00 0.16505631E+04</pdfrwt>
<totfact> 0.53842103E+00</totfact>
</mgrwt>
</event>
<event>
 6    1  0.2047711E-005  0.1784354E+04  0.7818608E-02  0.8714664E-01
          1   -1    0    0  501    0  0.00000000000E+00  0.00000000000E+00  0.67275193524E+03  0.67275193524E+03  0.00000000000E+00 0. -1.
         -1   -1    0    0    0  501 -0.00000000000E+00 -0.00000000000E+00 -0.11831700946E+04  0.11831700946E+04  0.00000000000E+00 0.  1.
         23    2    1    2    0    0  0.11926607030E+03  0.70125916286E+03 -0.81195125585E+03  0.10833218633E+04  0.91283123217E+02 0.  0.
         13    1    3    3    0    0 -0.66273012211E+01  0.19553266447E+03 -0.23701276838E+03  0.30733043515E+03  0.00000000000E+00 0. -1.
        -13    1    3    3    0    0  0.12589337152E+03  0.50572649839E+03 -0.57493848748E+03  0.77599142814E+03  0.00000000000E+00 0.  1.
         22    1    1    2    0    0 -0.11926607030E+03 -0.70125916286E+03  0.30153309651E+03  0.77260016653E+03  0.00000000000E+00 0. -1.
<mgrwt>
<rscale>  0 0.17843542E+04</rscale>
<asrwt>0</asrwt>
<pdfrwt beam="1">  1        1 0.10350030E+00 0.17843542E+04</pdfrwt>
<pdfrwt beam="2">  1       -1 0.18202617E+00 0.17843542E+04</pdfrwt>
<totfact> 0.55009956E+00</totfact>
</mgrwt>
</event>
<event>
 6    1  0.2047711E-005  0.1032142E+04  0.7818608E-02  0.9273978E-01
         -4   -1    0    0    0  501 -0.00000000000E+00  0.00000000000E+00  0.24948546056E+03  0.24948546056E+03  0.00000000000E+00 0.  1.
          4   -1    0    0  501    0  0.00000000000E+00 -0.00000000000E+00 -0.10675143025E+04  0.10675143025E+04  0.00000000000E+00 0. -1.
         23    2    1    2    0    0  0.19995621064E+02 -0.35795956856E+03 -0.87649298430E+03  0.95374649943E+03  0.11339116390E+03 0.  0.
         13    1    3    3    0    0 -0.40967912779E+02 -0.21600481498E+03 -0.55835817519E+03  0.60008357899E+03  0.00000000000E+00 0. -1.
        -13    1    3    3    0    0  0.60963533842E+02 -0.14195475358E+03 -0.31813480911E+03  0.35366292044E+03  0.00000000000E+00 0.  1.
         22    1    1    2    0    0 -0.19995621064E+02  0.35795956856E+03  0.58464142383E+02  0.36325326362E+03  0.00000000000E+00 0.  1.
<mgrwt>
<rscale>  0 0.10321420E+04</rscale>
<asrwt>0</asrwt>
<pdfrwt beam="1">  1        4 0.16423297E+00 0.10321420E+04</pdfrwt>
<pdfrwt beam="2">  1       -4 0.38382379E-01 0.10321420E+04</pdfrwt>
<totfact> 0.30619789E+00</totfact>
</mgrwt>
</event>
<event>
 6    1  0.2047711E-005  0.2423422E+04  0.7818608E-02  0.8430787E-01
          2   -1    0    0  501    0  0.00000000000E+00  0.00000000000E+00  0.91865559304E+03  0.91865559304E+03  0.00000000000E+00 0.  1.
         -2   -1    0    0    0  501 -0.00000000000E+00 -0.00000000000E+00 -0.15982520052E+04  0.15982520052E+04  0.00000000000E+00 0. -1.
         23    2    1    2    0    0  0.76864625051E+02 -0.99258432221E+03  0.37379810133E+03  0.10675036489E+04  0.93312446007E+02 0.  0.
         11    1    3    3    0    0 -0.50033467501E+01 -0.49913957227E+03  0.20464495469E+03  0.53948577698E+03  0.00000000000E+00 0.  1.
        -11    1    3    3    0    0  0.81867971801E+02 -0.49344474994E+03  0.16915314665E+03  0.52801787192E+03  0.00000000000E+00 0. -1.
         22    1    1    2    0    0 -0.76864625051E+02  0.99258432221E+03 -0.10533945135E+04  0.14494039494E+04  0.00000000000E+00 0. -1.
<mgrwt>
<rscale>  0 0.24234217E+04</rscale>
<asrwt>0</asrwt>
<pdfrwt beam="1">  1        2 0.14133163E+00 0.24234217E+04</pdfrwt>
<pdfrwt beam="2">  1       -2 0.24588492E+00 0.24234217E+04</pdfrwt>
<totfact> 0.17413535E+00</totfact>
</mgrwt>
</event>
<event>
 6    1  0.2047711E-005  0.1789330E+04  0.7818608E-02  0.8711994E-01
         -1   -1    0    0    0  501 -0.00000000000E+00  0.00000000000E+00  0.90433867608E+03  0.90433867608E+03  0.00000000000E+00 0.  1.
          1   -1    0    0  501    0  0.00000000000E+00 -0.00000000000E+00 -0.88509499170E+03  0.88509499170E+03  0.00000000000E+00 0. -1.
         23    2    1    2    0    0  0.38979022865E+03 -0.10159403827E+03  0.80601087379E+03  0.90554431878E+03  0.89995631234E+02 0.  0.
         11    1    3    3    0    0  0.31179939370E+03 -0.48333793490E+02  0.57313122616E+03  0.65424339500E+03  0.00000000000E+00 0. -1.
        -11    1    3    3    0    0  0.77990834950E+02 -0.53260244781E+02  0.23287964763E+03  0.25130092378E+03  0.00000000000E+00 0.  1.
         22    1    1    2    0    0 -0.38979022865E+03  0.10159403827E+03 -0.78676718941E+03  0.88388934901E+03  0.00000000000E+00 0. -1.
<mgrwt>
<rscale>  0 0.17893302E+04</rscale>
<asrwt>0</asrwt>
<pdfrwt beam="1">  1        1 0.13616846E+00 0.17893302E+04</pdfrwt>
<pdfrwt beam="2">  1       -1 0.13912903E+00 0.17893302E+04</pdfrwt>
<totfact> 0.75334998E+00</totfact>
</mgrwt>
</event>
<event>
 6    1  0.3481453E-005  0.4317670E+04  0.7818608E-02  0.7943359E-01
         -2   -1    0    0    0  501 -0.00000000000E+00  0.00000000000E+00  0.15824643035E+04  0.15824643035E+04  0.00000000000E+00 0.  1.
          2   -1    0    0  501    0  0.00000000000E+00 -0.00000000000E+00 -0.29451330831E+04  0.29451330831E+04  0.00000000000E+00 0. -1.
         23    2    1    2    0    0 -0.83102581979E+03 -0.10824214356E+03 -0.27668168974E+04  0.28923750128E+04  0.90759001081E+02 0.  0.
         11    1    3    3    0    0 -0.53427803573E+03 -0.55953221012E+02 -0.16263957860E+04  0.17128184478E+04  0.00000000000E+00 0.  1.
        -11    1    3    3    0    0 -0.29674778407E+03 -0.52288922546E+02 -0.11404211115E+04  0.11795565651E+04  0.00000000000E+00 0. -1.
         22    1    1    2    0    0  0.83102581979E+03  0.10824214356E+03  0.14041481178E+04  0.16352223737E+04  0.00000000000E+00 0.  1.
<mgrwt>
<rscale>  0 0.43176697E+04</rscale>
<asrwt>0</asrwt>
<pdfrwt beam="1">  1        2 0.45309739E+00 0.43176697E+04</pdfrwt>
<pdfrwt beam="2">  1       -2 0.24345605E+00 0.43176697E+04</pdfrwt>
<totfact> 0.10211002E-01</totfact>
</mgrwt>
</event>
<event>
 6    1  0.2047711E-005  0.1385872E+04  0.7818608E-02  0.8964109E-01
          2   -1    0    0  501    0  0.00000000000E+00  0.00000000000E+00  0.29948795097E+03  0.29948795097E+03  0.00000000000E+00 0. -1.
         -2   -1    0    0    0  501 -0.00000000000E+00 -0.00000000000E+00 -0.16032710374E+04  0.16032710374E+04  0.00000000000E+00 0.  1.
         23    2    1    2    0    0 -0.30230775560E+03 -0.34308277719E+03 -0.13640145403E+04  0.14415393020E+04  0.91673997384E+02 0.  0.
         11    1    3    3    0    0 -0.14653848487E+03 -0.16469774049E+03 -0.80008851035E+03  0.82990390870E+03  0.00000000000E+00 0.  1.
        -11    1    3    3    0    0 -0.15576927073E+03 -0.17838503670E+03 -0.56392603000E+03  0.61163539329E+03  0.00000000000E+00 0. -1.
         22    1    1    2    0    0  0.30230775560E+03  0.34308277719E+03  0.60231453890E+02  0.46121968641E+03  0.00000000000E+00 0. -1.
<mgrwt>
<rscale>  0 0.13858721E+04</rscale>
<asrwt>0</asrwt>
<pdfrwt beam="1">  1        2 0.46075070E-01 0.13858721E+04</pdfrwt>
<pdfrwt beam="2">  1       -2 0.24665708E+00 0.13858721E+04</pdfrwt>
<totfact> 0.72288239E+00</totfact>
</mgrwt>
</event>
<event>
 6    1  0.2047711E-005  0.3071099E+04  0.7818608E-02  0.8223715E-01
          2   -1    0    0  501    0  0.00000000000E+00  0.00000000000E+00  0.37719197834E+04  0.37719197834E+04  0.00000000000E+00 0. -1.
         -2   -1    0    0    0  501 -0.00000000000E+00 -0.00000000000E+00 -0.62512261182E+03  0.62512261182E+03  0.00000000000E+00 0.  1.
         23    2    1    2    0    0 -0.10281637839E+04  0.11173889681E+04  0.18887536327E+04  0.24251518257E+04  0.91061626171E+02 0.  0.
         13    1    3    3    0    0 -0.72491018368E+03  0.83455894955E+03  0.14133406701E+04  0.17943007731E+04  0.00000000000E+00 0.  1.
        -13    1    3    3    0    0 -0.30325360023E+03  0.28283001859E+03  0.47541296264E+03  0.63085105256E+03  0.00000000000E+00 0. -1.
         22    1    1    2    0    0  0.10281637839E+04 -0.11173889681E+04  0.12580435389E+04  0.19718905696E+04  0.00000000000E+00 0. -1.
<mgrwt>
<rscale>  0 0.30710991E+04</rscale>
<asrwt>0</asrwt>
<pdfrwt beam="1">  1        2 0.58029534E+00 0.30710991E+04</pdfrwt>
<pdfrwt beam="2">  1       -2 0.96172712E-01 0.30710991E+04</pdfrwt>
<totfact> 0.39710913E-01</totfact>
</mgrwt>
</event>
<event>
 6    1  0.2047711E-005  0.2017024E+04  0.7818608E-02  0.8598703E-01
         -1   -1    0    0    0  501 -0.00000000000E+00  0.00000000000E+00  0.73040751542E+03  0.73040751542E+03  0.00000000000E+00 0.  1.
          1   -1    0    0  501    0  0.00000000000E+00 -0.00000000000E+00 -0.13925050436E+04  0.13925050436E+04  0.00000000000E+00 0. -1.
         23    2    1    2    0    0 -0.14763552775E+02 -0.92909369522E+03 -0.73844966208E+03  0.11905699689E+04  0.93358933103E+02 0.  0.
         13    1    3    3    0    0 -0.33732642278E+02 -0.27457550359E+03 -0.25956166108E+03  0.37934397877E+03  0.00000000000E+00 0.  1.
        -13    1    3    3    0    0  0.18969089503E+02 -0.65451819163E+03 -0.47888800100E+03  0.81122599011E+03  0.00000000000E+00 0. -1.
         22    1    1    2    0    0  0.14763552775E+02  0.92909369522E+03  0.76352133918E+02  0.93234259011E+03  0.00000000000E+00 0.  1.
<mgrwt>
<rscale>  0 0.20170237E+04</rscale>
<asrwt>0</asrwt>
<pdfrwt beam="1">  1        1 0.21423154E+00 0.20170237E+04</pdfrwt>
<pdfrwt beam="2">  1       -1 0.11237039E+00 0.20170237E+04</pdfrwt>
<totfact> 0.52261051E+00</totfact>
</mgrwt>
</event>
<event>
 6    1  0.2047711E-005  0.1642718E+04  0.7818608E-02  0.8794726E-01
         -2   -1    0    0    0  501 -0.00000000000E+00  0.00000000000E+00  0.99831024741E+03  0.99831024741E+03  0.00000000000E+00 0.  1.
          2   -1    0    0  501    0  0.00000000000E+00 -0.00000000000E+00 -0.67577271870E+03  0.67577271870E+03  0.00000000000E+00 0. -1.
         23    2    1    2    0    0  0.24410288987E+03 -0.94210260906E+02 -0.62893989753E+03  0.68728456382E+03  0.91284625510E+02 0.  0.
         11    1    3    3    0    0  0.83933989964E+02 -0.31327184466E+02 -0.11805347721E+03  0.14819895627E+03  0.00000000000E+00 0. -1.
        -11    1    3    3    0    0  0.16016889991E+03 -0.62883076440E+02 -0.51088642032E+03  0.53908560755E+03  0.00000000000E+00 0.  1.
         22    1    1    2    0    0 -0.24410288987E+03  0.94210260906E+02  0.95147742624E+03  0.98679840228E+03  0.00000000000E+00 0.  1.
<mgrwt>
<rscale>  0 0.16427183E+04</rscale>
<asrwt>0</asrwt>
<pdfrwt beam="1">  1        2 0.10396503E+00 0.16427183E+04</pdfrwt>
<pdfrwt beam="2">  1       -2 0.15358619E+00 0.16427183E+04</pdfrwt>
<totfact> 0.11511124E+01</totfact>
</mgrwt>
</event>
<event>
 6    1  0.2047711E-005  0.3801688E+04  0.7818608E-02  0.8045793E-01
         -2   -1    0    0    0  501 -0.00000000000E+00  0.00000000000E+00  0.15302458219E+04  0.15302458219E+04  0.00000000000E+00 0.  1.
          2   -1    0    0  501    0  0.00000000000E+00 -0.00000000000E+00 -0.23611947938E+04  0.23611947938E+04  0.00000000000E+00 0. -1.
         23    2    1    2    0    0  0.46730223189E+01  0.74307892403E+03  0.13742300330E+04  0.15644248082E+04  0.82028486209E+02 0.  0.
         11    1    3    3    0    0  0.14540045355E+02  0.64344769031E+02  0.87024742636E+02  0.10920150206E+03  0.00000000000E+00 0. -1.
        -11    1    3    3    0    0 -0.98670230366E+01  0.67873415500E+03  0.12872052904E+04  0.14552233062E+04  0.00000000000E+00 0.  1.
         22    1    1    2    0    0 -0.46730223189E+01 -0.74307892403E+03 -0.22051790049E+04  0.23270158075E+04  0.00000000000E+00 0. -1.
<mgrwt>
<rscale>  0 0.38016883E+04</rscale>
<asrwt>0</asrwt>
<pdfrwt beam="1">  1        2 0.36326074E+00 0.38016883E+04</pdfrwt>
<pdfrwt beam="2">  1       -2 0.23542243E+00 0.38016883E+04</pdfrwt>
<totfact> 0.26529478E-01</totfact>
</mgrwt>
</event>
<event>
 6    1  0.2047711E-005  0.5672573E+04  0.7818608E-02  0.7732379E-01
          2   -1    0    0  501    0  0.00000000000E+00  0.00000000000E+00  0.28873689164E+04  0.28873689164E+04  0.00000000000E+00 0. -1.
         -2   -1    0    0    0  501 -0.00000000000E+00 -0.00000000000E+00 -0.27861075057E+04  0.27861075057E+04  0.00000000000E+00 0.  1.
         23    2    1    2    0    0 -0.94808797381E+03 -0.26037364811E+04  0.65255452079E+03  0.28481908504E+04  0.89717603992E+02 0.  0.
         11    1    3    3    0    0 -0.58183915658E+03 -0.17137484410E+04  0.44234677924E+03  0.18630998890E+04  0.00000000000E+00 0.  1.
        -11    1    3    3    0    0 -0.36624881723E+03 -0.88998804007E+03  0.21020774155E+03  0.98509096138E+03  0.00000000000E+00 0. -1.
         22    1    1    2    0    0  0.94808797381E+03  0.26037364811E+04 -0.55129311010E+03  0.28252855718E+04  0.00000000000E+00 0. -1.
<mgrwt>
<rscale>  0 0.56725727E+04</rscale>
<asrwt>0</asrwt>
<pdfrwt beam="1">  1        2 0.44421060E+00 0.56725727E+04</pdfrwt>
<pdfrwt beam="2">  1       -2 0.42863192E+00 0.56725727E+04</pdfrwt>
<totfact> 0.68042179E-03</totfact>
</mgrwt>
</event>
<event>
 6    1  0.2047711E-005  0.2697171E+04  0.7818608E-02  0.8335924E-01
          2   -1    0    0  501    0  0.00000000000E+00  0.00000000000E+00  0.16751882284E+04  0.16751882284E+04  0.00000000000E+00 0. -1.
         -2   -1    0    0    0  501 -0.00000000000E+00 -0.00000000000E+00 -0.10856585292E+04  0.10856585292E+04  0.00000000000E+00 0.  1.
         23    2    1    2    0    0  0.42045551794E+02 -0.87127378271E+03  0.13458233082E+04  0.16063486607E+04  0.90718300380E+02 0.  0.
         13    1    3    3    0    0  0.34141964751E+02 -0.44684704316E+03  0.61116731835E+03  0.75786769608E+03  0.00000000000E+00 0.  1.
        -13    1    3    3    0    0  0.79035870431E+01 -0.42442673955E+03  0.73465598981E+03  0.84848096460E+03  0.00000000000E+00 0. -1.
         22    1    1    2    0    0 -0.42045551794E+02  0.87127378271E+03 -0.75629360891E+03  0.11544980969E+04  0.00000000000E+00 0.  1.
<mgrwt>
<rscale>  0 0.26971707E+04</rscale>
<asrwt>0</asrwt>
<pdfrwt beam="1">  1        2 0.25772127E+00 0.26971707E+04</pdfrwt>
<pdfrwt beam="2">  1       -2 0.16702439E+00 0.26971707E+04</pdfrwt>
<totfact> 0.19889629E+00</totfact>
</mgrwt>
</event>
<event>
 6    1  0.2047711E-005  0.3573407E+04  0.7818608E-02  0.8096610E-01
          2   -1    0    0  501    0  0.00000000000E+00  0.00000000000E+00  0.11908322351E+04  0.11908322351E+04  0.00000000000E+00 0. -1.
         -2   -1    0    0    0  501 -0.00000000000E+00 -0.00000000000E+00 -0.26807384099E+04  0.26807384099E+04  0.00000000000E+00 0.  1.
         23    2    1    2    0    0 -0.47395031297E+03  0.16886082731E+04 -0.11073166883E+04  0.20764657693E+04  0.97637307391E+02 0.  0.
         11    1    3    3    0    0 -0.29701364215E+03  0.87876495556E+03 -0.59057011249E+03  0.10996444919E+04  0.00000000000E+00 0. -1.
        -11    1    3    3    0    0 -0.17693667083E+03  0.80984331756E+03 -0.51674657580E+03  0.97682127746E+03  0.00000000000E+00 0.  1.
         22    1    1    2    0    0  0.47395031297E+03 -0.16886082731E+04 -0.38258948653E+03  0.17951048756E+04  0.00000000000E+00 0.  1.
<mgrwt>
<rscale>  0 0.35734072E+04</rscale>
<asrwt>0</asrwt>
<pdfrwt beam="1">  1        2 0.18320496E+00 0.35734072E+04</pdfrwt>
<pdfrwt beam="2">  1       -2 0.41242129E+00 0.35734072E+04</pdfrwt>
<totfact> 0.96301819E-02</totfact>
</mgrwt>
</event>
<event>
 6    1  0.2047711E-005  0.2152744E+04  0.7818608E-02  0.8538359E-01
         -1   -1    0    0    0  501 -0.00000000000E+00  0.00000000000E+00  0.37516902705E+03  0.37516902705E+03  0.00000000000E+00 0.  1.
          1   -1    0    0  501    0  0.00000000000E+00 -0.00000000000E+00 -0.30881454608E+04  0.30881454608E+04  0.00000000000E+00 0. -1.
         23    2    1    2    0    0  0.71923801916E+03 -0.62529918401E+02 -0.26391003194E+04  0.27375934676E+04  0.91401199801E+02 0.  0.
         13    1    3    3    0    0  0.39021483786E+03  0.10934378772E+02 -0.14496983784E+04  0.15013369271E+04  0.00000000000E+00 0. -1.
        -13    1    3    3    0    0  0.32902318130E+03 -0.73464297173E+02 -0.11894019409E+04  0.12362565405E+04  0.00000000000E+00 0.  1.
         22    1    1    2    0    0 -0.71923801916E+03  0.62529918401E+02 -0.73876114352E+02  0.72572102021E+03  0.00000000000E+00 0.  1.
<mgrwt>
<rscale>  0 0.21527439E+04</rscale>
<asrwt>0</asrwt>
<pdfrwt beam="1">  1        1 0.47509930E+00 0.21527439E+04</pdfrwt>
<pdfrwt beam="2">  1       -1 0.57718312E-01 0.21527439E+04</pdfrwt>
<totfact> 0.14354069E+00</totfact>
</mgrwt>
</event>
<event>
 6    1  0.2047711E-005  0.4695148E+04  0.7818608E-02  0.7877335E-01
         -2   -1    0    0    0  501 -0.00000000000E+00  0.00000000000E+00  0.13804695349E+04  0.13804695349E+04  0.00000000000E+00 0.  1.
          2   -1    0    0  501    0  0.00000000000E+00 -0.00000000000E+00 -0.39921954116E+04  0.39921954116E+04  0.00000000000E+00 0. -1.
         23    2    1    2    0    0 -0.86290481902E+02 -0.80117449995E+03 -0.38284059898E+04  0.39133373190E+04  0.90498193050E+02 0.  0.
         11    1    3    3    0    0  0.10310449351E+01 -0.34200446911E+03 -0.15024357260E+04  0.15408702835E+04  0.00000000000E+00 0. -1.
        -11    1    3    3    0    0 -0.87321526838E+02 -0.45917003084E+03 -0.23259702639E+04  0.23724670356E+04  0.00000000000E+00 0.  1.
         22    1    1    2    0    0  0.86290481902E+02  0.80117449995E+03  0.12166801131E+04  0.14593276275E+04  0.00000000000E+00 0.  1.
<mgrwt>
<rscale>  0 0.46951482E+04</rscale>
<asrwt>0</asrwt>
<pdfrwt beam="1">  1        2 0.61418389E+00 0.46951482E+04</pdfrwt>
<pdfrwt beam="2">  1       -2 0.21237993E+00 0.46951482E+04</pdfrwt>
<totfact> 0.28496366E-02</totfact>
</mgrwt>
</event>
<event>
 6    1  0.2047711E-005  0.4131055E+04  0.7818608E-02  0.7978618E-01
          2   -1    0    0  501    0  0.00000000000E+00  0.00000000000E+00  0.35070469203E+04  0.35070469203E+04  0.00000000000E+00 0. -1.
         -2   -1    0    0    0  501 -0.00000000000E+00 -0.00000000000E+00 -0.12165231348E+04  0.12165231348E+04  0.00000000000E+00 0.  1.
         23    2    1    2    0    0 -0.84584720589E+03 -0.85662726694E+03  0.30635857072E+04  0.32928735447E+04  0.90504286877E+02 0.  0.
         11    1    3    3    0    0 -0.38422585262E+03 -0.41595374678E+03  0.13287671618E+04  0.14443923275E+04  0.00000000000E+00 0. -1.
        -11    1    3    3    0    0 -0.46162135327E+03 -0.44067352016E+03  0.17348185453E+04  0.18484812172E+04  0.00000000000E+00 0.  1.
         22    1    1    2    0    0  0.84584720589E+03  0.85662726694E+03 -0.77306192170E+03  0.14306965104E+04  0.00000000000E+00 0.  1.
<mgrwt>
<rscale>  0 0.41310549E+04</rscale>
<asrwt>0</asrwt>
<pdfrwt beam="1">  1        2 0.53954567E+00 0.41310549E+04</pdfrwt>
<pdfrwt beam="2">  1       -2 0.18715741E+00 0.41310549E+04</pdfrwt>
<totfact> 0.10144975E-01</totfact>
</mgrwt>
</event>
<event>
 6    1  0.2047711E-005  0.1500004E+04  0.7818608E-02  0.8884450E-01
         -1   -1    0    0    0  501 -0.00000000000E+00  0.00000000000E+00  0.35663273565E+03  0.35663273565E+03  0.00000000000E+00 0.  1.
          1   -1    0    0  501    0  0.00000000000E+00 -0.00000000000E+00 -0.15772615334E+04  0.15772615334E+04  0.00000000000E+00 0. -1.
         23    2    1    2    0    0 -0.11630102233E+03  0.38701871493E+03  0.19715594189E+03  0.45964090499E+03  0.95340875890E+02 0.  0.
         11    1    3    3    0    0 -0.79400427853E+02  0.35093982292E+03  0.15031542906E+03  0.38994604174E+03  0.00000000000E+00 0. -1.
        -11    1    3    3    0    0 -0.36900594476E+02  0.36078892009E+02  0.46840512826E+02  0.69694863247E+02  0.00000000000E+00 0.  1.
         22    1    1    2    0    0  0.11630102233E+03 -0.38701871493E+03 -0.14177847396E+04  0.14742533641E+04  0.00000000000E+00 0. -1.
<mgrwt>
<rscale>  0 0.15000041E+04</rscale>
<asrwt>0</asrwt>
<pdfrwt beam="1">  1        1 0.24265562E+00 0.15000041E+04</pdfrwt>
<pdfrwt beam="2">  1       -1 0.54866575E-01 0.15000041E+04</pdfrwt>
<totfact> 0.18784219E+01</totfact>
</mgrwt>
</event>
<event>
 6    1  0.2047711E-005  0.3344858E+04  0.7818608E-02  0.8151574E-01
         -2   -1    0    0    0  501 -0.00000000000E+00  0.00000000000E+00  0.12642848454E+04  0.12642848454E+04  0.00000000000E+00 0.  1.
          2   -1    0    0  501    0  0.00000000000E+00 -0.00000000000E+00 -0.22123327457E+04  0.22123327457E+04  0.00000000000E+00 0. -1.
         23    2    1    2    0    0 -0.11822710431E+04  0.96454863137E+02 -0.16978957451E+04  0.20732857878E+04  0.92712655900E+02 0.  0.
         13    1    3    3    0    0 -0.82977026046E+03  0.95747461156E+02 -0.12482698755E+04  0.15019533759E+04  0.00000000000E+00 0. -1.
        -13    1    3    3    0    0 -0.35250078262E+03  0.70740198113E+00 -0.44962586964E+03  0.57133241184E+03  0.00000000000E+00 0.  1.
         22    1    1    2    0    0  0.11822710431E+04 -0.96454863137E+02  0.74984784477E+03  0.14033318033E+04  0.00000000000E+00 0.  1.
<mgrwt>
<rscale>  0 0.33448580E+04</rscale>
<asrwt>0</asrwt>
<pdfrwt beam="1">  1        2 0.34035888E+00 0.33448580E+04</pdfrwt>
<pdfrwt beam="2">  1       -2 0.19450536E+00 0.33448580E+04</pdfrwt>
<totfact> 0.61155828E-01</totfact>
</mgrwt>
</event>
<event>
 6    1  0.2047711E-005  0.9701528E+03  0.7818608E-02  0.9341900E-01
          2   -1    0    0  501    0  0.00000000000E+00  0.00000000000E+00  0.28509376046E+03  0.28509376046E+03  0.00000000000E+00 0. -1.
         -2   -1    0    0    0  501 -0.00000000000E+00 -0.00000000000E+00 -0.82533935863E+03  0.82533935863E+03  0.00000000000E+00 0.  1.
         23    2    1    2    0    0 -0.39986050331E+03  0.28012010973E+02 -0.57640999646E+03  0.70796453825E+03  0.91061564477E+02 0.  0.
         11    1    3    3    0    0 -0.61128107987E+02 -0.41827030970E+01 -0.15276493918E+03  0.16459425030E+03  0.00000000000E+00 0.  1.
        -11    1    3    3    0    0 -0.33873239533E+03  0.32194714070E+02 -0.42364505729E+03  0.54337028795E+03  0.00000000000E+00 0. -1.
         22    1    1    2    0    0  0.39986050331E+03 -0.28012010973E+02  0.36164398293E+02  0.40246858085E+03  0.00000000000E+00 0. -1.
<mgrwt>
<rscale>  0 0.97015277E+03</rscale>
<asrwt>0</asrwt>
<pdfrwt beam="1">  1        2 0.43860579E-01 0.97015277E+03</pdfrwt>
<pdfrwt beam="2">  1       -2 0.12697528E+00 0.97015277E+03</pdfrwt>
<totfact> 0.53530705E+01</totfact>
</mgrwt>
</event>
<event>
 6    1  0.2047711E-005  0.1510930E+04  0.7818608E-02  0.8877217E-01
          2   -1    0    0  501    0  0.00000000000E+00  0.00000000000E+00  0.97772771806E+03  0.97772771806E+03  0.00000000000E+00 0. -1.
         -2   -1    0    0    0  501 -0.00000000000E+00 -0.00000000000E+00 -0.58372859308E+03  0.58372859308E+03  0.00000000000E+00 0.  1.
         23    2    1    2    0    0 -0.32011082360E+03  0.23545603506E+03  0.85835965451E+03  0.95027615341E+03  0.91285198303E+02 0.  0.
         13    1    3    3    0    0 -0.17581585566E+03  0.16722323796E+03  0.43943200668E+03  0.50197142838E+03  0.00000000000E+00 0. -1.
        -13    1    3    3    0    0 -0.14429496794E+03  0.68232797095E+02  0.41892764783E+03  0.44830472503E+03  0.00000000000E+00 0.  1.
         22    1    1    2    0    0  0.32011082360E+03 -0.23545603506E+03 -0.46436052952E+03  0.61118015773E+03  0.00000000000E+00 0.  1.
<mgrwt>
<rscale>  0 0.15109303E+04</rscale>
<asrwt>0</asrwt>
<pdfrwt beam="1">  1        2 0.15041965E+00 0.15109303E+04</pdfrwt>
<pdfrwt beam="2">  1       -2 0.89804399E-01 0.15109303E+04</pdfrwt>
<totfact> 0.26705810E+01</totfact>
</mgrwt>
</event>
<event>
 6    1  0.2047711E-005  0.2335214E+04  0.7818608E-02  0.8464165E-01
         -2   -1    0    0    0  501 -0.00000000000E+00  0.00000000000E+00  0.10166974984E+04  0.10166974984E+04  0.00000000000E+00 0.  1.
          2   -1    0    0  501    0  0.00000000000E+00 -0.00000000000E+00 -0.13409156023E+04  0.13409156023E+04  0.00000000000E+00 0. -1.
         23    2    1    2    0    0 -0.28220972952E+03 -0.10926081412E+04  0.13348151241E+03  0.11398595047E+04  0.89596285851E+02 0.  0.
         13    1    3    3    0    0 -0.18587419253E+03 -0.64273779564E+03  0.11891149653E+03  0.67955944067E+03  0.00000000000E+00 0.  1.
        -13    1    3    3    0    0 -0.96335536997E+02 -0.44987034560E+03  0.14570015882E+02  0.46030006399E+03  0.00000000000E+00 0. -1.
         22    1    1    2    0    0  0.28220972952E+03  0.10926081412E+04 -0.45769961633E+03  0.12177535960E+04  0.00000000000E+00 0.  1.
<mgrwt>
<rscale>  0 0.23352135E+04</rscale>
<asrwt>0</asrwt>
<pdfrwt beam="1">  1        2 0.20629471E+00 0.23352135E+04</pdfrwt>
<pdfrwt beam="2">  1       -2 0.15641500E+00 0.23352135E+04</pdfrwt>
<totfact> 0.37903707E+00</totfact>
</mgrwt>
</event>
<event>
 6    1  0.2047711E-005  0.2903911E+04  0.7818608E-02  0.8271715E-01
         -2   -1    0    0    0  501 -0.00000000000E+00  0.00000000000E+00  0.83824999837E+03  0.83824999837E+03  0.00000000000E+00 0.  1.
          2   -1    0    0  501    0  0.00000000000E+00 -0.00000000000E+00 -0.25149715557E+04  0.25149715557E+04  0.00000000000E+00 0. -1.
         23    2    1    2    0    0 -0.98365524674E+03  0.69149750674E+03  0.97148696575E+02  0.12102418239E+04  0.97472851735E+02 0.  0.
         11    1    3    3    0    0 -0.87802974328E+03  0.58349797597E+03  0.68265590833E+02  0.10564403954E+04  0.00000000000E+00 0.  1.
        -11    1    3    3    0    0 -0.10562550345E+03  0.10799953077E+03  0.28883105742E+02  0.15380142855E+03  0.00000000000E+00 0. -1.
         22    1    1    2    0    0  0.98365524674E+03 -0.69149750674E+03 -0.17738702539E+04  0.21429797302E+04  0.00000000000E+00 0.  1.
<mgrwt>
<rscale>  0 0.29039111E+04</rscale>
<asrwt>0</asrwt>
<pdfrwt beam="1">  1        2 0.38691870E+00 0.29039111E+04</pdfrwt>
<pdfrwt beam="2">  1       -2 0.12896154E+00 0.29039111E+04</pdfrwt>
<totfact> 0.13044848E+00</totfact>
</mgrwt>
</event>
<event>
 6    1  0.2047711E-005  0.2084829E+04  0.7818608E-02  0.8567956E-01
         -2   -1    0    0    0  501 -0.00000000000E+00  0.00000000000E+00  0.65849122866E+03  0.65849122866E+03  0.00000000000E+00 0.  1.
          2   -1    0    0  501    0  0.00000000000E+00 -0.00000000000E+00 -0.16501778191E+04  0.16501778191E+04  0.00000000000E+00 0. -1.
         23    2    1    2    0    0 -0.79438545048E+03 -0.39581505935E+03 -0.10980946349E+04  0.14147784073E+04  0.89823768464E+02 0.  0.
         13    1    3    3    0    0 -0.30213706071E+03 -0.19210157473E+03 -0.47906418274E+03  0.59807383294E+03  0.00000000000E+00 0. -1.
        -13    1    3    3    0    0 -0.49224838977E+03 -0.20371348462E+03 -0.61903045216E+03  0.81670457434E+03  0.00000000000E+00 0.  1.
         22    1    1    2    0    0  0.79438545048E+03  0.39581505935E+03  0.10640804448E+03  0.89389064044E+03  0.00000000000E+00 0.  1.
<mgrwt>
<rscale>  0 0.20848286E+04</rscale>
<asrwt>0</asrwt>
<pdfrwt beam="1">  1        2 0.25387351E+00 0.20848286E+04</pdfrwt>
<pdfrwt beam="2">  1       -2 0.10130634E+00 0.20848286E+04</pdfrwt>
<totfact> 0.77259649E+00</totfact>
</mgrwt>
</event>
<event>
 6    1  0.2047711E-005  0.1110634E+04  0.7818608E-02  0.9194888E-01
          2   -1    0    0  501    0  0.00000000000E+00  0.00000000000E+00  0.16717453901E+04  0.16717453901E+04  0.00000000000E+00 0.  1.
         -2   -1    0    0    0  501 -0.00000000000E+00 -0.00000000000E+00 -0.18446424028E+03  0.18446424028E+03  0.00000000000E+00 0. -1.
         23    2    1    2    0    0 -0.51072851479E+03  0.15657346555E+03  0.98013028789E+03  0.11196223221E+04  0.86832580389E+02 0.  0.
         11    1    3    3    0    0 -0.44832372092E+02 -0.10050231412E+02  0.96871753151E+02  0.10721513558E+03  0.00000000000E+00 0. -1.
        -11    1    3    3    0    0 -0.46589614269E+03  0.16662369696E+03  0.88325853474E+03  0.10124071865E+04  0.00000000000E+00 0.  1.
         22    1    1    2    0    0  0.51072851479E+03 -0.15657346555E+03  0.50715086194E+03  0.73658730827E+03  0.00000000000E+00 0. -1.
<mgrwt>
<rscale>  0 0.11106345E+04</rscale>
<asrwt>0</asrwt>
<pdfrwt beam="1">  1        2 0.25719159E+00 0.11106345E+04</pdfrwt>
<pdfrwt beam="2">  1       -2 0.28379115E-01 0.11106345E+04</pdfrwt>
<totfact> 0.11470741E+02</totfact>
</mgrwt>
</event>
<event>
 6    1  0.2047711E-005  0.3226281E+04  0.7818608E-02  0.8181911E-01
          2   -1    0    0  501    0  0.00000000000E+00  0.00000000000E+00  0.12512682550E+04  0.12512682550E+04  0.00000000000E+00 0. -1.
         -2   -1    0    0    0  501 -0.00000000000E+00 -0.00000000000E+00 -0.20796683765E+04  0.20796683765E+04  0.00000000000E+00 0.  1.
         23    2    1    2    0    0  0.79914310013E+03  0.11636108208E+03 -0.18547226424E+04  0.20249858236E+04  0.91661930842E+02 0.  0.
         11    1    3    3    0    0  0.35364711140E+03  0.11125389041E+02 -0.75492657335E+03  0.83372908359E+03  0.00000000000E+00 0. -1.
        -11    1    3    3    0    0  0.44549598873E+03  0.10523569304E+03 -0.10997960690E+04  0.11912567400E+04  0.00000000000E+00 0.  1.
         22    1    1    2    0    0 -0.79914310013E+03 -0.11636108208E+03  0.10263225209E+04  0.13059508079E+04  0.00000000000E+00 0. -1.
<mgrwt>
<rscale>  0 0.32262815E+04</rscale>
<asrwt>0</asrwt>
<pdfrwt beam="1">  1        2 0.19250281E+00 0.32262815E+04</pdfrwt>
<pdfrwt beam="2">  1       -2 0.31994898E+00 0.32262815E+04</pdfrwt>
<totfact> 0.35542769E-01</totfact>
</mgrwt>
</event>
<event>
 6    1  0.2047711E-005  0.1380159E+04  0.7818608E-02  0.8968307E-01
         -2   -1    0    0    0  501 -0.00000000000E+00  0.00000000000E+00  0.48984772631E+03  0.48984772631E+03  0.00000000000E+00 0.  1.
          2   -1    0    0  501    0  0.00000000000E+00 -0.00000000000E+00 -0.97215832506E+03  0.97215832506E+03  0.00000000000E+00 0. -1.
         23    2    1    2    0    0 -0.64294986846E+03 -0.22803519612E+03 -0.15587681476E+03  0.70573652314E+03  0.91552578836E+02 0.  0.
         11    1    3    3    0    0 -0.13782138655E+03 -0.88376678709E+02 -0.25654123871E+02  0.16572056602E+03  0.00000000000E+00 0. -1.
        -11    1    3    3    0    0 -0.50512848191E+03 -0.13965851741E+03 -0.13022269089E+03  0.54001595712E+03  0.00000000000E+00 0.  1.
         22    1    1    2    0    0  0.64294986846E+03  0.22803519612E+03 -0.32643378398E+03  0.75626952824E+03  0.00000000000E+00 0. -1.
<mgrwt>
<rscale>  0 0.13801588E+04</rscale>
<asrwt>0</asrwt>
<pdfrwt beam="1">  1        2 0.14956282E+00 0.13801588E+04</pdfrwt>
<pdfrwt beam="2">  1       -2 0.75361190E-01 0.13801588E+04</pdfrwt>
<totfact> 0.40443201E+01</totfact>
</mgrwt>
</event>
<event>
 6    1  0.2047711E-005  0.6351564E+04  0.7818608E-02  0.7648277E-01
          2   -1    0    0  501    0  0.00000000000E+00  0.00000000000E+00  0.38096938838E+04  0.38096938838E+04  0.00000000000E+00 0. -1.
         -2   -1    0    0    0  501 -0.00000000000E+00 -0.00000000000E+00 -0.26473496461E+04  0.26473496461E+04  0.00000000000E+00 0.  1.
         23    2    1    2    0    0 -0.31485176283E+03 -0.18747167069E+04 -0.20041234213E+04  0.27637777936E+04  0.90899069099E+02 0.  0.
         13    1    3    3    0    0 -0.87375441320E+02 -0.53557598681E+03 -0.63259634282E+03  0.83345920017E+03  0.00000000000E+00 0. -1.
        -13    1    3    3    0    0 -0.22747632151E+03 -0.13391407201E+04 -0.13715270785E+04  0.19303185934E+04  0.00000000000E+00 0.  1.
         22    1    1    2    0    0  0.31485176283E+03  0.18747167069E+04  0.31664676590E+04  0.36932657363E+04  0.00000000000E+00 0. -1.
<mgrwt>
<rscale>  0 0.63515641E+04</rscale>
<asrwt>0</asrwt>
<pdfrwt beam="1">  1        2 0.58610675E+00 0.63515641E+04</pdfrwt>
<pdfrwt beam="2">  1       -2 0.40728456E+00 0.63515641E+04</pdfrwt>
<totfact> 0.20987438E-03</totfact>
</mgrwt>
</event>
<event>
 6    1  0.2047711E-005  0.3272427E+04  0.7818608E-02  0.8169947E-01
         -2   -1    0    0    0  501 -0.00000000000E+00  0.00000000000E+00  0.11294781027E+04  0.11294781027E+04  0.00000000000E+00 0.  1.
          2   -1    0    0  501    0  0.00000000000E+00 -0.00000000000E+00 -0.23702928611E+04  0.23702928611E+04  0.00000000000E+00 0. -1.
         23    2    1    2    0    0  0.10517393607E+04  0.10506621405E+04  0.10675271519E+03  0.14932853018E+04  0.91968658234E+02 0.  0.
         11    1    3    3    0    0  0.88691534372E+03  0.84268397935E+03  0.10499338733E+03  0.12279082732E+04  0.00000000000E+00 0.  1.
        -11    1    3    3    0    0  0.16482401694E+03  0.20797816113E+03  0.17593278526E+01  0.26537702858E+03  0.00000000000E+00 0. -1.
         22    1    1    2    0    0 -0.10517393607E+04 -0.10506621405E+04 -0.13475674736E+04  0.20064856621E+04  0.00000000000E+00 0.  1.
<mgrwt>
<rscale>  0 0.32724266E+04</rscale>
<asrwt>0</asrwt>
<pdfrwt beam="1">  1        2 0.36466044E+00 0.32724266E+04</pdfrwt>
<pdfrwt beam="2">  1       -2 0.17376586E+00 0.32724266E+04</pdfrwt>
<totfact> 0.69364697E-01</totfact>
</mgrwt>
</event>
<event>
 6    1  0.2047711E-005  0.3059084E+04  0.7818608E-02  0.8227057E-01
         -2   -1    0    0    0  501 -0.00000000000E+00  0.00000000000E+00  0.91865454843E+03  0.91865454843E+03  0.00000000000E+00 0.  1.
          2   -1    0    0  501    0  0.00000000000E+00 -0.00000000000E+00 -0.25466582762E+04  0.25466582762E+04  0.00000000000E+00 0. -1.
         23    2    1    2    0    0  0.62733669377E+03 -0.70296502205E+02  0.76176152019E+03  0.99357844045E+03  0.91785500492E+02 0.  0.
         13    1    3    3    0    0  0.23153416924E+03  0.42539327212E+01  0.22871045402E+03  0.32547601947E+03  0.00000000000E+00 0. -1.
        -13    1    3    3    0    0  0.39580252453E+03 -0.74550434926E+02  0.53305106617E+03  0.66810242098E+03  0.00000000000E+00 0.  1.
         22    1    1    2    0    0 -0.62733669377E+03  0.70296502205E+02 -0.23897652480E+04  0.24717343842E+04  0.00000000000E+00 0. -1.
<mgrwt>
<rscale>  0 0.30590843E+04</rscale>
<asrwt>0</asrwt>
<pdfrwt beam="1">  1        2 0.39179357E+00 0.30590843E+04</pdfrwt>
<pdfrwt beam="2">  1       -2 0.14133147E+00 0.30590843E+04</pdfrwt>
<totfact> 0.97594023E-01</totfact>
</mgrwt>
</event>
<event>
 6    1  0.2047711E-005  0.4614915E+04  0.7818608E-02  0.7890822E-01
          2   -1    0    0  501    0  0.00000000000E+00  0.00000000000E+00  0.31687710859E+04  0.31687710859E+04  0.00000000000E+00 0. -1.
         -2   -1    0    0    0  501 -0.00000000000E+00 -0.00000000000E+00 -0.16802599075E+04  0.16802599075E+04  0.00000000000E+00 0.  1.
         23    2    1    2    0    0  0.13006725793E+04 -0.19708698708E+03  0.27352756671E+04  0.30365701995E+04  0.91832250771E+02 0.  0.
         13    1    3    3    0    0  0.31609630700E+03 -0.68656810444E+02  0.75243271007E+03  0.81901502801E+03  0.00000000000E+00 0.  1.
        -13    1    3    3    0    0  0.98457627234E+03 -0.12843017664E+03  0.19828429570E+04  0.22175551715E+04  0.00000000000E+00 0. -1.
         22    1    1    2    0    0 -0.13006725793E+04  0.19708698708E+03 -0.12467644887E+04  0.18124607939E+04  0.00000000000E+00 0.  1.
<mgrwt>
<rscale>  0 0.46149145E+04</rscale>
<asrwt>0</asrwt>
<pdfrwt beam="1">  1        2 0.48750324E+00 0.46149145E+04</pdfrwt>
<pdfrwt beam="2">  1       -2 0.25850152E+00 0.46149145E+04</pdfrwt>
<totfact> 0.58080269E-02</totfact>
</mgrwt>
</event>
<event>
 6    1  0.2047711E-005  0.9658648E+03  0.7818608E-02  0.9346797E-01
          2   -1    0    0  501    0  0.00000000000E+00  0.00000000000E+00  0.78391900531E+03  0.78391900531E+03  0.00000000000E+00 0. -1.
         -2   -1    0    0    0  501 -0.00000000000E+00 -0.00000000000E+00 -0.29750996942E+03  0.29750996942E+03  0.00000000000E+00 0.  1.
         23    2    1    2    0    0  0.26647015430E+03 -0.17172087308E+03 -0.15619086003E+03  0.36488935431E+03  0.90852929236E+02 0.  0.
         13    1    3    3    0    0  0.30616521524E+02 -0.61423742922E+02 -0.42929786491E+02  0.80951924949E+02  0.00000000000E+00 0. -1.
        -13    1    3    3    0    0  0.23585363278E+03 -0.11029713015E+03 -0.11326107354E+03  0.28393742936E+03  0.00000000000E+00 0.  1.
         22    1    1    2    0    0 -0.26647015430E+03  0.17172087308E+03  0.64259989592E+03  0.71653962042E+03  0.00000000000E+00 0. -1.
<mgrwt>
<rscale>  0 0.96586483E+03</rscale>
<asrwt>0</asrwt>
<pdfrwt beam="1">  1        2 0.12060292E+00 0.96586483E+03</pdfrwt>
<pdfrwt beam="2">  1       -2 0.45770765E-01 0.96586483E+03</pdfrwt>
<totfact> 0.16014723E+02</totfact>
</mgrwt>
</event>
<event>
 6    1  0.2047711E-005  0.1584484E+04  0.7818608E-02  0.8830137E-01
         -1   -1    0    0    0  501 -0.00000000000E+00  0.00000000000E+00  0.52688283198E+03  0.52688283198E+03  0.00000000000E+00 0. -1.
          1   -1    0    0  501    0  0.00000000000E+00 -0.00000000000E+00 -0.11912464498E+04  0.11912464498E+04  0.00000000000E+00 0.  1.
         23    2    1    2    0    0 -0.24588613758E+03 -0.54615968908E+03 -0.89125611733E+03  0.10776368111E+04  0.90626879891E+02 0.  0.
         13    1    3    3    0    0 -0.11402471416E+03 -0.17270698776E+03 -0.25822511277E+03  0.33092226870E+03  0.00000000000E+00 0. -1.
        -13    1    3    3    0    0 -0.13186142342E+03 -0.37345270132E+03 -0.63303100456E+03  0.74671454241E+03  0.00000000000E+00 0.  1.
         22    1    1    2    0    0  0.24588613758E+03  0.54615968908E+03  0.22689249952E+03  0.64049247066E+03  0.00000000000E+00 0. -1.
<mgrwt>
<rscale>  0 0.15844839E+04</rscale>
<asrwt>0</asrwt>
<pdfrwt beam="1">  1        1 0.18326868E+00 0.15844839E+04</pdfrwt>
<pdfrwt beam="2">  1       -1 0.81058897E-01 0.15844839E+04</pdfrwt>
<totfact> 0.15803917E+01</totfact>
</mgrwt>
</event>
<event>
 6    1  0.2047711E-005  0.3968189E+04  0.7818608E-02  0.8010995E-01
         -2   -1    0    0    0  501 -0.00000000000E+00  0.00000000000E+00  0.17037320368E+04  0.17037320368E+04  0.00000000000E+00 0.  1.
          2   -1    0    0  501    0  0.00000000000E+00 -0.00000000000E+00 -0.23105930967E+04  0.23105930967E+04  0.00000000000E+00 0. -1.
         23    2    1    2    0    0 -0.48130588853E+03 -0.11507695794E+04 -0.18631730319E+04  0.22439450178E+04  0.89160040667E+02 0.  0.
         11    1    3    3    0    0 -0.33039069848E+03 -0.75962930292E+03 -0.11630270640E+04  0.14278748695E+04  0.00000000000E+00 0.  1.
        -11    1    3    3    0    0 -0.15091519005E+03 -0.39114027644E+03 -0.70014596797E+03  0.81607014827E+03  0.00000000000E+00 0. -1.
         22    1    1    2    0    0  0.48130588853E+03  0.11507695794E+04  0.12563119721E+04  0.17703801158E+04  0.00000000000E+00 0. -1.
<mgrwt>
<rscale>  0 0.39681893E+04</rscale>
<asrwt>0</asrwt>
<pdfrwt beam="1">  1        2 0.35547586E+00 0.39681893E+04</pdfrwt>
<pdfrwt beam="2">  1       -2 0.26211262E+00 0.39681893E+04</pdfrwt>
<totfact> 0.19152864E-01</totfact>
</mgrwt>
</event>
<event>
 6    1  0.2047711E-005  0.1171952E+04  0.7818608E-02  0.9137767E-01
         -2   -1    0    0    0  501 -0.00000000000E+00  0.00000000000E+00  0.38026194096E+03  0.38026194096E+03  0.00000000000E+00 0.  1.
          2   -1    0    0  501    0  0.00000000000E+00 -0.00000000000E+00 -0.90297766405E+03  0.90297766405E+03  0.00000000000E+00 0. -1.
         23    2    1    2    0    0 -0.18817378020E+03 -0.39021771421E+03 -0.68918625251E+03  0.81913652034E+03  0.91256299855E+02 0.  0.
         11    1    3    3    0    0  0.10126064990E+02 -0.27647983986E+02 -0.43587532754E+02  0.52600581958E+02  0.00000000000E+00 0. -1.
        -11    1    3    3    0    0 -0.19829984519E+03 -0.36256973023E+03 -0.64559871976E+03  0.76653593838E+03  0.00000000000E+00 0.  1.
         22    1    1    2    0    0  0.18817378020E+03  0.39021771421E+03  0.16647052942E+03  0.46410308468E+03  0.00000000000E+00 0.  1.
<mgrwt>
<rscale>  0 0.11719523E+04</rscale>
<asrwt>0</asrwt>
<pdfrwt beam="1">  1        2 0.13891964E+00 0.11719523E+04</pdfrwt>
<pdfrwt beam="2">  1       -2 0.58501838E-01 0.11719523E+04</pdfrwt>
<totfact> 0.78833630E+01</totfact>
</mgrwt>
</event>
<event>
 6    1  0.2047711E-005  0.1045403E+04  0.7818608E-02  0.9260103E-01
          2   -1    0    0  501    0  0.00000000000E+00  0.00000000000E+00  0.17783819660E+04  0.17783819660E+04  0.00000000000E+00 0. -1.
         -2   -1    0    0    0  501 -0.00000000000E+00 -0.00000000000E+00 -0.15363239495E+03  0.15363239495E+03  0.00000000000E+00 0.  1.
         23    2    1    2    0    0 -0.15963124790E+03 -0.49334457158E+03  0.78630241793E+03  0.94618241271E+03  0.90103629587E+02 0.  0.
         11    1    3    3    0    0 -0.11005103087E+02 -0.25089391098E+01  0.70315786106E+01  0.13298502441E+02  0.00000000000E+00 0. -1.
        -11    1    3    3    0    0 -0.14862614481E+03 -0.49083563247E+03  0.77927083932E+03  0.93288391027E+03  0.00000000000E+00 0.  1.
         22    1    1    2    0    0  0.15963124790E+03  0.49334457158E+03  0.83844715317E+03  0.98583194829E+03  0.00000000000E+00 0.  1.
<mgrwt>
<rscale>  0 0.10454034E+04</rscale>
<asrwt>0</asrwt>
<pdfrwt beam="1">  1        2 0.27359721E+00 0.10454034E+04</pdfrwt>
<pdfrwt beam="2">  1       -2 0.23635754E-01 0.10454034E+04</pdfrwt>
<totfact> 0.14038293E+02</totfact>
</mgrwt>
</event>
<event>
 6    1  0.2047711E-005  0.4811742E+04  0.7818608E-02  0.7858223E-01
          2   -1    0    0  501    0  0.00000000000E+00  0.00000000000E+00  0.19763571309E+04  0.19763571309E+04  0.00000000000E+00 0. -1.
         -2   -1    0    0    0  501 -0.00000000000E+00 -0.00000000000E+00 -0.29287289752E+04  0.29287289752E+04  0.00000000000E+00 0.  1.
         23    2    1    2    0    0 -0.68129882927E+03  0.61293474998E+03 -0.27430425630E+04  0.28935298117E+04  0.91515934306E+02 0.  0.
         11    1    3    3    0    0 -0.27482847322E+02  0.44460696512E+02 -0.11410770968E+03  0.12550948107E+03  0.00000000000E+00 0.  1.
        -11    1    3    3    0    0 -0.65381598195E+03  0.56847405347E+03 -0.26289348533E+04  0.27680203306E+04  0.00000000000E+00 0. -1.
         22    1    1    2    0    0  0.68129882927E+03 -0.61293474998E+03  0.17906707187E+04  0.20115562943E+04  0.00000000000E+00 0. -1.
<mgrwt>
<rscale>  0 0.48117416E+04</rscale>
<asrwt>0</asrwt>
<pdfrwt beam="1">  1        2 0.30405494E+00 0.48117416E+04</pdfrwt>
<pdfrwt beam="2">  1       -2 0.45057369E+00 0.48117416E+04</pdfrwt>
<totfact> 0.17549542E-02</totfact>
</mgrwt>
</event>
<event>
 6    1  0.2047711E-005  0.2393957E+04  0.7818608E-02  0.8441770E-01
          1   -1    0    0  501    0  0.00000000000E+00  0.00000000000E+00  0.15952658482E+04  0.15952658482E+04  0.00000000000E+00 0. -1.
         -1   -1    0    0    0  501 -0.00000000000E+00 -0.00000000000E+00 -0.89813066589E+03  0.89813066589E+03  0.00000000000E+00 0.  1.
         23    2    1    2    0    0  0.23005218932E+03 -0.11727543757E+04  0.36604485433E+03  0.12532765034E+04  0.91849459056E+02 0.  0.
         11    1    3    3    0    0  0.14695688000E+03 -0.93363664880E+03  0.30108123578E+03  0.99192924501E+03  0.00000000000E+00 0. -1.
        -11    1    3    3    0    0  0.83095309323E+02 -0.23911772692E+03  0.64963618545E+02  0.26134725844E+03  0.00000000000E+00 0.  1.
         22    1    1    2    0    0 -0.23005218932E+03  0.11727543757E+04  0.33109032801E+03  0.12401200107E+04  0.00000000000E+00 0. -1.
<mgrwt>
<rscale>  0 0.23939567E+04</rscale>
<asrwt>0</asrwt>
<pdfrwt beam="1">  1        1 0.24542551E+00 0.23939567E+04</pdfrwt>
<pdfrwt beam="2">  1       -1 0.13817395E+00 0.23939567E+04</pdfrwt>
<totfact> 0.21865732E+00</totfact>
</mgrwt>
</event>
<event>
 6    1  0.2047711E-005  0.4081257E+04  0.7818608E-02  0.7988352E-01
          2   -1    0    0  501    0  0.00000000000E+00  0.00000000000E+00  0.29663616153E+04  0.29663616153E+04  0.00000000000E+00 0.  1.
         -2   -1    0    0    0  501 -0.00000000000E+00 -0.00000000000E+00 -0.14037953361E+04  0.14037953361E+04  0.00000000000E+00 0. -1.
         23    2    1    2    0    0 -0.78436182917E+03 -0.79078244729E+03 -0.10479600722E+04  0.15319518514E+04  0.89976685462E+02 0.  0.
         13    1    3    3    0    0 -0.50446335667E+03 -0.54118037171E+03 -0.74372328326E+03  0.10490394630E+04  0.00000000000E+00 0. -1.
        -13    1    3    3    0    0 -0.27989847250E+03 -0.24960207558E+03 -0.30423678895E+03  0.48291238832E+03  0.00000000000E+00 0.  1.
         22    1    1    2    0    0  0.78436182917E+03  0.79078244729E+03  0.26105263515E+04  0.28382051000E+04  0.00000000000E+00 0.  1.
<mgrwt>
<rscale>  0 0.40812570E+04</rscale>
<asrwt>0</asrwt>
<pdfrwt beam="1">  1        2 0.45636332E+00 0.40812570E+04</pdfrwt>
<pdfrwt beam="2">  1       -2 0.21596851E+00 0.40812570E+04</pdfrwt>
<totfact> 0.15009540E-01</totfact>
</mgrwt>
</event>
<event>
 6    1  0.2047711E-005  0.2560600E+04  0.7818608E-02  0.8381709E-01
         -2   -1    0    0    0  501 -0.00000000000E+00  0.00000000000E+00  0.45988377532E+03  0.45988377532E+03  0.00000000000E+00 0.  1.
          2   -1    0    0  501    0  0.00000000000E+00 -0.00000000000E+00 -0.35643101618E+04  0.35643101618E+04  0.00000000000E+00 0. -1.
         23    2    1    2    0    0 -0.11384291709E+04  0.54686270464E+03 -0.18681863646E+04  0.22568883080E+04  0.91349589155E+02 0.  0.
         11    1    3    3    0    0 -0.65591584927E+03  0.28509050337E+03 -0.11212642173E+04  0.13299382096E+04  0.00000000000E+00 0.  1.
        -11    1    3    3    0    0 -0.48251332160E+03  0.26177220127E+03 -0.74692214724E+03  0.92695009840E+03  0.00000000000E+00 0. -1.
         22    1    1    2    0    0  0.11384291709E+04 -0.54686270464E+03 -0.12362400219E+04  0.17673056291E+04  0.00000000000E+00 0.  1.
<mgrwt>
<rscale>  0 0.25606003E+04</rscale>
<asrwt>0</asrwt>
<pdfrwt beam="1">  1        2 0.54835541E+00 0.25606003E+04</pdfrwt>
<pdfrwt beam="2">  1       -2 0.70751349E-01 0.25606003E+04</pdfrwt>
<totfact> 0.11813611E+00</totfact>
</mgrwt>
</event>
<event>
 6    1  0.2047711E-005  0.2890773E+04  0.7818608E-02  0.8275628E-01
          2   -1    0    0  501    0  0.00000000000E+00  0.00000000000E+00  0.42635410931E+04  0.42635410931E+04  0.00000000000E+00 0. -1.
         -2   -1    0    0    0  501 -0.00000000000E+00 -0.00000000000E+00 -0.49000179468E+03  0.49000179468E+03  0.00000000000E+00 0.  1.
         23    2    1    2    0    0  0.48575656352E+03 -0.10264277074E+04  0.33551968422E+04  0.35433678227E+04  0.92716768996E+02 0.  0.
         11    1    3    3    0    0  0.29851180921E+03 -0.59956199809E+03  0.21121680535E+04  0.22158153750E+04  0.00000000000E+00 0. -1.
        -11    1    3    3    0    0  0.18724475431E+03 -0.42686570929E+03  0.12430287887E+04  0.13275524477E+04  0.00000000000E+00 0.  1.
         22    1    1    2    0    0 -0.48575656352E+03  0.10264277074E+04  0.41834245618E+03  0.12101750651E+04  0.00000000000E+00 0. -1.
<mgrwt>
<rscale>  0 0.28907735E+04</rscale>
<asrwt>0</asrwt>
<pdfrwt beam="1">  1        2 0.65592937E+00 0.28907735E+04</pdfrwt>
<pdfrwt beam="2">  1       -2 0.75384894E-01 0.28907735E+04</pdfrwt>
<totfact> 0.27891738E-01</totfact>
</mgrwt>
</event>
<event>
 6    1  0.2047711E-005  0.1313319E+04  0.7818608E-02  0.9019069E-01
          2   -1    0    0  501    0  0.00000000000E+00  0.00000000000E+00  0.80376382174E+03  0.80376382174E+03  0.00000000000E+00 0. -1.
         -2   -1    0    0    0  501 -0.00000000000E+00 -0.00000000000E+00 -0.53647843484E+03  0.53647843484E+03  0.00000000000E+00 0.  1.
         23    2    1    2    0    0 -0.63333326899E+03 -0.78641892705E+02 -0.92625264436E+01  0.64470338256E+03  0.90890484577E+02 0.  0.
         13    1    3    3    0    0 -0.57903429676E+03 -0.49845127759E+02  0.66526174144E+01  0.58121382546E+03  0.00000000000E+00 0. -1.
        -13    1    3    3    0    0 -0.54298972230E+02 -0.28796764945E+02 -0.15915143858E+02  0.63489557098E+02  0.00000000000E+00 0.  1.
         22    1    1    2    0    0  0.63333326899E+03  0.78641892705E+02  0.27654791334E+03  0.69553887402E+03  0.00000000000E+00 0. -1.
<mgrwt>
<rscale>  0 0.13133194E+04</rscale>
<asrwt>0</asrwt>
<pdfrwt beam="1">  1        2 0.12365597E+00 0.13133194E+04</pdfrwt>
<pdfrwt beam="2">  1       -2 0.82535143E-01 0.13133194E+04</pdfrwt>
<totfact> 0.43201191E+01</totfact>
</mgrwt>
</event>
<event>
 6    1  0.2047711E-005  0.8854993E+03  0.7818608E-02  0.9443892E-01
         -2   -1    0    0    0  501 -0.00000000000E+00  0.00000000000E+00  0.47344687220E+03  0.47344687220E+03  0.00000000000E+00 0.  1.
          2   -1    0    0  501    0  0.00000000000E+00 -0.00000000000E+00 -0.41404277669E+03  0.41404277669E+03  0.00000000000E+00 0. -1.
         23    2    1    2    0    0  0.32910458840E+03  0.24212678084E+03  0.18854020668E+03  0.45899070686E+03  0.90497797434E+02 0.  0.
         13    1    3    3    0    0  0.19012891818E+03  0.86052706334E+02  0.80007810171E+02  0.22350687569E+03  0.00000000000E+00 0.  1.
        -13    1    3    3    0    0  0.13897567023E+03  0.15607407451E+03  0.10853239651E+03  0.23548383117E+03  0.00000000000E+00 0. -1.
         22    1    1    2    0    0 -0.32910458840E+03 -0.24212678084E+03 -0.12913611117E+03  0.42849894203E+03  0.00000000000E+00 0. -1.
<mgrwt>
<rscale>  0 0.88549931E+03</rscale>
<asrwt>0</asrwt>
<pdfrwt beam="1">  1        2 0.63698889E-01 0.88549931E+03</pdfrwt>
<pdfrwt beam="2">  1       -2 0.72837980E-01 0.88549931E+03</pdfrwt>
<totfact> 0.13088243E+02</totfact>
</mgrwt>
</event>
<event>
 6    1  0.2047711E-005  0.2642167E+04  0.7818608E-02  0.8354018E-01
          1   -1    0    0  501    0  0.00000000000E+00  0.00000000000E+00  0.32687915912E+04  0.32687915912E+04  0.00000000000E+00 0. -1.
         -1   -1    0    0    0  501 -0.00000000000E+00 -0.00000000000E+00 -0.53391630067E+03  0.53391630067E+03  0.00000000000E+00 0.  1.
         23    2    1    2    0    0  0.11325570791E+04  0.29157893036E+03  0.49098056162E+03  0.12723388744E+04  0.10040163965E+03 0.  0.
         13    1    3    3    0    0  0.36703884659E+03  0.63679231015E+02  0.11751992427E+03  0.39061936968E+03  0.00000000000E+00 0. -1.
        -13    1    3    3    0    0  0.76551823255E+03  0.22789969935E+03  0.37346063735E+03  0.88171950471E+03  0.00000000000E+00 0.  1.
         22    1    1    2    0    0 -0.11325570791E+04 -0.29157893036E+03  0.22438947289E+04  0.25303690175E+04  0.00000000000E+00 0. -1.
<mgrwt>
<rscale>  0 0.26421666E+04</rscale>
<asrwt>0</asrwt>
<pdfrwt beam="1">  1        1 0.50289100E+00 0.26421666E+04</pdfrwt>
<pdfrwt beam="2">  1       -1 0.82140971E-01 0.26421666E+04</pdfrwt>
<totfact> 0.48787178E-01</totfact>
</mgrwt>
</event>
<event>
 6    1  0.2047711E-005  0.4338257E+04  0.7818608E-02  0.7939582E-01
         -2   -1    0    0    0  501 -0.00000000000E+00  0.00000000000E+00  0.23047495699E+04  0.23047495699E+04  0.00000000000E+00 0.  1.
          2   -1    0    0  501    0  0.00000000000E+00 -0.00000000000E+00 -0.20414880890E+04  0.20414880890E+04  0.00000000000E+00 0. -1.
         23    2    1    2    0    0  0.72452066169E+03 -0.91959926233E+03 -0.16966191338E+04  0.20633173763E+04  0.90383171399E+02 0.  0.
         11    1    3    3    0    0  0.11143735218E+03 -0.11792054702E+03 -0.28646251138E+03  0.32921772324E+03  0.00000000000E+00 0. -1.
        -11    1    3    3    0    0  0.61308330951E+03 -0.80167871531E+03 -0.14101566224E+04  0.17340996531E+04  0.00000000000E+00 0.  1.
         22    1    1    2    0    0 -0.72452066169E+03  0.91959926233E+03  0.19598806147E+04  0.22829202825E+04  0.00000000000E+00 0.  1.
<mgrwt>
<rscale>  0 0.43382572E+04</rscale>
<asrwt>0</asrwt>
<pdfrwt beam="1">  1        2 0.31407509E+00 0.43382572E+04</pdfrwt>
<pdfrwt beam="2">  1       -2 0.35457686E+00 0.43382572E+04</pdfrwt>
<totfact> 0.70780044E-02</totfact>
</mgrwt>
</event>
<event>
 6    1  0.2047711E-005  0.1588765E+04  0.7818608E-02  0.8827480E-01
         -1   -1    0    0    0  501 -0.00000000000E+00  0.00000000000E+00  0.58351577252E+03  0.58351577252E+03  0.00000000000E+00 0. -1.
          1   -1    0    0  501    0  0.00000000000E+00 -0.00000000000E+00 -0.10814504623E+04  0.10814504623E+04  0.00000000000E+00 0.  1.
         23    2    1    2    0    0  0.74803762617E+03  0.24264341866E+03 -0.14652663672E+03  0.80361628357E+03  0.76765598793E+02 0.  0.
         13    1    3    3    0    0  0.24346707720E+03  0.59332336705E+02 -0.77834585288E+02  0.26240191791E+03  0.00000000000E+00 0. -1.
        -13    1    3    3    0    0  0.50457054897E+03  0.18331108195E+03 -0.68692051434E+02  0.54121436565E+03  0.00000000000E+00 0.  1.
         22    1    1    2    0    0 -0.74803762617E+03 -0.24264341866E+03 -0.35140805307E+03  0.86134995127E+03  0.00000000000E+00 0.  1.
<mgrwt>
<rscale>  0 0.15887648E+04</rscale>
<asrwt>0</asrwt>
<pdfrwt beam="1">  1        1 0.16637699E+00 0.15887648E+04</pdfrwt>
<pdfrwt beam="2">  1       -1 0.89771658E-01 0.15887648E+04</pdfrwt>
<totfact> 0.15280271E+01</totfact>
</mgrwt>
</event>
<event>
 6    1  0.2047711E-005  0.1168246E+04  0.7818608E-02  0.9141114E-01
         -2   -1    0    0    0  501 -0.00000000000E+00  0.00000000000E+00  0.15383047210E+03  0.15383047210E+03  0.00000000000E+00 0. -1.
          2   -1    0    0  501    0  0.00000000000E+00 -0.00000000000E+00 -0.22180243200E+04  0.22180243200E+04  0.00000000000E+00 0.  1.
         23    2    1    2    0    0 -0.42034350716E+03  0.39923544847E+03 -0.11093408764E+04  0.12547953467E+04  0.88298214958E+02 0.  0.
         13    1    3    3    0    0 -0.26781416428E+03  0.19756029399E+03 -0.66161275223E+03  0.74059835962E+03  0.00000000000E+00 0.  1.
        -13    1    3    3    0    0 -0.15252934289E+03  0.20167515447E+03 -0.44772812419E+03  0.51419698712E+03  0.00000000000E+00 0. -1.
         22    1    1    2    0    0  0.42034350716E+03 -0.39923544847E+03 -0.95485297150E+03  0.11170594454E+04  0.00000000000E+00 0. -1.
<mgrwt>
<rscale>  0 0.11682461E+04</rscale>
<asrwt>0</asrwt>
<pdfrwt beam="1">  1        2 0.34123449E+00 0.11682461E+04</pdfrwt>
<pdfrwt beam="2">  1       -2 0.23666228E-01 0.11682461E+04</pdfrwt>
<totfact> 0.79294368E+01</totfact>
</mgrwt>
</event>
<event>
 6    1  0.2047711E-005  0.2438395E+04  0.7818608E-02  0.8425267E-01
         -2   -1    0    0    0  501 -0.00000000000E+00  0.00000000000E+00  0.47519520475E+03  0.47519520475E+03  0.00000000000E+00 0.  1.
          2   -1    0    0  501    0  0.00000000000E+00 -0.00000000000E+00 -0.31280666810E+04  0.31280666810E+04  0.00000000000E+00 0. -1.
         23    2    1    2    0    0 -0.64479821877E+03 -0.50336142538E+03  0.40017576993E+01  0.82331353213E+03  0.93229236994E+02 0.  0.
         13    1    3    3    0    0 -0.34430611858E+03 -0.31625275752E+03 -0.24762997184E+02  0.46816206164E+03  0.00000000000E+00 0. -1.
        -13    1    3    3    0    0 -0.30049210019E+03 -0.18710866786E+03  0.28764754884E+02  0.35515147049E+03  0.00000000000E+00 0.  1.
         22    1    1    2    0    0  0.64479821877E+03  0.50336142538E+03 -0.26568732339E+04  0.27799483536E+04  0.00000000000E+00 0. -1.
<mgrwt>
<rscale>  0 0.24383948E+04</rscale>
<asrwt>0</asrwt>
<pdfrwt beam="1">  1        2 0.48124101E+00 0.24383948E+04</pdfrwt>
<pdfrwt beam="2">  1       -2 0.73106957E-01 0.24383948E+04</pdfrwt>
<totfact> 0.21881589E+00</totfact>
</mgrwt>
</event>
<event>
 6    1  0.2047711E-005  0.1306923E+04  0.7818608E-02  0.9024093E-01
         -2   -1    0    0    0  501 -0.00000000000E+00  0.00000000000E+00  0.40850030914E+03  0.40850030914E+03  0.00000000000E+00 0.  1.
          2   -1    0    0  501    0  0.00000000000E+00 -0.00000000000E+00 -0.10453160886E+04  0.10453160886E+04  0.00000000000E+00 0. -1.
         23    2    1    2    0    0  0.46929293471E+03  0.36450976024E+03 -0.25311657317E+02  0.60114968952E+03  0.87390190125E+02 0.  0.
         11    1    3    3    0    0  0.39541266187E+03  0.33157837898E+03  0.11642999156E+01  0.51603948509E+03  0.00000000000E+00 0. -1.
        -11    1    3    3    0    0  0.73880272845E+02  0.32931381261E+02 -0.26475957233E+02  0.85110204434E+02  0.00000000000E+00 0.  1.
         22    1    1    2    0    0 -0.46929293471E+03 -0.36450976024E+03 -0.61150412211E+03  0.85266670818E+03  0.00000000000E+00 0. -1.
<mgrwt>
<rscale>  0 0.13069230E+04</rscale>
<asrwt>0</asrwt>
<pdfrwt beam="1">  1        2 0.16081786E+00 0.13069230E+04</pdfrwt>
<pdfrwt beam="2">  1       -2 0.62846201E-01 0.13069230E+04</pdfrwt>
<totfact> 0.54194087E+01</totfact>
</mgrwt>
</event>
<event>
 6    1  0.2047711E-005  0.2178156E+04  0.7818608E-02  0.8527576E-01
         -1   -1    0    0    0  501 -0.00000000000E+00  0.00000000000E+00  0.56237692310E+03  0.56237692310E+03  0.00000000000E+00 0.  1.
          1   -1    0    0  501    0  0.00000000000E+00 -0.00000000000E+00 -0.21090665348E+04  0.21090665348E+04  0.00000000000E+00 0. -1.
         23    2    1    2    0    0 -0.18348398215E+02  0.68248739195E+03  0.26285277237E+03  0.73738830263E+03  0.92326729716E+02 0.  0.
         11    1    3    3    0    0  0.52878770844E+01  0.63818976707E+03  0.25102843918E+03  0.68580567051E+03  0.00000000000E+00 0. -1.
        -11    1    3    3    0    0 -0.23636275299E+02  0.44297624887E+02  0.11824333196E+02  0.51582632118E+02  0.00000000000E+00 0.  1.
         22    1    1    2    0    0  0.18348398215E+02 -0.68248739195E+03 -0.18095423841E+04  0.19340551553E+04  0.00000000000E+00 0. -1.
<mgrwt>
<rscale>  0 0.21781555E+04</rscale>
<asrwt>0</asrwt>
<pdfrwt beam="1">  1        1 0.32447178E+00 0.21781555E+04</pdfrwt>
<pdfrwt beam="2">  1       -1 0.86519526E-01 0.21781555E+04</pdfrwt>
<totfact> 0.30227724E+00</totfact>
</mgrwt>
</event>
<event>
 6    1  0.2047711E-005  0.1606649E+04  0.7818608E-02  0.8816474E-01
         -2   -1    0    0    0  501 -0.00000000000E+00  0.00000000000E+00  0.47277136877E+03  0.47277136877E+03  0.00000000000E+00 0.  1.
          2   -1    0    0  501    0  0.00000000000E+00 -0.00000000000E+00 -0.13649938057E+04  0.13649938057E+04  0.00000000000E+00 0. -1.
         23    2    1    2    0    0 -0.14626393524E+03  0.17382362790E+03  0.43081697366E+03  0.49536393998E+03  0.90412255092E+02 0.  0.
         13    1    3    3    0    0 -0.15223713194E+03  0.13245065491E+03  0.37199236479E+03  0.42319929087E+03  0.00000000000E+00 0.  1.
        -13    1    3    3    0    0  0.59731967016E+01  0.41372972992E+02  0.58824608869E+02  0.72164649113E+02  0.00000000000E+00 0. -1.
         22    1    1    2    0    0  0.14626393524E+03 -0.17382362790E+03 -0.13230394106E+04  0.13424012345E+04  0.00000000000E+00 0. -1.
<mgrwt>
<rscale>  0 0.16066487E+04</rscale>
<asrwt>0</asrwt>
<pdfrwt beam="1">  1        2 0.20999905E+00 0.16066487E+04</pdfrwt>
<pdfrwt beam="2">  1       -2 0.72734057E-01 0.16066487E+04</pdfrwt>
<totfact> 0.24825741E+01</totfact>
</mgrwt>
</event>
<event>
 6    1  0.2047711E-005  0.3044106E+03  0.7818608E-02  0.1083056E+00
          2   -1    0    0  501    0  0.00000000000E+00  0.00000000000E+00  0.58775177909E+02  0.58775177909E+02  0.00000000000E+00 0. -1.
         -2   -1    0    0    0  501 -0.00000000000E+00 -0.00000000000E+00 -0.39415368431E+03  0.39415368431E+03  0.00000000000E+00 0.  1.
         23    2    1    2    0    0  0.12691774570E+03  0.53285639826E+02 -0.20924574324E+03  0.26622870815E+03  0.90257799626E+02 0.  0.
         11    1    3    3    0    0  0.69676028349E+02  0.14060483126E+02 -0.36156766993E+02  0.79748090332E+02  0.00000000000E+00 0. -1.
        -11    1    3    3    0    0  0.57241717355E+02  0.39225156700E+02 -0.17308897624E+03  0.18648061782E+03  0.00000000000E+00 0.  1.
         22    1    1    2    0    0 -0.12691774570E+03 -0.53285639826E+02 -0.12613276316E+03  0.18670015407E+03  0.00000000000E+00 0.  1.
<mgrwt>
<rscale>  0 0.30441060E+03</rscale>
<asrwt>0</asrwt>
<pdfrwt beam="1">  1        2 0.90423352E-02 0.30441060E+03</pdfrwt>
<pdfrwt beam="2">  1       -2 0.60639027E-01 0.30441060E+03</pdfrwt>
<totfact> 0.18843894E+03</totfact>
</mgrwt>
</event>
<event>
 6    1  0.2047711E-005  0.1973572E+04  0.7818608E-02  0.8619077E-01
         -2   -1    0    0    0  501 -0.00000000000E+00  0.00000000000E+00  0.13991048847E+04  0.13991048847E+04  0.00000000000E+00 0.  1.
          2   -1    0    0  501    0  0.00000000000E+00 -0.00000000000E+00 -0.69597804405E+03  0.69597804405E+03  0.00000000000E+00 0. -1.
         23    2    1    2    0    0 -0.47394759574E+03  0.15115017562E+03  0.12545753830E+04  0.13524065565E+04  0.87013811617E+02 0.  0.
         11    1    3    3    0    0 -0.31206087313E+03  0.10192514857E+03  0.93234206633E+03  0.98844951975E+03  0.00000000000E+00 0.  1.
        -11    1    3    3    0    0 -0.16188672262E+03  0.49225027042E+02  0.32223331665E+03  0.36395703676E+03  0.00000000000E+00 0. -1.
         22    1    1    2    0    0  0.47394759574E+03 -0.15115017562E+03 -0.55144854231E+03  0.74267637226E+03  0.00000000000E+00 0. -1.
<mgrwt>
<rscale>  0 0.19735717E+04</rscale>
<asrwt>0</asrwt>
<pdfrwt beam="1">  1        2 0.10707355E+00 0.19735717E+04</pdfrwt>
<pdfrwt beam="2">  1       -2 0.21524690E+00 0.19735717E+04</pdfrwt>
<totfact> 0.40695825E+00</totfact>
</mgrwt>
</event>
<event>
 6    1  0.2425380E-005  0.3550727E+04  0.7818608E-02  0.8101872E-01
         -2   -1    0    0    0  501 -0.00000000000E+00  0.00000000000E+00  0.23978616333E+04  0.23978616333E+04  0.00000000000E+00 0.  1.
          2   -1    0    0  501    0  0.00000000000E+00 -0.00000000000E+00 -0.13144695735E+04  0.13144695735E+04  0.00000000000E+00 0. -1.
         23    2    1    2    0    0  0.72703542471E+02 -0.13785555517E+04 -0.62302258292E+03  0.15174389209E+04  0.93608362953E+02 0.  0.
         13    1    3    3    0    0  0.65318192737E+01 -0.94821414190E+03 -0.42898991062E+03  0.10407617724E+04  0.00000000000E+00 0. -1.
        -13    1    3    3    0    0  0.66171723198E+02 -0.43034140975E+03 -0.19403267230E+03  0.47667714841E+03  0.00000000000E+00 0.  1.
         22    1    1    2    0    0 -0.72703542471E+02  0.13785555517E+04  0.17064146427E+04  0.21948922860E+04  0.00000000000E+00 0.  1.
<mgrwt>
<rscale>  0 0.35507273E+04</rscale>
<asrwt>0</asrwt>
<pdfrwt beam="1">  1        2 0.20222609E+00 0.35507273E+04</pdfrwt>
<pdfrwt beam="2">  1       -2 0.36890179E+00 0.35507273E+04</pdfrwt>
<totfact> 0.15645984E-01</totfact>
</mgrwt>
</event>
<event>
 6    1  0.2047711E-005  0.1260674E+04  0.7818608E-02  0.9061346E-01
          2   -1    0    0  501    0  0.00000000000E+00  0.00000000000E+00  0.22847811130E+04  0.22847811130E+04  0.00000000000E+00 0. -1.
         -2   -1    0    0    0  501 -0.00000000000E+00 -0.00000000000E+00 -0.17390045958E+03  0.17390045958E+03  0.00000000000E+00 0.  1.
         23    2    1    2    0    0  0.44643021547E+03  0.53358802289E+02  0.19132480875E+04  0.19675545725E+04  0.92766655197E+02 0.  0.
         11    1    3    3    0    0  0.25161478202E+03  0.73295487590E+02  0.11638276262E+04  0.11929698113E+04  0.00000000000E+00 0. -1.
        -11    1    3    3    0    0  0.19481543346E+03 -0.19936685301E+02  0.74942046127E+03  0.77458476121E+03  0.00000000000E+00 0.  1.
         22    1    1    2    0    0 -0.44643021547E+03 -0.53358802289E+02  0.19763256586E+03  0.49112700003E+03  0.00000000000E+00 0.  1.
<mgrwt>
<rscale>  0 0.12606736E+04</rscale>
<asrwt>0</asrwt>
<pdfrwt beam="1">  1        2 0.35150476E+00 0.12606736E+04</pdfrwt>
<pdfrwt beam="2">  1       -2 0.26753919E-01 0.12606736E+04</pdfrwt>
<totfact> 0.57794423E+01</totfact>
</mgrwt>
</event>
<event>
 6    1  0.2047711E-005  0.2300224E+04  0.7818608E-02  0.8477833E-01
         -2   -1    0    0    0  501 -0.00000000000E+00  0.00000000000E+00  0.66492154464E+03  0.66492154464E+03  0.00000000000E+00 0.  1.
          2   -1    0    0  501    0  0.00000000000E+00 -0.00000000000E+00 -0.19893441294E+04  0.19893441294E+04  0.00000000000E+00 0. -1.
         23    2    1    2    0    0  0.37898206175E+02 -0.84873473023E+03 -0.15546998629E+04  0.17740301708E+04  0.91128847939E+02 0.  0.
         11    1    3    3    0    0  0.34802189389E+02 -0.64046416179E+03 -0.10886692517E+04  0.12635688642E+04  0.00000000000E+00 0.  1.
        -11    1    3    3    0    0  0.30960167859E+01 -0.20827056844E+03 -0.46603061118E+03  0.51046130661E+03  0.00000000000E+00 0. -1.
         22    1    1    2    0    0 -0.37898206175E+02  0.84873473023E+03  0.23027727814E+03  0.88023550323E+03  0.00000000000E+00 0.  1.
<mgrwt>
<rscale>  0 0.23002241E+04</rscale>
<asrwt>0</asrwt>
<pdfrwt beam="1">  1        2 0.30605294E+00 0.23002241E+04</pdfrwt>
<pdfrwt beam="2">  1       -2 0.10229562E+00 0.23002241E+04</pdfrwt>
<totfact> 0.48047232E+00</totfact>
</mgrwt>
</event>
<event>
 6    1  0.2047711E-005  0.1350552E+04  0.7818608E-02  0.8990410E-01
         -2   -1    0    0    0  501 -0.00000000000E+00  0.00000000000E+00  0.26959276084E+03  0.26959276084E+03  0.00000000000E+00 0.  1.
          2   -1    0    0  501    0  0.00000000000E+00 -0.00000000000E+00 -0.16914322550E+04  0.16914322550E+04  0.00000000000E+00 0. -1.
         23    2    1    2    0    0 -0.42383557367E+03 -0.12291458758E+03  0.22531365268E+02  0.45074299949E+03  0.88977524261E+02 0.  0.
         11    1    3    3    0    0 -0.40147334470E+03 -0.92603217779E+02  0.14742146311E+02  0.41227846575E+03  0.00000000000E+00 0. -1.
        -11    1    3    3    0    0 -0.22362228968E+02 -0.30311369801E+02  0.77892189575E+01  0.38464533737E+02  0.00000000000E+00 0.  1.
         22    1    1    2    0    0  0.42383557367E+03  0.12291458758E+03 -0.14443708595E+04  0.15102820164E+04  0.00000000000E+00 0. -1.
<mgrwt>
<rscale>  0 0.13505523E+04</rscale>
<asrwt>0</asrwt>
<pdfrwt beam="1">  1        2 0.26022034E+00 0.13505523E+04</pdfrwt>
<pdfrwt beam="2">  1       -2 0.41475810E-01 0.13505523E+04</pdfrwt>
<totfact> 0.53329361E+01</totfact>
</mgrwt>
</event>
<event>
 6    1  0.2047711E-005  0.1828517E+04  0.7818608E-02  0.8691280E-01
         -1   -1    0    0    0  501 -0.00000000000E+00  0.00000000000E+00  0.32381464430E+03  0.32381464430E+03  0.00000000000E+00 0.  1.
          1   -1    0    0  501    0  0.00000000000E+00 -0.00000000000E+00 -0.25813172231E+04  0.25813172231E+04  0.00000000000E+00 0. -1.
         23    2    1    2    0    0 -0.46631468812E+03  0.49224526210E+03 -0.16201030660E+03  0.70266900750E+03  0.87986409411E+02 0.  0.
         13    1    3    3    0    0 -0.12335171118E+03  0.15333691253E+03 -0.97509600721E+01  0.19703536388E+03  0.00000000000E+00 0. -1.
        -13    1    3    3    0    0 -0.34296297694E+03  0.33890834956E+03 -0.15225934653E+03  0.50563364362E+03  0.00000000000E+00 0.  1.
         22    1    1    2    0    0  0.46631468812E+03 -0.49224526210E+03 -0.20954922722E+04  0.22024628599E+04  0.00000000000E+00 0. -1.
<mgrwt>
<rscale>  0 0.18285167E+04</rscale>
<asrwt>0</asrwt>
<pdfrwt beam="1">  1        1 0.39712572E+00 0.18285167E+04</pdfrwt>
<pdfrwt beam="2">  1       -1 0.49817638E-01 0.18285167E+04</pdfrwt>
<totfact> 0.45296970E+00</totfact>
</mgrwt>
</event>
<event>
 6    1  0.2047711E-005  0.2088104E+04  0.7818608E-02  0.8566502E-01
          2   -1    0    0  501    0  0.00000000000E+00  0.00000000000E+00  0.29761727172E+04  0.29761727172E+04  0.00000000000E+00 0. -1.
         -2   -1    0    0    0  501 -0.00000000000E+00 -0.00000000000E+00 -0.36625711334E+03  0.36625711334E+03  0.00000000000E+00 0.  1.
         23    2    1    2    0    0  0.10249030057E+03 -0.85323137785E+03  0.36356946986E+03  0.93731465668E+03  0.88701523939E+02 0.  0.
         11    1    3    3    0    0  0.46396897764E+01 -0.25770475279E+03  0.75502241265E+02  0.26857746511E+03  0.00000000000E+00 0.  1.
        -11    1    3    3    0    0  0.97850610792E+02 -0.59552662506E+03  0.28806722860E+03  0.66873719156E+03  0.00000000000E+00 0. -1.
         22    1    1    2    0    0 -0.10249030057E+03  0.85323137785E+03  0.22463461340E+04  0.24051151739E+04  0.00000000000E+00 0. -1.
<mgrwt>
<rscale>  0 0.20881039E+04</rscale>
<asrwt>0</asrwt>
<pdfrwt beam="1">  1        2 0.45787271E+00 0.20881039E+04</pdfrwt>
<pdfrwt beam="2">  1       -2 0.56347250E-01 0.20881039E+04</pdfrwt>
<totfact> 0.49219812E+00</totfact>
</mgrwt>
</event>
<event>
 6    1  0.2047711E-005  0.2656750E+04  0.7818608E-02  0.8349176E-01
         -2   -1    0    0    0  501 -0.00000000000E+00  0.00000000000E+00  0.11771051035E+04  0.11771051035E+04  0.00000000000E+00 0.  1.
          2   -1    0    0  501    0  0.00000000000E+00 -0.00000000000E+00 -0.14990843107E+04  0.14990843107E+04  0.00000000000E+00 0. -1.
         23    2    1    2    0    0  0.54744524071E+03  0.10907717520E+04  0.36315053533E+03  0.12765887316E+04  0.91220456082E+02 0.  0.
         11    1    3    3    0    0  0.30369805100E+03  0.52825260091E+03  0.21217075946E+03  0.64521294757E+03  0.00000000000E+00 0. -1.
        -11    1    3    3    0    0  0.24374718971E+03  0.56251915112E+03  0.15097977587E+03  0.63137578398E+03  0.00000000000E+00 0.  1.
         22    1    1    2    0    0 -0.54744524071E+03 -0.10907717520E+04 -0.68512974257E+03  0.13996006826E+04  0.00000000000E+00 0. -1.
<mgrwt>
<rscale>  0 0.26567497E+04</rscale>
<asrwt>0</asrwt>
<pdfrwt beam="1">  1        2 0.23062836E+00 0.26567497E+04</pdfrwt>
<pdfrwt beam="2">  1       -2 0.18109309E+00 0.26567497E+04</pdfrwt>
<totfact> 0.19942546E+00</totfact>
</mgrwt>
</event>
<event>
 6    1  0.2047711E-005  0.8137686E+03  0.7818608E-02  0.9540299E-01
         -2   -1    0    0    0  501 -0.00000000000E+00  0.00000000000E+00  0.63791585528E+03  0.63791585528E+03  0.00000000000E+00 0.  1.
          2   -1    0    0  501    0  0.00000000000E+00 -0.00000000000E+00 -0.25952457856E+03  0.25952457856E+03  0.00000000000E+00 0. -1.
         23    2    1    2    0    0  0.34171404361E+03  0.12638012706E+03  0.37840601538E+03  0.53310484084E+03  0.90935332739E+02 0.  0.
         13    1    3    3    0    0  0.24344991615E+03  0.13201600418E+03  0.28565925684E+03  0.39786592974E+03  0.00000000000E+00 0. -1.
        -13    1    3    3    0    0  0.98264127461E+02 -0.56358771131E+01  0.92746758533E+02  0.13523891110E+03  0.00000000000E+00 0.  1.
         22    1    1    2    0    0 -0.34171404361E+03 -0.12638012706E+03 -0.14738654368E-01  0.36433559301E+03  0.00000000000E+00 0. -1.
<mgrwt>
<rscale>  0 0.81376862E+03</rscale>
<asrwt>0</asrwt>
<pdfrwt beam="1">  1        2 0.39926858E-01 0.81376862E+03</pdfrwt>
<pdfrwt beam="2">  1       -2 0.98140900E-01 0.81376862E+03</pdfrwt>
<totfact> 0.11219746E+02</totfact>
</mgrwt>
</event>
<event>
 6    1  0.2047711E-005  0.3427679E+04  0.7818608E-02  0.8131146E-01
         -2   -1    0    0    0  501 -0.00000000000E+00  0.00000000000E+00  0.11867846939E+04  0.11867846939E+04  0.00000000000E+00 0.  1.
          2   -1    0    0  501    0  0.00000000000E+00 -0.00000000000E+00 -0.24749610098E+04  0.24749610098E+04  0.00000000000E+00 0. -1.
         23    2    1    2    0    0  0.11945985368E+03 -0.97055084187E+03  0.85747198447E+03  0.13037706778E+04  0.91215036788E+02 0.  0.
         11    1    3    3    0    0  0.63668020084E+02 -0.73311842551E+03  0.68193979968E+03  0.10032737079E+04  0.00000000000E+00 0. -1.
        -11    1    3    3    0    0  0.55791833594E+02 -0.23743241636E+03  0.17553218479E+03  0.30049696992E+03  0.00000000000E+00 0.  1.
         22    1    1    2    0    0 -0.11945985368E+03  0.97055084187E+03 -0.21456483004E+04  0.23579750258E+04  0.00000000000E+00 0. -1.
<mgrwt>
<rscale>  0 0.34276790E+04</rscale>
<asrwt>0</asrwt>
<pdfrwt beam="1">  1        2 0.38076323E+00 0.34276790E+04</pdfrwt>
<pdfrwt beam="2">  1       -2 0.18258226E+00 0.34276790E+04</pdfrwt>
<totfact> 0.51776091E-01</totfact>
</mgrwt>
</event>
<event>
 6    1  0.2047711E-005  0.1623355E+04  0.7818608E-02  0.8806327E-01
          2   -1    0    0  501    0  0.00000000000E+00  0.00000000000E+00  0.12072673365E+04  0.12072673365E+04  0.00000000000E+00 0.  1.
         -2   -1    0    0    0  501 -0.00000000000E+00 -0.00000000000E+00 -0.54571189990E+03  0.54571189990E+03  0.00000000000E+00 0. -1.
         23    2    1    2    0    0  0.22140996730E+03 -0.47650316408E+03 -0.33261715576E+03  0.62849856408E+03  0.91096837179E+02 0.  0.
         13    1    3    3    0    0  0.93266412008E+02 -0.30363474615E+03 -0.18557907543E+03  0.36787535378E+03  0.00000000000E+00 0. -1.
        -13    1    3    3    0    0  0.12814355529E+03 -0.17286841793E+03 -0.14703808033E+03  0.26062321030E+03  0.00000000000E+00 0.  1.
         22    1    1    2    0    0 -0.22140996730E+03  0.47650316408E+03  0.99417259238E+03  0.11244806723E+04  0.00000000000E+00 0.  1.
<mgrwt>
<rscale>  0 0.16233547E+04</rscale>
<asrwt>0</asrwt>
<pdfrwt beam="1">  1        2 0.18573344E+00 0.16233547E+04</pdfrwt>
<pdfrwt beam="2">  1       -2 0.83955677E-01 0.16233547E+04</pdfrwt>
<totfact> 0.22248535E+01</totfact>
</mgrwt>
</event>
<event>
 6    1  0.2047711E-005  0.3093377E+04  0.7818608E-02  0.8217558E-01
          2   -1    0    0  501    0  0.00000000000E+00  0.00000000000E+00  0.19058689155E+04  0.19058689155E+04  0.00000000000E+00 0.  1.
         -2   -1    0    0    0  501 -0.00000000000E+00 -0.00000000000E+00 -0.12551996968E+04  0.12551996968E+04  0.00000000000E+00 0. -1.
         23    2    1    2    0    0  0.10764140259E+04  0.47003696314E+03 -0.69988026798E+03  0.13712122443E+04  0.10386879948E+03 0.  0.
         11    1    3    3    0    0  0.74599889227E+03  0.32503259015E+03 -0.53958226498E+03  0.97637572308E+03  0.00000000000E+00 0. -1.
        -11    1    3    3    0    0  0.33041513363E+03  0.14500437300E+03 -0.16029800300E+03  0.39483652122E+03  0.00000000000E+00 0.  1.
         22    1    1    2    0    0 -0.10764140259E+04 -0.47003696314E+03  0.13505494867E+04  0.17898563679E+04  0.00000000000E+00 0.  1.
<mgrwt>
<rscale>  0 0.30933775E+04</rscale>
<asrwt>0</asrwt>
<pdfrwt beam="1">  1        2 0.29321060E+00 0.30933775E+04</pdfrwt>
<pdfrwt beam="2">  1       -2 0.19310764E+00 0.30933775E+04</pdfrwt>
<totfact> 0.94601683E-01</totfact>
</mgrwt>
</event>
<event>
 6    1  0.2047711E-005  0.7548326E+03  0.7818608E-02  0.9627799E-01
          2   -1    0    0  501    0  0.00000000000E+00  0.00000000000E+00  0.10273722662E+04  0.10273722662E+04  0.00000000000E+00 0. -1.
         -2   -1    0    0    0  501 -0.00000000000E+00 -0.00000000000E+00 -0.13864796339E+03  0.13864796339E+03  0.00000000000E+00 0.  1.
         23    2    1    2    0    0 -0.24883251707E+03  0.17487691323E+03  0.11992240984E+03  0.33924583051E+03  0.90591350601E+02 0.  0.
         13    1    3    3    0    0 -0.15125116440E+03  0.13904209942E+03  0.42934063202E+02  0.20988795565E+03  0.00000000000E+00 0.  1.
        -13    1    3    3    0    0 -0.97581352666E+02  0.35834813804E+02  0.76988346640E+02  0.12935787485E+03  0.00000000000E+00 0. -1.
         22    1    1    2    0    0  0.24883251707E+03 -0.17487691323E+03  0.76880189296E+03  0.82677439906E+03  0.00000000000E+00 0. -1.
<mgrwt>
<rscale>  0 0.75483262E+03</rscale>
<asrwt>0</asrwt>
<pdfrwt beam="1">  1        2 0.15805727E+00 0.75483262E+03</pdfrwt>
<pdfrwt beam="2">  1       -2 0.21330457E-01 0.75483262E+03</pdfrwt>
<totfact> 0.46363126E+02</totfact>
</mgrwt>
</event>
<event>
 6    1  0.2047711E-005  0.1589348E+04  0.7818608E-02  0.8827119E-01
          1   -1    0    0  501    0  0.00000000000E+00  0.00000000000E+00  0.72879956250E+03  0.72879956250E+03  0.00000000000E+00 0.  1.
         -1   -1    0    0    0  501 -0.00000000000E+00 -0.00000000000E+00 -0.86650264976E+03  0.86650264976E+03  0.00000000000E+00 0. -1.
         23    2    1    2    0    0  0.70514735680E+02  0.26715902174E+03 -0.81401393895E+03  0.86472529026E+03  0.93727605146E+02 0.  0.
         11    1    3    3    0    0  0.56508565530E+02  0.12345424214E+03 -0.51619068766E+03  0.53374806221E+03  0.00000000000E+00 0.  1.
        -11    1    3    3    0    0  0.14006170150E+02  0.14370477960E+03 -0.29782325129E+03  0.33097722805E+03  0.00000000000E+00 0. -1.
         22    1    1    2    0    0 -0.70514735680E+02 -0.26715902174E+03  0.67631085169E+03  0.73057692200E+03  0.00000000000E+00 0.  1.
<mgrwt>
<rscale>  0 0.15893480E+04</rscale>
<asrwt>0</asrwt>
<pdfrwt beam="1">  1        1 0.11212301E+00 0.15893480E+04</pdfrwt>
<pdfrwt beam="2">  1       -1 0.13330810E+00 0.15893480E+04</pdfrwt>
<totfact> 0.11703448E+01</totfact>
</mgrwt>
</event>
<event>
 6    1  0.2047711E-005  0.3064007E+04  0.7818608E-02  0.8225686E-01
         -3   -1    0    0    0  501 -0.00000000000E+00  0.00000000000E+00  0.79614489700E+03  0.79614489700E+03  0.00000000000E+00 0.  1.
          3   -1    0    0  501    0  0.00000000000E+00 -0.00000000000E+00 -0.29479996340E+04  0.29479996340E+04  0.00000000000E+00 0. -1.
         23    2    1    2    0    0  0.23877084792E+03 -0.14644567170E+04 -0.61829372938E+03  0.16102620699E+04  0.94930522344E+02 0.  0.
         13    1    3    3    0    0  0.16877203006E+03 -0.96922608730E+03 -0.36228425611E+03  0.10483954829E+04  0.00000000000E+00 0.  1.
        -13    1    3    3    0    0  0.69998817865E+02 -0.49523062972E+03 -0.25600947327E+03  0.56186658694E+03  0.00000000000E+00 0. -1.
         22    1    1    2    0    0 -0.23877084792E+03  0.14644567170E+04 -0.15335610076E+04  0.21338824611E+04  0.00000000000E+00 0.  1.
<mgrwt>
<rscale>  0 0.30640071E+04</rscale>
<asrwt>0</asrwt>
<pdfrwt beam="1">  1        3 0.45353840E+00 0.30640071E+04</pdfrwt>
<pdfrwt beam="2">  1       -3 0.12248383E+00 0.30640071E+04</pdfrwt>
<totfact> 0.69551662E-03</totfact>
</mgrwt>
</event>
<event>
 6    1  0.2047711E-005  0.1442275E+04  0.7818608E-02  0.8923773E-01
          2   -1    0    0  501    0  0.00000000000E+00  0.00000000000E+00  0.71704061036E+03  0.71704061036E+03  0.00000000000E+00 0. -1.
         -2   -1    0    0    0  501 -0.00000000000E+00 -0.00000000000E+00 -0.72525828573E+03  0.72525828573E+03  0.00000000000E+00 0.  1.
         23    2    1    2    0    0  0.95619472784E+02 -0.53335763744E+03  0.46728511772E+03  0.72138533732E+03  0.91803979603E+02 0.  0.
         13    1    3    3    0    0  0.69734431265E+02 -0.26453149206E+03  0.18220638593E+03  0.32869281750E+03  0.00000000000E+00 0.  1.
        -13    1    3    3    0    0  0.25885041519E+02 -0.26882614537E+03  0.28507873179E+03  0.39269251983E+03  0.00000000000E+00 0. -1.
         22    1    1    2    0    0 -0.95619472784E+02  0.53335763744E+03 -0.47550279309E+03  0.72091355877E+03  0.00000000000E+00 0.  1.
<mgrwt>
<rscale>  0 0.14422755E+04</rscale>
<asrwt>0</asrwt>
<pdfrwt beam="1">  1        2 0.11031394E+00 0.14422755E+04</pdfrwt>
<pdfrwt beam="2">  1       -2 0.11157820E+00 0.14422755E+04</pdfrwt>
<totfact> 0.24473144E+01</totfact>
</mgrwt>
</event>
<event>
 6    1  0.2047711E-005  0.2363981E+04  0.7818608E-02  0.8453113E-01
         -2   -1    0    0    0  501 -0.00000000000E+00  0.00000000000E+00  0.95861776334E+03  0.95861776334E+03  0.00000000000E+00 0.  1.
          2   -1    0    0  501    0  0.00000000000E+00 -0.00000000000E+00 -0.14574129214E+04  0.14574129214E+04  0.00000000000E+00 0. -1.
         23    2    1    2    0    0  0.96628889672E+03  0.65968366298E+03 -0.91437478423E+02  0.11771452799E+04  0.91724753607E+02 0.  0.
         13    1    3    3    0    0  0.51442389995E+03  0.29768063999E+03 -0.58582380287E+02  0.59722492207E+03  0.00000000000E+00 0. -1.
        -13    1    3    3    0    0  0.45186499677E+03  0.36200302299E+03 -0.32855098136E+02  0.57992035784E+03  0.00000000000E+00 0.  1.
         22    1    1    2    0    0 -0.96628889672E+03 -0.65968366298E+03 -0.40735767962E+03  0.12388854048E+04  0.00000000000E+00 0. -1.
<mgrwt>
<rscale>  0 0.23639813E+04</rscale>
<asrwt>0</asrwt>
<pdfrwt beam="1">  1        2 0.22421737E+00 0.23639813E+04</pdfrwt>
<pdfrwt beam="2">  1       -2 0.14747966E+00 0.23639813E+04</pdfrwt>
<totfact> 0.37931696E+00</totfact>
</mgrwt>
</event>
<event>
 6    1  0.2047711E-005  0.5989051E+04  0.7818608E-02  0.7691761E-01
         -2   -1    0    0    0  501 -0.00000000000E+00  0.00000000000E+00  0.18187917510E+04  0.18187917510E+04  0.00000000000E+00 0. -1.
          2   -1    0    0  501    0  0.00000000000E+00 -0.00000000000E+00 -0.49302968884E+04  0.49302968884E+04  0.00000000000E+00 0.  1.
         23    2    1    2    0    0 -0.94444170091E+03 -0.19279632435E+04 -0.39076041723E+04  0.44593755420E+04  0.87449772842E+02 0.  0.
         13    1    3    3    0    0 -0.48750321226E+03 -0.91379451900E+03 -0.18321258191E+04  0.21046056215E+04  0.00000000000E+00 0. -1.
        -13    1    3    3    0    0 -0.45693848865E+03 -0.10141687245E+04 -0.20754783532E+04  0.23547699205E+04  0.00000000000E+00 0.  1.
         22    1    1    2    0    0  0.94444170091E+03  0.19279632435E+04  0.79609903495E+03  0.22897130974E+04  0.00000000000E+00 0. -1.
<mgrwt>
<rscale>  0 0.59890511E+04</rscale>
<asrwt>0</asrwt>
<pdfrwt beam="1">  1        2 0.75850720E+00 0.59890511E+04</pdfrwt>
<pdfrwt beam="2">  1       -2 0.27981412E+00 0.59890511E+04</pdfrwt>
<totfact> 0.11680250E-03</totfact>
</mgrwt>
</event>
<event>
 6    1  0.2047711E-005  0.2310906E+04  0.7818608E-02  0.8473633E-01
         -2   -1    0    0    0  501 -0.00000000000E+00  0.00000000000E+00  0.49956403622E+03  0.49956403622E+03  0.00000000000E+00 0.  1.
          2   -1    0    0  501    0  0.00000000000E+00 -0.00000000000E+00 -0.26724742900E+04  0.26724742900E+04  0.00000000000E+00 0. -1.
         23    2    1    2    0    0 -0.30914253257E+03  0.11010904354E+04 -0.88024273715E+03  0.14460723471E+04  0.91261736096E+02 0.  0.
         11    1    3    3    0    0 -0.22431076523E+03  0.72685396339E+03 -0.53591279126E+03  0.93050229626E+03  0.00000000000E+00 0. -1.
        -11    1    3    3    0    0 -0.84831767334E+02  0.37423647202E+03 -0.34432994589E+03  0.51557005089E+03  0.00000000000E+00 0.  1.
         22    1    1    2    0    0  0.30914253257E+03 -0.11010904354E+04 -0.12926675167E+04  0.17259659791E+04  0.00000000000E+00 0.  1.
<mgrwt>
<rscale>  0 0.23109064E+04</rscale>
<asrwt>0</asrwt>
<pdfrwt beam="1">  1        2 0.41114989E+00 0.23109064E+04</pdfrwt>
<pdfrwt beam="2">  1       -2 0.76856006E-01 0.23109064E+04</pdfrwt>
<totfact> 0.37778805E+00</totfact>
</mgrwt>
</event>
<event>
 6    1  0.2047711E-005  0.2595724E+04  0.7818608E-02  0.8369655E-01
          2   -1    0    0  501    0  0.00000000000E+00  0.00000000000E+00  0.20068925204E+04  0.20068925204E+04  0.00000000000E+00 0. -1.
         -2   -1    0    0    0  501 -0.00000000000E+00 -0.00000000000E+00 -0.83933057906E+03  0.83933057906E+03  0.00000000000E+00 0.  1.
         23    2    1    2    0    0  0.70544801778E+03  0.69925049194E+03 -0.32859408520E+03  0.10503692602E+04  0.93238155511E+02 0.  0.
         13    1    3    3    0    0  0.40782543766E+03  0.46765561589E+03 -0.20838830547E+03  0.65456019473E+03  0.00000000000E+00 0.  1.
        -13    1    3    3    0    0  0.29762258013E+03  0.23159487605E+03 -0.12020577973E+03  0.39580906545E+03  0.00000000000E+00 0. -1.
         22    1    1    2    0    0 -0.70544801778E+03 -0.69925049194E+03  0.14961560265E+04  0.17958538392E+04  0.00000000000E+00 0. -1.
<mgrwt>
<rscale>  0 0.25957244E+04</rscale>
<asrwt>0</asrwt>
<pdfrwt beam="1">  1        2 0.30875269E+00 0.25957244E+04</pdfrwt>
<pdfrwt beam="2">  1       -2 0.12912778E+00 0.25957244E+04</pdfrwt>
<totfact> 0.25888451E+00</totfact>
</mgrwt>
</event>
<event>
 6    1  0.2047711E-005  0.1326772E+04  0.7818608E-02  0.9008600E-01
          2   -1    0    0  501    0  0.00000000000E+00  0.00000000000E+00  0.16628395272E+04  0.16628395272E+04  0.00000000000E+00 0. -1.
         -2   -1    0    0    0  501 -0.00000000000E+00 -0.00000000000E+00 -0.26465613128E+03  0.26465613128E+03  0.00000000000E+00 0.  1.
         23    2    1    2    0    0 -0.18611190964E+02 -0.46170123592E+03  0.13882264368E+04  0.14653122006E+04  0.80329308826E+02 0.  0.
         11    1    3    3    0    0 -0.99968631589E+01 -0.15361789057E+03  0.58705703531E+03  0.60690555796E+03  0.00000000000E+00 0. -1.
        -11    1    3    3    0    0 -0.86143278048E+01 -0.30808334534E+03  0.80116940148E+03  0.85840664268E+03  0.00000000000E+00 0.  1.
         22    1    1    2    0    0  0.18611190964E+02  0.46170123592E+03  0.99569591274E+01  0.46218345785E+03  0.00000000000E+00 0.  1.
<mgrwt>
<rscale>  0 0.13267715E+04</rscale>
<asrwt>0</asrwt>
<pdfrwt beam="1">  1        2 0.25582146E+00 0.13267715E+04</pdfrwt>
<pdfrwt beam="2">  1       -2 0.40716329E-01 0.13267715E+04</pdfrwt>
<totfact> 0.57466130E+01</totfact>
</mgrwt>
</event>
<event>
 6    1  0.2047711E-005  0.9277094E+03  0.7818608E-02  0.9391591E-01
         -2   -1    0    0    0  501 -0.00000000000E+00  0.00000000000E+00  0.69161757806E+03  0.69161757806E+03  0.00000000000E+00 0.  1.
          2   -1    0    0  501    0  0.00000000000E+00 -0.00000000000E+00 -0.31109846666E+03  0.31109846666E+03  0.00000000000E+00 0. -1.
         23    2    1    2    0    0 -0.60388328236E+02  0.14003490290E+03  0.66053303805E+03  0.68386761155E+03  0.90080472610E+02 0.  0.
         11    1    3    3    0    0 -0.36020108498E+02  0.86368060613E+01  0.23326861804E+03  0.23619121660E+03  0.00000000000E+00 0.  1.
        -11    1    3    3    0    0 -0.24368219738E+02  0.13139809684E+03  0.42726442001E+03  0.44767639495E+03  0.00000000000E+00 0. -1.
         22    1    1    2    0    0  0.60388328236E+02 -0.14003490290E+03 -0.28001392666E+03  0.31884843318E+03  0.00000000000E+00 0. -1.
<mgrwt>
<rscale>  0 0.92770937E+03</rscale>
<asrwt>0</asrwt>
<pdfrwt beam="1">  1        2 0.47861303E-01 0.92770937E+03</pdfrwt>
<pdfrwt beam="2">  1       -2 0.10640270E+00 0.92770937E+03</pdfrwt>
<totfact> 0.75210094E+01</totfact>
</mgrwt>
</event>
<event>
 6    1  0.2047711E-005  0.4133910E+04  0.7818608E-02  0.7978064E-01
         -1   -1    0    0    0  501 -0.00000000000E+00  0.00000000000E+00  0.18249482986E+04  0.18249482986E+04  0.00000000000E+00 0.  1.
          1   -1    0    0  501    0  0.00000000000E+00 -0.00000000000E+00 -0.23410536928E+04  0.23410536928E+04  0.00000000000E+00 0. -1.
         23    2    1    2    0    0  0.19953834855E+04 -0.42576741070E+03  0.68646204424E+02  0.20435582173E+04  0.92653891039E+02 0.  0.
         13    1    3    3    0    0  0.23582474278E+03 -0.63906897552E+02  0.35291244337E+02  0.24686610295E+03  0.00000000000E+00 0.  1.
        -13    1    3    3    0    0  0.17595587428E+04 -0.36186051314E+03  0.33354960086E+02  0.17966921143E+04  0.00000000000E+00 0. -1.
         22    1    1    2    0    0 -0.19953834855E+04  0.42576741070E+03 -0.58475159855E+03  0.21224437741E+04  0.00000000000E+00 0. -1.
<mgrwt>
<rscale>  0 0.41339095E+04</rscale>
<asrwt>0</asrwt>
<pdfrwt beam="1">  1        1 0.36016211E+00 0.41339095E+04</pdfrwt>
<pdfrwt beam="2">  1       -1 0.28076128E+00 0.41339095E+04</pdfrwt>
<totfact> 0.59423229E-02</totfact>
</mgrwt>
</event>
<event>
 6    1  0.2153199E-005  0.3273440E+04  0.7818608E-02  0.8169687E-01
          2   -1    0    0  501    0  0.00000000000E+00  0.00000000000E+00  0.15196161324E+04  0.15196161324E+04  0.00000000000E+00 0.  1.
         -2   -1    0    0    0  501 -0.00000000000E+00 -0.00000000000E+00 -0.17628475392E+04  0.17628475392E+04  0.00000000000E+00 0. -1.
         23    2    1    2    0    0 -0.32015865080E+03 -0.34066835413E+03  0.14498334953E+04  0.15260396762E+04  0.90683184794E+02 0.  0.
         13    1    3    3    0    0 -0.13066025671E+03 -0.18467654071E+03  0.80101884281E+03  0.83235131640E+03  0.00000000000E+00 0. -1.
        -13    1    3    3    0    0 -0.18949839409E+03 -0.15599181341E+03  0.64881465246E+03  0.69368835976E+03  0.00000000000E+00 0.  1.
         22    1    1    2    0    0  0.32015865080E+03  0.34066835413E+03 -0.16930649020E+04  0.17564239954E+04  0.00000000000E+00 0. -1.
<mgrwt>
<rscale>  0 0.32734395E+04</rscale>
<asrwt>0</asrwt>
<pdfrwt beam="1">  1        2 0.23378710E+00 0.32734395E+04</pdfrwt>
<pdfrwt beam="2">  1       -2 0.27120731E+00 0.32734395E+04</pdfrwt>
<totfact> 0.49353011E-01</totfact>
</mgrwt>
</event>
<event>
 6    1  0.2047711E-005  0.2630997E+04  0.7818608E-02  0.8357748E-01
         -2   -1    0    0    0  501 -0.00000000000E+00  0.00000000000E+00  0.10236111872E+04  0.10236111872E+04  0.00000000000E+00 0.  1.
          2   -1    0    0  501    0  0.00000000000E+00 -0.00000000000E+00 -0.16906185369E+04  0.16906185369E+04  0.00000000000E+00 0. -1.
         23    2    1    2    0    0  0.33563042197E+03  0.52632920601E+02  0.97546132399E+03  0.10369935009E+04  0.91720890616E+02 0.  0.
         13    1    3    3    0    0  0.24242279313E+03  0.57208786925E+01  0.75700922401E+03  0.79489905291E+03  0.00000000000E+00 0.  1.
        -13    1    3    3    0    0  0.93207628838E+02  0.46912041908E+02  0.21845209998E+03  0.24209444797E+03  0.00000000000E+00 0. -1.
         22    1    1    2    0    0 -0.33563042197E+03 -0.52632920601E+02 -0.16424686737E+04  0.16772362233E+04  0.00000000000E+00 0. -1.
<mgrwt>
<rscale>  0 0.26309968E+04</rscale>
<asrwt>0</asrwt>
<pdfrwt beam="1">  1        2 0.26009516E+00 0.26309968E+04</pdfrwt>
<pdfrwt beam="2">  1       -2 0.15747864E+00 0.26309968E+04</pdfrwt>
<totfact> 0.23036035E+00</totfact>
</mgrwt>
</event>
<event>
 6    1  0.2047711E-005  0.3019568E+04  0.7818608E-02  0.8238165E-01
          2   -1    0    0  501    0  0.00000000000E+00  0.00000000000E+00  0.23502683364E+04  0.23502683364E+04  0.00000000000E+00 0. -1.
         -2   -1    0    0    0  501 -0.00000000000E+00 -0.00000000000E+00 -0.96986707194E+03  0.96986707194E+03  0.00000000000E+00 0.  1.
         23    2    1    2    0    0  0.26977331463E+03 -0.13144298095E+04 -0.67023062291E+02  0.13464230313E+04  0.88653951162E+02 0.  0.
         11    1    3    3    0    0  0.19638117047E+03 -0.89600109487E+03 -0.85199468059E+02  0.92121793050E+03  0.00000000000E+00 0. -1.
        -11    1    3    3    0    0  0.73392144165E+02 -0.41842871463E+03  0.18176405768E+02  0.42520510084E+03  0.00000000000E+00 0.  1.
         22    1    1    2    0    0 -0.26977331463E+03  0.13144298095E+04  0.14474243267E+04  0.19737123770E+04  0.00000000000E+00 0. -1.
<mgrwt>
<rscale>  0 0.30195681E+04</rscale>
<asrwt>0</asrwt>
<pdfrwt beam="1">  1        2 0.36157974E+00 0.30195681E+04</pdfrwt>
<pdfrwt beam="2">  1       -2 0.14921032E+00 0.30195681E+04</pdfrwt>
<totfact> 0.11020993E+00</totfact>
</mgrwt>
</event>
<event>
 6    1  0.2047711E-005  0.4124644E+04  0.7818608E-02  0.7979863E-01
          2   -1    0    0  501    0  0.00000000000E+00  0.00000000000E+00  0.40914066499E+04  0.40914066499E+04  0.00000000000E+00 0. -1.
         -2   -1    0    0    0  501 -0.00000000000E+00 -0.00000000000E+00 -0.10395376454E+04  0.10395376454E+04  0.00000000000E+00 0.  1.
         23    2    1    2    0    0 -0.15612875554E+04  0.40762396131E+03 -0.68899853436E+02  0.16176873464E+04  0.91591683787E+02 0.  0.
         11    1    3    3    0    0 -0.11105791355E+04  0.33236206627E+03 -0.45394179068E+02  0.11601341262E+04  0.00000000000E+00 0.  1.
        -11    1    3    3    0    0 -0.45070841986E+03  0.75261895039E+02 -0.23505674367E+02  0.45755322019E+03  0.00000000000E+00 0. -1.
         22    1    1    2    0    0  0.15612875554E+04 -0.40762396131E+03  0.31207688580E+04  0.35132569489E+04  0.00000000000E+00 0.  1.
<mgrwt>
<rscale>  0 0.41246436E+04</rscale>
<asrwt>0</asrwt>
<pdfrwt beam="1">  1        2 0.62944717E+00 0.41246436E+04</pdfrwt>
<pdfrwt beam="2">  1       -2 0.15992887E+00 0.41246436E+04</pdfrwt>
<totfact> 0.56425809E-02</totfact>
</mgrwt>
</event>
<event>
 6    1  0.2047711E-005  0.1849612E+04  0.7818608E-02  0.8680352E-01
         -2   -1    0    0    0  501 -0.00000000000E+00  0.00000000000E+00  0.51781651804E+03  0.51781651804E+03  0.00000000000E+00 0.  1.
          2   -1    0    0  501    0  0.00000000000E+00 -0.00000000000E+00 -0.16516776918E+04  0.16516776918E+04  0.00000000000E+00 0. -1.
         23    2    1    2    0    0  0.33375972746E+03 -0.56449968609E+02  0.43826447193E+03  0.56133961513E+03  0.91892663094E+02 0.  0.
         11    1    3    3    0    0  0.23775924949E+03 -0.61409312595E+00  0.27040886493E+03  0.36007053762E+03  0.00000000000E+00 0. -1.
        -11    1    3    3    0    0  0.96000477966E+02 -0.55835875483E+02  0.16785560700E+03  0.20126907751E+03  0.00000000000E+00 0.  1.
         22    1    1    2    0    0 -0.33375972746E+03  0.56449968609E+02 -0.15721256457E+04  0.16081545947E+04  0.00000000000E+00 0. -1.
<mgrwt>
<rscale>  0 0.18496118E+04</rscale>
<asrwt>0</asrwt>
<pdfrwt beam="1">  1        2 0.25410426E+00 0.18496118E+04</pdfrwt>
<pdfrwt beam="2">  1       -2 0.79664080E-01 0.18496118E+04</pdfrwt>
<totfact> 0.13690967E+01</totfact>
</mgrwt>
</event>
<event>
 6    1  0.2047711E-005  0.1654048E+04  0.7818608E-02  0.8788015E-01
          2   -1    0    0  501    0  0.00000000000E+00  0.00000000000E+00  0.71929793152E+03  0.71929793152E+03  0.00000000000E+00 0. -1.
         -2   -1    0    0    0  501 -0.00000000000E+00 -0.00000000000E+00 -0.95088392372E+03  0.95088392372E+03  0.00000000000E+00 0.  1.
         23    2    1    2    0    0  0.37214198052E+03 -0.53938160216E+03  0.38900634362E+03  0.76765373174E+03  0.92434571786E+02 0.  0.
         13    1    3    3    0    0  0.24179771042E+03 -0.32781802982E+03  0.29062810680E+03  0.50039533361E+03  0.00000000000E+00 0. -1.
        -13    1    3    3    0    0  0.13034427010E+03 -0.21156357234E+03  0.98378236822E+02  0.26725839812E+03  0.00000000000E+00 0.  1.
         22    1    1    2    0    0 -0.37214198052E+03  0.53938160216E+03 -0.62059233583E+03  0.90252812350E+03  0.00000000000E+00 0.  1.
<mgrwt>
<rscale>  0 0.16540482E+04</rscale>
<asrwt>0</asrwt>
<pdfrwt beam="1">  1        2 0.11066122E+00 0.16540482E+04</pdfrwt>
<pdfrwt beam="2">  1       -2 0.14628983E+00 0.16540482E+04</pdfrwt>
<totfact> 0.12093299E+01</totfact>
</mgrwt>
</event>
<event>
 6    1  0.2047711E-005  0.4588631E+04  0.7818608E-02  0.7895301E-01
          2   -1    0    0  501    0  0.00000000000E+00  0.00000000000E+00  0.17247903618E+04  0.17247903618E+04  0.00000000000E+00 0. -1.
         -2   -1    0    0    0  501 -0.00000000000E+00 -0.00000000000E+00 -0.30518976070E+04  0.30518976070E+04  0.00000000000E+00 0.  1.
         23    2    1    2    0    0  0.34565530660E+03  0.14879999450E+04 -0.24445202633E+04  0.28840091053E+04  0.90596769258E+02 0.  0.
         11    1    3    3    0    0  0.19869304972E+03  0.89716556618E+03 -0.13878229737E+04  0.16644631530E+04  0.00000000000E+00 0. -1.
        -11    1    3    3    0    0  0.14696225688E+03  0.59083437879E+03 -0.10566972895E+04  0.12195459523E+04  0.00000000000E+00 0.  1.
         22    1    1    2    0    0 -0.34565530660E+03 -0.14879999450E+04  0.11174130181E+04  0.18926788635E+04  0.00000000000E+00 0. -1.
<mgrwt>
<rscale>  0 0.45886310E+04</rscale>
<asrwt>0</asrwt>
<pdfrwt beam="1">  1        2 0.26535237E+00 0.45886310E+04</pdfrwt>
<pdfrwt beam="2">  1       -2 0.46952271E+00 0.45886310E+04</pdfrwt>
<totfact> 0.18504870E-02</totfact>
</mgrwt>
</event>
<event>
 6    1  0.2048155E-005  0.3958202E+04  0.7818608E-02  0.8013032E-01
         -2   -1    0    0    0  501 -0.00000000000E+00  0.00000000000E+00  0.19027875662E+04  0.19027875662E+04  0.00000000000E+00 0.  1.
          2   -1    0    0  501    0  0.00000000000E+00 -0.00000000000E+00 -0.20584750544E+04  0.20584750544E+04  0.00000000000E+00 0. -1.
         23    2    1    2    0    0 -0.18732318715E+02 -0.12460375997E+04  0.14596081507E+04  0.19211301248E+04  0.85582727566E+02 0.  0.
         11    1    3    3    0    0  0.16426156660E+02 -0.84943599729E+03  0.10350851238E+04  0.13391088625E+04  0.00000000000E+00 0.  1.
        -11    1    3    3    0    0 -0.35158475375E+02 -0.39660160236E+03  0.42452302696E+03  0.58202126234E+03  0.00000000000E+00 0. -1.
         22    1    1    2    0    0  0.18732318715E+02  0.12460375997E+04 -0.16152956389E+04  0.20401324959E+04  0.00000000000E+00 0. -1.
<mgrwt>
<rscale>  0 0.39582020E+04</rscale>
<asrwt>0</asrwt>
<pdfrwt beam="1">  1        2 0.31668847E+00 0.39582020E+04</pdfrwt>
<pdfrwt beam="2">  1       -2 0.29273655E+00 0.39582020E+04</pdfrwt>
<totfact> 0.17274192E-01</totfact>
</mgrwt>
</event>
<event>
 6    1  0.2047711E-005  0.3547107E+04  0.7818608E-02  0.8102716E-01
         -2   -1    0    0    0  501 -0.00000000000E+00  0.00000000000E+00  0.12251478140E+04  0.12251478140E+04  0.00000000000E+00 0.  1.
          2   -1    0    0  501    0  0.00000000000E+00 -0.00000000000E+00 -0.25674384200E+04  0.25674384200E+04  0.00000000000E+00 0. -1.
         23    2    1    2    0    0  0.81855518459E+03 -0.27345175956E+03 -0.23268211020E+04  0.24833464726E+04  0.90026702929E+02 0.  0.
         13    1    3    3    0    0  0.56397575071E+03 -0.23099784566E+03 -0.16563047363E+04  0.17648722423E+04  0.00000000000E+00 0. -1.
        -13    1    3    3    0    0  0.25457943388E+03 -0.42453913897E+02 -0.67051636573E+03  0.71847423035E+03  0.00000000000E+00 0.  1.
         22    1    1    2    0    0 -0.81855518459E+03  0.27345175956E+03  0.98453049600E+03  0.13092397613E+04  0.00000000000E+00 0.  1.
<mgrwt>
<rscale>  0 0.35471067E+04</rscale>
<asrwt>0</asrwt>
<pdfrwt beam="1">  1        2 0.39499052E+00 0.35471067E+04</pdfrwt>
<pdfrwt beam="2">  1       -2 0.18848428E+00 0.35471067E+04</pdfrwt>
<totfact> 0.41299614E-01</totfact>
</mgrwt>
</event>
<event>
 6    1  0.2047711E-005  0.1739289E+04  0.7818608E-02  0.8739268E-01
         -2   -1    0    0    0  501 -0.00000000000E+00  0.00000000000E+00  0.23726481087E+03  0.23726481087E+03  0.00000000000E+00 0.  1.
          2   -1    0    0  501    0  0.00000000000E+00 -0.00000000000E+00 -0.31875016981E+04  0.31875016981E+04  0.00000000000E+00 0. -1.
         23    2    1    2    0    0 -0.64921407386E+03 -0.20208111483E+03 -0.41940907143E+03  0.80419307480E+03  0.92232541390E+02 0.  0.
         13    1    3    3    0    0 -0.30003147914E+03 -0.79851037369E+02 -0.14000836186E+03  0.34058393684E+03  0.00000000000E+00 0. -1.
        -13    1    3    3    0    0 -0.34918259472E+03 -0.12223007746E+03 -0.27940070957E+03  0.46360913796E+03  0.00000000000E+00 0.  1.
         22    1    1    2    0    0  0.64921407386E+03  0.20208111483E+03 -0.25308278158E+04  0.26205734342E+04  0.00000000000E+00 0. -1.
<mgrwt>
<rscale>  0 0.17392895E+04</rscale>
<asrwt>0</asrwt>
<pdfrwt beam="1">  1        2 0.49038485E+00 0.17392895E+04</pdfrwt>
<pdfrwt beam="2">  1       -2 0.36502281E-01 0.17392895E+04</pdfrwt>
<totfact> 0.89106103E+00</totfact>
</mgrwt>
</event>
<event>
 6    1  0.2047711E-005  0.1161751E+04  0.7818608E-02  0.9147010E-01
          1   -1    0    0  501    0  0.00000000000E+00  0.00000000000E+00  0.83181658914E+03  0.83181658914E+03  0.00000000000E+00 0. -1.
         -1   -1    0    0    0  501 -0.00000000000E+00 -0.00000000000E+00 -0.40563806053E+03  0.40563806053E+03  0.00000000000E+00 0.  1.
         23    2    1    2    0    0  0.54600133926E+03  0.17076960595E+03  0.29774661564E+03  0.65113180596E+03  0.89665270952E+02 0.  0.
         11    1    3    3    0    0  0.51928230709E+03  0.17152402549E+03  0.26173354747E+03  0.60628298314E+03  0.00000000000E+00 0.  1.
        -11    1    3    3    0    0  0.26719032177E+02 -0.75441954166E+00  0.36013068172E+02  0.44848822822E+02  0.00000000000E+00 0. -1.
         22    1    1    2    0    0 -0.54600133926E+03 -0.17076960595E+03  0.12843191297E+03  0.58632284371E+03  0.00000000000E+00 0.  1.
<mgrwt>
<rscale>  0 0.11617512E+04</rscale>
<asrwt>0</asrwt>
<pdfrwt beam="1">  1        1 0.12797178E+00 0.11617512E+04</pdfrwt>
<pdfrwt beam="2">  1       -1 0.62405856E-01 0.11617512E+04</pdfrwt>
<totfact> 0.53645103E+01</totfact>
</mgrwt>
</event>
<event>
 6    1  0.2047711E-005  0.2482786E+04  0.7818608E-02  0.8409144E-01
          2   -1    0    0  501    0  0.00000000000E+00  0.00000000000E+00  0.14336091631E+04  0.14336091631E+04  0.00000000000E+00 0. -1.
         -2   -1    0    0    0  501 -0.00000000000E+00 -0.00000000000E+00 -0.10749486349E+04  0.10749486349E+04  0.00000000000E+00 0.  1.
         23    2    1    2    0    0  0.91191933144E+03  0.38623923612E+03 -0.57381064629E+03  0.11483077820E+04  0.92598541566E+02 0.  0.
         13    1    3    3    0    0  0.75070178297E+03  0.29433757247E+03 -0.43214820655E+03  0.91484416484E+03  0.00000000000E+00 0. -1.
        -13    1    3    3    0    0  0.16121754846E+03  0.91901663651E+02 -0.14166243974E+03  0.23346361718E+03  0.00000000000E+00 0.  1.
         22    1    1    2    0    0 -0.91191933144E+03 -0.38623923612E+03  0.93247117456E+03  0.13602500160E+04  0.00000000000E+00 0. -1.
<mgrwt>
<rscale>  0 0.24827857E+04</rscale>
<asrwt>0</asrwt>
<pdfrwt beam="1">  1        2 0.22055526E+00 0.24827857E+04</pdfrwt>
<pdfrwt beam="2">  1       -2 0.16537671E+00 0.24827857E+04</pdfrwt>
<totfact> 0.28452054E+00</totfact>
</mgrwt>
</event>
<event>
 6    1  0.2047711E-005  0.2216918E+04  0.7818608E-02  0.8511419E-01
          2   -1    0    0  501    0  0.00000000000E+00  0.00000000000E+00  0.20383607796E+04  0.20383607796E+04  0.00000000000E+00 0. -1.
         -2   -1    0    0    0  501 -0.00000000000E+00 -0.00000000000E+00 -0.60277907995E+03  0.60277907995E+03  0.00000000000E+00 0.  1.
         23    2    1    2    0    0 -0.20131195431E+03 -0.10126596366E+04  0.24306802234E+03  0.10637702411E+04  0.80740447307E+02 0.  0.
         13    1    3    3    0    0 -0.68781272997E+02 -0.45908996135E+03  0.14371630616E+03  0.48595147163E+03  0.00000000000E+00 0. -1.
        -13    1    3    3    0    0 -0.13253068131E+03 -0.55356967526E+03  0.99351716180E+02  0.57781876948E+03  0.00000000000E+00 0.  1.
         22    1    1    2    0    0  0.20131195431E+03  0.10126596366E+04  0.11925136773E+04  0.15773696184E+04  0.00000000000E+00 0. -1.
<mgrwt>
<rscale>  0 0.22169179E+04</rscale>
<asrwt>0</asrwt>
<pdfrwt beam="1">  1        2 0.31359396E+00 0.22169179E+04</pdfrwt>
<pdfrwt beam="2">  1       -2 0.92735244E-01 0.22169179E+04</pdfrwt>
<totfact> 0.57235740E+00</totfact>
</mgrwt>
</event>
<event>
 6    1  0.2047711E-005  0.2477892E+04  0.7818608E-02  0.8410904E-01
          2   -1    0    0  501    0  0.00000000000E+00  0.00000000000E+00  0.14708429111E+04  0.14708429111E+04  0.00000000000E+00 0.  1.
         -2   -1    0    0    0  501 -0.00000000000E+00 -0.00000000000E+00 -0.10436108101E+04  0.10436108101E+04  0.00000000000E+00 0. -1.
         23    2    1    2    0    0  0.25171995538E+03  0.11941458748E+04  0.41993840691E+03  0.12940437475E+04  0.94093829058E+02 0.  0.
         13    1    3    3    0    0  0.74638041281E+02  0.18589484277E+03  0.70405179224E+02  0.21233138966E+03  0.00000000000E+00 0.  1.
        -13    1    3    3    0    0  0.17708191410E+03  0.10082510320E+04  0.34953322768E+03  0.10817123578E+04  0.00000000000E+00 0. -1.
         22    1    1    2    0    0 -0.25171995538E+03 -0.11941458748E+04  0.72936941077E+01  0.12204099738E+04  0.00000000000E+00 0.  1.
<mgrwt>
<rscale>  0 0.24778923E+04</rscale>
<asrwt>0</asrwt>
<pdfrwt beam="1">  1        2 0.22628353E+00 0.24778923E+04</pdfrwt>
<pdfrwt beam="2">  1       -2 0.16055551E+00 0.24778923E+04</pdfrwt>
<totfact> 0.29401837E+00</totfact>
</mgrwt>
</event>
<event>
 6    1  0.2047711E-005  0.4419679E+04  0.7818608E-02  0.7924852E-01
         -2   -1    0    0    0  501 -0.00000000000E+00  0.00000000000E+00  0.12670999233E+04  0.12670999233E+04  0.00000000000E+00 0.  1.
          2   -1    0    0  501    0  0.00000000000E+00 -0.00000000000E+00 -0.38539896496E+04  0.38539896496E+04  0.00000000000E+00 0. -1.
         23    2    1    2    0    0 -0.20535707131E+04 -0.64442874683E+03 -0.18698218118E+04  0.28524716064E+04  0.88991987544E+02 0.  0.
         13    1    3    3    0    0 -0.40492262782E+03 -0.90998143469E+02 -0.35128457440E+03  0.54373141242E+03  0.00000000000E+00 0.  1.
        -13    1    3    3    0    0 -0.16486480853E+04 -0.55343060336E+03 -0.15185372374E+04  0.23087401940E+04  0.00000000000E+00 0. -1.
         22    1    1    2    0    0  0.20535707131E+04  0.64442874683E+03 -0.71706791453E+03  0.22686179664E+04  0.00000000000E+00 0.  1.
<mgrwt>
<rscale>  0 0.44196787E+04</rscale>
<asrwt>0</asrwt>
<pdfrwt beam="1">  1        2 0.59292148E+00 0.44196787E+04</pdfrwt>
<pdfrwt beam="2">  1       -2 0.19493845E+00 0.44196787E+04</pdfrwt>
<totfact> 0.48745680E-02</totfact>
</mgrwt>
</event>
<event>
 6    1  0.2047711E-005  0.1190250E+04  0.7818608E-02  0.9121434E-01
         -2   -1    0    0    0  501 -0.00000000000E+00  0.00000000000E+00  0.17603289895E+03  0.17603289895E+03  0.00000000000E+00 0.  1.
          2   -1    0    0  501    0  0.00000000000E+00 -0.00000000000E+00 -0.20119732032E+04  0.20119732032E+04  0.00000000000E+00 0. -1.
         23    2    1    2    0    0  0.42643739241E+03  0.67525084592E+02 -0.16669340530E+04  0.17243558033E+04  0.91243151013E+02 0.  0.
         13    1    3    3    0    0  0.21454535800E+03  0.70485415449E+02 -0.75050006543E+03  0.78373991391E+03  0.00000000000E+00 0. -1.
        -13    1    3    3    0    0  0.21189203440E+03 -0.29603308569E+01 -0.91643398756E+03  0.94061588938E+03  0.00000000000E+00 0.  1.
         22    1    1    2    0    0 -0.42643739241E+03 -0.67525084592E+02 -0.16900625128E+03  0.46365029889E+03  0.00000000000E+00 0.  1.
<mgrwt>
<rscale>  0 0.11902495E+04</rscale>
<asrwt>0</asrwt>
<pdfrwt beam="1">  1        2 0.30953433E+00 0.11902495E+04</pdfrwt>
<pdfrwt beam="2">  1       -2 0.27081985E-01 0.11902495E+04</pdfrwt>
<totfact> 0.80648577E+01</totfact>
</mgrwt>
</event>
<event>
 6    1  0.2047711E-005  0.2968940E+04  0.7818608E-02  0.8252656E-01
         -4   -1    0    0    0  501 -0.00000000000E+00  0.00000000000E+00  0.17652456896E+04  0.17652456896E+04  0.00000000000E+00 0.  1.
          4   -1    0    0  501    0  0.00000000000E+00 -0.00000000000E+00 -0.12483539270E+04  0.12483539270E+04  0.00000000000E+00 0. -1.
         23    2    1    2    0    0  0.30910617802E+03 -0.13519821008E+04  0.79246607552E+03  0.15996182052E+04  0.85870200891E+02 0.  0.
         11    1    3    3    0    0  0.22079425436E+03 -0.81922668169E+03  0.51427842102E+03  0.99215157767E+03  0.00000000000E+00 0.  1.
        -11    1    3    3    0    0  0.88311923663E+02 -0.53275541908E+03  0.27818765450E+03  0.60746662751E+03  0.00000000000E+00 0. -1.
         22    1    1    2    0    0 -0.30910617802E+03  0.13519821008E+04 -0.27557431289E+03  0.14139814115E+04  0.00000000000E+00 0. -1.
<mgrwt>
<rscale>  0 0.29689401E+04</rscale>
<asrwt>0</asrwt>
<pdfrwt beam="1">  1        4 0.19205445E+00 0.29689401E+04</pdfrwt>
<pdfrwt beam="2">  1       -4 0.27157626E+00 0.29689401E+04</pdfrwt>
<totfact> 0.11752624E-02</totfact>
</mgrwt>
</event>
<event>
 6    1  0.2047711E-005  0.3061793E+04  0.7818608E-02  0.8226302E-01
         -2   -1    0    0    0  501 -0.00000000000E+00  0.00000000000E+00  0.14848261881E+04  0.14848261881E+04  0.00000000000E+00 0.  1.
          2   -1    0    0  501    0  0.00000000000E+00 -0.00000000000E+00 -0.15783958226E+04  0.15783958226E+04  0.00000000000E+00 0. -1.
         23    2    1    2    0    0  0.98367032747E+03  0.40932048557E+03  0.10510831486E+04  0.14994507465E+04  0.91794241483E+02 0.  0.
         13    1    3    3    0    0  0.82383571787E+03  0.32417725050E+03  0.91262680020E+03  0.12714888345E+04  0.00000000000E+00 0. -1.
        -13    1    3    3    0    0  0.15983460961E+03  0.85143235069E+02  0.13845634842E+03  0.22796191200E+03  0.00000000000E+00 0.  1.
         22    1    1    2    0    0 -0.98367032747E+03 -0.40932048557E+03 -0.11446527831E+04  0.15637712642E+04  0.00000000000E+00 0. -1.
<mgrwt>
<rscale>  0 0.30617926E+04</rscale>
<asrwt>0</asrwt>
<pdfrwt beam="1">  1        2 0.24283013E+00 0.30617926E+04</pdfrwt>
<pdfrwt beam="2">  1       -2 0.22843480E+00 0.30617926E+04</pdfrwt>
<totfact> 0.85415600E-01</totfact>
</mgrwt>
</event>
<event>
 6    1  0.2047711E-005  0.3060394E+04  0.7818608E-02  0.8226692E-01
          1   -1    0    0  501    0  0.00000000000E+00  0.00000000000E+00  0.31459006188E+04  0.31459006188E+04  0.00000000000E+00 0. -1.
         -1   -1    0    0    0  501 -0.00000000000E+00 -0.00000000000E+00 -0.74430297950E+03  0.74430297950E+03  0.00000000000E+00 0.  1.
         23    2    1    2    0    0  0.34193452155E+03  0.94114820458E+03  0.26704079503E+04  0.28534113610E+04  0.90546199977E+02 0.  0.
         13    1    3    3    0    0  0.20722665499E+03  0.54630887079E+03  0.14317154269E+04  0.15463522667E+04  0.00000000000E+00 0.  1.
        -13    1    3    3    0    0  0.13470786656E+03  0.39483933379E+03  0.12386925233E+04  0.13070590943E+04  0.00000000000E+00 0. -1.
         22    1    1    2    0    0 -0.34193452155E+03 -0.94114820458E+03 -0.26881031096E+03  0.10367922373E+04  0.00000000000E+00 0.  1.
<mgrwt>
<rscale>  0 0.30603942E+04</rscale>
<asrwt>0</asrwt>
<pdfrwt beam="1">  1        1 0.48398470E+00 0.30603942E+04</pdfrwt>
<pdfrwt beam="2">  1       -1 0.11450815E+00 0.30603942E+04</pdfrwt>
<totfact> 0.27372139E-01</totfact>
</mgrwt>
</event>
<event>
 6    1  0.2047711E-005  0.1725986E+04  0.7818608E-02  0.8746681E-01
         -2   -1    0    0    0  501 -0.00000000000E+00  0.00000000000E+00  0.40761421786E+03  0.40761421786E+03  0.00000000000E+00 0.  1.
          2   -1    0    0  501    0  0.00000000000E+00 -0.00000000000E+00 -0.18271117104E+04  0.18271117104E+04  0.00000000000E+00 0. -1.
         23    2    1    2    0    0 -0.35594161357E+02 -0.72162276495E+03 -0.10717758972E+03  0.73666388462E+03  0.95813798311E+02 0.  0.
         11    1    3    3    0    0 -0.17620213452E+02 -0.18634314298E+03  0.13481966284E+02  0.18765927174E+03  0.00000000000E+00 0.  1.
        -11    1    3    3    0    0 -0.17973947905E+02 -0.53527962197E+03 -0.12065955600E+03  0.54900461287E+03  0.00000000000E+00 0. -1.
         22    1    1    2    0    0  0.35594161357E+02  0.72162276495E+03 -0.13123199028E+04  0.14980620436E+04  0.00000000000E+00 0. -1.
<mgrwt>
<rscale>  0 0.17259858E+04</rscale>
<asrwt>0</asrwt>
<pdfrwt beam="1">  1        2 0.28109411E+00 0.17259858E+04</pdfrwt>
<pdfrwt beam="2">  1       -2 0.62709880E-01 0.17259858E+04</pdfrwt>
<totfact> 0.18659471E+01</totfact>
</mgrwt>
</event>
<event>
 6    1  0.2047711E-005  0.1983824E+04  0.7818608E-02  0.8614221E-01
         -2   -1    0    0    0  501 -0.00000000000E+00  0.00000000000E+00  0.46887995751E+03  0.46887995751E+03  0.00000000000E+00 0.  1.
          2   -1    0    0  501    0  0.00000000000E+00 -0.00000000000E+00 -0.20983816274E+04  0.20983816274E+04  0.00000000000E+00 0. -1.
         23    2    1    2    0    0  0.10476752315E+03  0.91183920271E+03 -0.12960558937E+04  0.15907304533E+04  0.90749819917E+02 0.  0.
         13    1    3    3    0    0  0.64967750579E+01  0.30466728086E+03 -0.37541990364E+03  0.48353331236E+03  0.00000000000E+00 0. -1.
        -13    1    3    3    0    0  0.98270748088E+02  0.60717192184E+03 -0.92063599006E+03  0.11071971409E+04  0.00000000000E+00 0.  1.
         22    1    1    2    0    0 -0.10476752315E+03 -0.91183920271E+03 -0.33344577624E+03  0.97653113170E+03  0.00000000000E+00 0.  1.
<mgrwt>
<rscale>  0 0.19838237E+04</rscale>
<asrwt>0</asrwt>
<pdfrwt beam="1">  1        2 0.32282793E+00 0.19838237E+04</pdfrwt>
<pdfrwt beam="2">  1       -2 0.72135380E-01 0.19838237E+04</pdfrwt>
<totfact> 0.95324160E+00</totfact>
</mgrwt>
</event>
<event>
 6    1  0.2047711E-005  0.2197629E+04  0.7818608E-02  0.8519415E-01
         -2   -1    0    0    0  501 -0.00000000000E+00  0.00000000000E+00  0.53427425422E+03  0.53427425422E+03  0.00000000000E+00 0.  1.
          2   -1    0    0  501    0  0.00000000000E+00 -0.00000000000E+00 -0.22598762746E+04  0.22598762746E+04  0.00000000000E+00 0. -1.
         23    2    1    2    0    0 -0.11244931125E+03  0.53510285184E+03 -0.20733204961E+04  0.21461628375E+04  0.91526694677E+02 0.  0.
         13    1    3    3    0    0 -0.28708916309E+02  0.26923719637E+03 -0.11641067419E+04  0.11951808969E+04  0.00000000000E+00 0. -1.
        -13    1    3    3    0    0 -0.83740394940E+02  0.26586565547E+03 -0.90921375426E+03  0.95098194065E+03  0.00000000000E+00 0.  1.
         22    1    1    2    0    0  0.11244931125E+03 -0.53510285184E+03  0.34771847577E+03  0.64798769128E+03  0.00000000000E+00 0.  1.
<mgrwt>
<rscale>  0 0.21976294E+04</rscale>
<asrwt>0</asrwt>
<pdfrwt beam="1">  1        2 0.34767327E+00 0.21976294E+04</pdfrwt>
<pdfrwt beam="2">  1       -2 0.82196040E-01 0.21976294E+04</pdfrwt>
<totfact> 0.56785522E+00</totfact>
</mgrwt>
</event>
<event>
 6    1  0.2047711E-005  0.2023346E+04  0.7818608E-02  0.8595783E-01
         -2   -1    0    0    0  501 -0.00000000000E+00  0.00000000000E+00  0.97511787763E+03  0.97511787763E+03  0.00000000000E+00 0. -1.
          2   -1    0    0  501    0  0.00000000000E+00 -0.00000000000E+00 -0.10495983294E+04  0.10495983294E+04  0.00000000000E+00 0.  1.
         23    2    1    2    0    0  0.22640131190E+03  0.97750565958E+03  0.74382761212E+02  0.10103518126E+04  0.92212372076E+02 0.  0.
         13    1    3    3    0    0  0.29058948269E+02  0.28383760665E+03 -0.11504358662E+00  0.28532126220E+03  0.00000000000E+00 0.  1.
        -13    1    3    3    0    0  0.19734236363E+03  0.69366805292E+03  0.74497804799E+02  0.72503055043E+03  0.00000000000E+00 0. -1.
         22    1    1    2    0    0 -0.22640131190E+03 -0.97750565958E+03 -0.14886321303E+03  0.10143643945E+04  0.00000000000E+00 0. -1.
<mgrwt>
<rscale>  0 0.20233458E+04</rscale>
<asrwt>0</asrwt>
<pdfrwt beam="1">  1        2 0.16147667E+00 0.20233458E+04</pdfrwt>
<pdfrwt beam="2">  1       -2 0.15001814E+00 0.20233458E+04</pdfrwt>
<totfact> 0.65051081E+00</totfact>
</mgrwt>
</event>
<event>
 6    1  0.2047711E-005  0.2684401E+04  0.7818608E-02  0.8340084E-01
         -1   -1    0    0    0  501 -0.00000000000E+00  0.00000000000E+00  0.62716102246E+03  0.62716102246E+03  0.00000000000E+00 0.  1.
          1   -1    0    0  501    0  0.00000000000E+00 -0.00000000000E+00 -0.28724712504E+04  0.28724712504E+04  0.00000000000E+00 0. -1.
         23    2    1    2    0    0  0.51400983151E+03 -0.38860749592E+03 -0.26566203952E+04  0.27351730218E+04  0.91201109250E+02 0.  0.
         13    1    3    3    0    0  0.44153662575E+03 -0.36965154563E+03 -0.23607561541E+04  0.24299725258E+04  0.00000000000E+00 0.  1.
        -13    1    3    3    0    0  0.72473205758E+02 -0.18955950297E+02 -0.29586424116E+03  0.30520049607E+03  0.00000000000E+00 0. -1.
         22    1    1    2    0    0 -0.51400983151E+03  0.38860749592E+03  0.41131016727E+03  0.76445925102E+03  0.00000000000E+00 0.  1.
<mgrwt>
<rscale>  0 0.26844009E+04</rscale>
<asrwt>0</asrwt>
<pdfrwt beam="1">  1        1 0.44191865E+00 0.26844009E+04</pdfrwt>
<pdfrwt beam="2">  1       -1 0.96486313E-01 0.26844009E+04</pdfrwt>
<totfact> 0.66816532E-01</totfact>
</mgrwt>
</event>
<event>
 6    1  0.2047711E-005  0.1040085E+04  0.7818608E-02  0.9265641E-01
          1   -1    0    0  501    0  0.00000000000E+00  0.00000000000E+00  0.13647314364E+04  0.13647314364E+04  0.00000000000E+00 0. -1.
         -1   -1    0    0    0  501 -0.00000000000E+00 -0.00000000000E+00 -0.19816652206E+03  0.19816652206E+03  0.00000000000E+00 0.  1.
         23    2    1    2    0    0 -0.34733337739E+03 -0.24268291874E+03  0.10303217174E+04  0.11178162998E+04  0.91733117051E+02 0.  0.
         11    1    3    3    0    0 -0.60959707652E+02 -0.90639203133E+02  0.25114248179E+03  0.27386875919E+03  0.00000000000E+00 0.  1.
        -11    1    3    3    0    0 -0.28637366974E+03 -0.15204371561E+03  0.77917923559E+03  0.84394754064E+03  0.00000000000E+00 0. -1.
         22    1    1    2    0    0  0.34733337739E+03  0.24268291874E+03  0.13624319691E+03  0.44508165858E+03  0.00000000000E+00 0.  1.
<mgrwt>
<rscale>  0 0.10400848E+04</rscale>
<asrwt>0</asrwt>
<pdfrwt beam="1">  1        1 0.20995868E+00 0.10400848E+04</pdfrwt>
<pdfrwt beam="2">  1       -1 0.30487158E-01 0.10400848E+04</pdfrwt>
<totfact> 0.80660029E+01</totfact>
</mgrwt>
</event>
<event>
 6    1  0.2047711E-005  0.2668906E+04  0.7818608E-02  0.8345165E-01
         -1   -1    0    0    0  501 -0.00000000000E+00  0.00000000000E+00  0.10135357855E+04  0.10135357855E+04  0.00000000000E+00 0.  1.
          1   -1    0    0  501    0  0.00000000000E+00 -0.00000000000E+00 -0.17569828385E+04  0.17569828385E+04  0.00000000000E+00 0. -1.
         23    2    1    2    0    0  0.10718561333E+04  0.52389196216E+03 -0.98927490796E+03  0.15524177691E+04  0.89430016799E+02 0.  0.
         11    1    3    3    0    0  0.25389550543E+03  0.83285076997E+02 -0.21283255133E+03  0.34160946508E+03  0.00000000000E+00 0. -1.
        -11    1    3    3    0    0  0.81796062784E+03  0.44060688516E+03 -0.77644235663E+03  0.12108083040E+04  0.00000000000E+00 0.  1.
         22    1    1    2    0    0 -0.10718561333E+04 -0.52389196216E+03  0.24582785491E+03  0.12181008549E+04  0.00000000000E+00 0.  1.
<mgrwt>
<rscale>  0 0.26689061E+04</rscale>
<asrwt>0</asrwt>
<pdfrwt beam="1">  1        1 0.27030505E+00 0.26689061E+04</pdfrwt>
<pdfrwt beam="2">  1       -1 0.15592858E+00 0.26689061E+04</pdfrwt>
<totfact> 0.11977523E+00</totfact>
</mgrwt>
</event>
<event>
 6    1  0.2047711E-005  0.1190643E+04  0.7818608E-02  0.9121087E-01
          2   -1    0    0  501    0  0.00000000000E+00  0.00000000000E+00  0.18510816865E+04  0.18510816865E+04  0.00000000000E+00 0. -1.
         -2   -1    0    0    0  501 -0.00000000000E+00 -0.00000000000E+00 -0.19145963838E+03  0.19145963838E+03  0.00000000000E+00 0.  1.
         23    2    1    2    0    0 -0.21010977309E+03  0.51315950599E+03  0.47939198235E+03  0.73853909963E+03  0.90247069809E+02 0.  0.
         13    1    3    3    0    0 -0.21777892517E+03  0.50462236424E+03  0.47435817540E+03  0.72600762345E+03  0.00000000000E+00 0. -1.
        -13    1    3    3    0    0  0.76691520815E+01  0.85371417488E+01  0.50338069535E+01  0.12531476183E+02  0.00000000000E+00 0.  1.
         22    1    1    2    0    0  0.21010977309E+03 -0.51315950599E+03  0.11802300658E+04  0.13040022253E+04  0.00000000000E+00 0. -1.
<mgrwt>
<rscale>  0 0.11906426E+04</rscale>
<asrwt>0</asrwt>
<pdfrwt beam="1">  1        2 0.28478179E+00 0.11906426E+04</pdfrwt>
<pdfrwt beam="2">  1       -2 0.29455330E-01 0.11906426E+04</pdfrwt>
<totfact> 0.84729842E+01</totfact>
</mgrwt>
</event>
<event>
 6    1  0.2047711E-005  0.1360728E+04  0.7818608E-02  0.8982747E-01
          2   -1    0    0  501    0  0.00000000000E+00  0.00000000000E+00  0.27887424068E+03  0.27887424068E+03  0.00000000000E+00 0. -1.
         -2   -1    0    0    0  501 -0.00000000000E+00 -0.00000000000E+00 -0.16598707347E+04  0.16598707347E+04  0.00000000000E+00 0.  1.
         23    2    1    2    0    0  0.12172544867E+03 -0.54488909281E+03 -0.14745768716E+03  0.58473640954E+03  0.91933077958E+02 0.  0.
         13    1    3    3    0    0  0.87507992515E+02 -0.19006895285E+03 -0.48591096697E+02  0.21481375717E+03  0.00000000000E+00 0.  1.
        -13    1    3    3    0    0  0.34217456159E+02 -0.35482013997E+03 -0.98866590459E+02  0.36992265238E+03  0.00000000000E+00 0. -1.
         22    1    1    2    0    0 -0.12172544867E+03  0.54488909281E+03 -0.12335388069E+04  0.13540085659E+04  0.00000000000E+00 0.  1.
<mgrwt>
<rscale>  0 0.13607280E+04</rscale>
<asrwt>0</asrwt>
<pdfrwt beam="1">  1        2 0.42903729E-01 0.13607280E+04</pdfrwt>
<pdfrwt beam="2">  1       -2 0.25536473E+00 0.13607280E+04</pdfrwt>
<totfact> 0.69368662E+00</totfact>
</mgrwt>
</event>
<event>
 6    1  0.2047711E-005  0.1636000E+04  0.7818608E-02  0.8798732E-01
          2   -1    0    0  501    0  0.00000000000E+00  0.00000000000E+00  0.33554656963E+04  0.33554656963E+04  0.00000000000E+00 0. -1.
         -2   -1    0    0    0  501 -0.00000000000E+00 -0.00000000000E+00 -0.19941323907E+03  0.19941323907E+03  0.00000000000E+00 0.  1.
         23    2    1    2    0    0 -0.58193332222E+03  0.12214986989E+03  0.37064769159E+03  0.70671343970E+03  0.92180216710E+02 0.  0.
         11    1    3    3    0    0 -0.42998625080E+03  0.48618647120E+02  0.25865499493E+03  0.50413723839E+03  0.00000000000E+00 0. -1.
        -11    1    3    3    0    0 -0.15194707142E+03  0.73531222771E+02  0.11199269666E+03  0.20257620132E+03  0.00000000000E+00 0.  1.
         22    1    1    2    0    0  0.58193332222E+03 -0.12214986989E+03  0.27854047656E+04  0.28481654956E+04  0.00000000000E+00 0. -1.
<mgrwt>
<rscale>  0 0.16360003E+04</rscale>
<asrwt>0</asrwt>
<pdfrwt beam="1">  1        2 0.51622545E+00 0.16360003E+04</pdfrwt>
<pdfrwt beam="2">  1       -2 0.30678962E-01 0.16360003E+04</pdfrwt>
<totfact> 0.97031469E+00</totfact>
</mgrwt>
</event>
<event>
 6    1  0.2047711E-005  0.1396623E+04  0.7818608E-02  0.8956267E-01
         -2   -1    0    0    0  501 -0.00000000000E+00  0.00000000000E+00  0.14593226439E+03  0.14593226439E+03  0.00000000000E+00 0.  1.
          2   -1    0    0  501    0  0.00000000000E+00 -0.00000000000E+00 -0.33415437942E+04  0.33415437942E+04  0.00000000000E+00 0. -1.
         23    2    1    2    0    0  0.48707516882E+03  0.49481423771E+03 -0.15078080059E+04  0.16624379534E+04  0.90175475925E+02 0.  0.
         11    1    3    3    0    0  0.22156508080E+03  0.21440020416E+03 -0.56585846446E+03  0.64440230786E+03  0.00000000000E+00 0. -1.
        -11    1    3    3    0    0  0.26551008802E+03  0.28041403355E+03 -0.94194954144E+03  0.10180356456E+04  0.00000000000E+00 0.  1.
         22    1    1    2    0    0 -0.48707516882E+03 -0.49481423771E+03 -0.16878035239E+04  0.18250381051E+04  0.00000000000E+00 0.  1.
<mgrwt>
<rscale>  0 0.13966231E+04</rscale>
<asrwt>0</asrwt>
<pdfrwt beam="1">  1        2 0.51408364E+00 0.13966231E+04</pdfrwt>
<pdfrwt beam="2">  1       -2 0.22451118E-01 0.13966231E+04</pdfrwt>
<totfact> 0.17966748E+01</totfact>
</mgrwt>
</event>
<event>
 6    1  0.2047711E-005  0.1504387E+04  0.7818608E-02  0.8881541E-01
          2   -1    0    0  501    0  0.00000000000E+00  0.00000000000E+00  0.15972539289E+04  0.15972539289E+04  0.00000000000E+00 0. -1.
         -2   -1    0    0    0  501 -0.00000000000E+00 -0.00000000000E+00 -0.35423001039E+03  0.35423001039E+03  0.00000000000E+00 0.  1.
         23    2    1    2    0    0  0.42644566122E+03 -0.25905926502E+03  0.13492470096E+04  0.14413359707E+04  0.89522526474E+02 0.  0.
         13    1    3    3    0    0  0.28666602709E+03 -0.21700706174E+03  0.10070151056E+04  0.10692749407E+04  0.00000000000E+00 0.  1.
        -13    1    3    3    0    0  0.13977963412E+03 -0.42052203284E+02  0.34223190405E+03  0.37206103003E+03  0.00000000000E+00 0. -1.
         22    1    1    2    0    0 -0.42644566122E+03  0.25905926502E+03 -0.10622309110E+03  0.51014796858E+03  0.00000000000E+00 0.  1.
<mgrwt>
<rscale>  0 0.15043873E+04</rscale>
<asrwt>0</asrwt>
<pdfrwt beam="1">  1        2 0.24573137E+00 0.15043873E+04</pdfrwt>
<pdfrwt beam="2">  1       -2 0.54496925E-01 0.15043873E+04</pdfrwt>
<totfact> 0.34249547E+01</totfact>
</mgrwt>
</event>
<event>
 6    1  0.2047711E-005  0.1313373E+04  0.7818608E-02  0.9019027E-01
         -2   -1    0    0    0  501 -0.00000000000E+00  0.00000000000E+00  0.12537110886E+03  0.12537110886E+03  0.00000000000E+00 0.  1.
          2   -1    0    0  501    0  0.00000000000E+00 -0.00000000000E+00 -0.34396836898E+04  0.34396836898E+04  0.00000000000E+00 0. -1.
         23    2    1    2    0    0  0.35931077472E+03 -0.72982011100E+02 -0.31334558843E+04  0.31562275106E+04  0.93785462391E+02 0.  0.
         11    1    3    3    0    0  0.15169401415E+03 -0.61364273907E+02 -0.10892600627E+04  0.11014826972E+04  0.00000000000E+00 0.  1.
        -11    1    3    3    0    0  0.20761676057E+03 -0.11617737193E+02 -0.20441958216E+04  0.20547448133E+04  0.00000000000E+00 0. -1.
         22    1    1    2    0    0 -0.35931077472E+03  0.72982011100E+02 -0.18085669667E+03  0.40882728811E+03  0.00000000000E+00 0.  1.
<mgrwt>
<rscale>  0 0.13133727E+04</rscale>
<asrwt>0</asrwt>
<pdfrwt beam="1">  1        2 0.52918217E+00 0.13133727E+04</pdfrwt>
<pdfrwt beam="2">  1       -2 0.19287861E-01 0.13133727E+04</pdfrwt>
<totfact> 0.20358889E+01</totfact>
</mgrwt>
</event>
<event>
 6    1  0.2047711E-005  0.2485066E+04  0.7818608E-02  0.8408325E-01
         -2   -1    0    0    0  501 -0.00000000000E+00  0.00000000000E+00  0.53089386376E+03  0.53089386376E+03  0.00000000000E+00 0.  1.
          2   -1    0    0  501    0  0.00000000000E+00 -0.00000000000E+00 -0.29080923245E+04  0.29080923245E+04  0.00000000000E+00 0. -1.
         23    2    1    2    0    0 -0.73899487137E+03  0.69551128235E+03 -0.21780962990E+04  0.24048241920E+04  0.96054894890E+02 0.  0.
         13    1    3    3    0    0 -0.36189822259E+03  0.37073212665E+03 -0.12115403952E+04  0.13176656489E+04  0.00000000000E+00 0. -1.
        -13    1    3    3    0    0 -0.37709664878E+03  0.32477915571E+03 -0.96655590384E+03  0.10871585431E+04  0.00000000000E+00 0.  1.
         22    1    1    2    0    0  0.73899487137E+03 -0.69551128235E+03 -0.19910216175E+03  0.10341619963E+04  0.00000000000E+00 0.  1.
<mgrwt>
<rscale>  0 0.24850661E+04</rscale>
<asrwt>0</asrwt>
<pdfrwt beam="1">  1        2 0.44739881E+00 0.24850661E+04</pdfrwt>
<pdfrwt beam="2">  1       -2 0.81675980E-01 0.24850661E+04</pdfrwt>
<totfact> 0.23397423E+00</totfact>
</mgrwt>
</event>
<event>
 6    1  0.2047711E-005  0.1560661E+04  0.7818608E-02  0.8845087E-01
         -2   -1    0    0    0  501 -0.00000000000E+00  0.00000000000E+00  0.10133612064E+04  0.10133612064E+04  0.00000000000E+00 0.  1.
          2   -1    0    0  501    0  0.00000000000E+00 -0.00000000000E+00 -0.60088719369E+03  0.60088719369E+03  0.00000000000E+00 0. -1.
         23    2    1    2    0    0 -0.20328120083E+03 -0.73209075242E+03  0.35736488081E+02  0.76618514841E+03  0.92100318533E+02 0.  0.
         11    1    3    3    0    0 -0.45179528868E+02 -0.29366969507E+03 -0.14178389916E+02  0.29746278149E+03  0.00000000000E+00 0. -1.
        -11    1    3    3    0    0 -0.15810167197E+03 -0.43842105735E+03  0.49914877997E+02  0.46872236692E+03  0.00000000000E+00 0.  1.
         22    1    1    2    0    0  0.20328120083E+03  0.73209075242E+03  0.37673752462E+03  0.84806325168E+03  0.00000000000E+00 0.  1.
<mgrwt>
<rscale>  0 0.15606611E+04</rscale>
<asrwt>0</asrwt>
<pdfrwt beam="1">  1        2 0.92444184E-01 0.15606611E+04</pdfrwt>
<pdfrwt beam="2">  1       -2 0.15590172E+00 0.15606611E+04</pdfrwt>
<totfact> 0.12858796E+01</totfact>
</mgrwt>
</event>
<event>
 6    1  0.2047711E-005  0.4145260E+04  0.7818608E-02  0.7975867E-01
          2   -1    0    0  501    0  0.00000000000E+00  0.00000000000E+00  0.37304616504E+04  0.37304616504E+04  0.00000000000E+00 0. -1.
         -2   -1    0    0    0  501 -0.00000000000E+00 -0.00000000000E+00 -0.11515449010E+04  0.11515449010E+04  0.00000000000E+00 0.  1.
         23    2    1    2    0    0  0.23978546084E+03  0.19527108530E+04  0.52664315883E+03  0.20390497044E+04  0.98964326046E+02 0.  0.
         11    1    3    3    0    0  0.27515544547E+02  0.14614412785E+03  0.14993153883E+02  0.14946573507E+03  0.00000000000E+00 0.  1.
        -11    1    3    3    0    0  0.21226991629E+03  0.18065667251E+04  0.51165000495E+03  0.18895839694E+04  0.00000000000E+00 0. -1.
         22    1    1    2    0    0 -0.23978546084E+03 -0.19527108530E+04  0.20522735906E+04  0.28429568469E+04  0.00000000000E+00 0. -1.
<mgrwt>
<rscale>  0 0.41452595E+04</rscale>
<asrwt>0</asrwt>
<pdfrwt beam="1">  1        2 0.57391717E+00 0.41452595E+04</pdfrwt>
<pdfrwt beam="2">  1       -2 0.17716076E+00 0.41452595E+04</pdfrwt>
<totfact> 0.81758160E-02</totfact>
</mgrwt>
</event>
<event>
 6    1  0.2047711E-005  0.2594779E+04  0.7818608E-02  0.8369977E-01
          2   -1    0    0  501    0  0.00000000000E+00  0.00000000000E+00  0.20581374287E+04  0.20581374287E+04  0.00000000000E+00 0. -1.
         -2   -1    0    0    0  501 -0.00000000000E+00 -0.00000000000E+00 -0.81783640581E+03  0.81783640581E+03  0.00000000000E+00 0.  1.
         23    2    1    2    0    0  0.12296452157E+04 -0.29927378351E+03  0.92923161028E+03  0.15727638232E+04  0.92317409798E+02 0.  0.
         13    1    3    3    0    0  0.72734001672E+03 -0.13291450780E+03  0.52256683952E+03  0.90540922686E+03  0.00000000000E+00 0. -1.
        -13    1    3    3    0    0  0.50230519898E+03 -0.16635927571E+03  0.40666477076E+03  0.66735459639E+03  0.00000000000E+00 0.  1.
         22    1    1    2    0    0 -0.12296452157E+04  0.29927378351E+03  0.31106941259E+03  0.13032100113E+04  0.00000000000E+00 0.  1.
<mgrwt>
<rscale>  0 0.25947792E+04</rscale>
<asrwt>0</asrwt>
<pdfrwt beam="1">  1        2 0.31663653E+00 0.25947792E+04</pdfrwt>
<pdfrwt beam="2">  1       -2 0.12582099E+00 0.25947792E+04</pdfrwt>
<totfact> 0.25881650E+00</totfact>
</mgrwt>
</event>
<event>
 6    1  0.2047711E-005  0.1699093E+04  0.7818608E-02  0.8761882E-01
          2   -1    0    0  501    0  0.00000000000E+00  0.00000000000E+00  0.97232451653E+03  0.97232451653E+03  0.00000000000E+00 0. -1.
         -2   -1    0    0    0  501 -0.00000000000E+00 -0.00000000000E+00 -0.74227205894E+03  0.74227205894E+03  0.00000000000E+00 0.  1.
         23    2    1    2    0    0  0.47687518487E+02 -0.83358420096E+03 -0.28775410381E+02  0.84045208812E+03  0.91624061617E+02 0.  0.
         13    1    3    3    0    0  0.32216323827E+02 -0.29661425608E+03  0.30901643182E+02  0.29995469655E+03  0.00000000000E+00 0. -1.
        -13    1    3    3    0    0  0.15471194660E+02 -0.53696994488E+03 -0.59677053563E+02  0.54049739157E+03  0.00000000000E+00 0.  1.
         22    1    1    2    0    0 -0.47687518487E+02  0.83358420096E+03  0.25882786797E+03  0.87414448735E+03  0.00000000000E+00 0. -1.
<mgrwt>
<rscale>  0 0.16990931E+04</rscale>
<asrwt>0</asrwt>
<pdfrwt beam="1">  1        2 0.14958839E+00 0.16990931E+04</pdfrwt>
<pdfrwt beam="2">  1       -2 0.11419570E+00 0.16990931E+04</pdfrwt>
<totfact> 0.14985475E+01</totfact>
</mgrwt>
</event>
<event>
 6    1  0.2047711E-005  0.3818010E+04  0.7818608E-02  0.8042301E-01
         -2   -1    0    0    0  501 -0.00000000000E+00  0.00000000000E+00  0.18710733013E+04  0.18710733013E+04  0.00000000000E+00 0.  1.
          2   -1    0    0  501    0  0.00000000000E+00 -0.00000000000E+00 -0.19477051947E+04  0.19477051947E+04  0.00000000000E+00 0. -1.
         23    2    1    2    0    0 -0.17286518195E+04  0.34251897813E+03 -0.76963431959E+03  0.19251553217E+04  0.91266989008E+02 0.  0.
         11    1    3    3    0    0 -0.14371483860E+04  0.31905237190E+03 -0.63747866222E+03  0.16042346911E+04  0.00000000000E+00 0. -1.
        -11    1    3    3    0    0 -0.29150343347E+03  0.23466606238E+02 -0.13215565737E+03  0.32092063055E+03  0.00000000000E+00 0.  1.
         22    1    1    2    0    0  0.17286518195E+04 -0.34251897813E+03  0.69300242620E+03  0.18936231743E+04  0.00000000000E+00 0. -1.
<mgrwt>
<rscale>  0 0.38180095E+04</rscale>
<asrwt>0</asrwt>
<pdfrwt beam="1">  1        2 0.29964695E+00 0.38180095E+04</pdfrwt>
<pdfrwt beam="2">  1       -2 0.28785743E+00 0.38180095E+04</pdfrwt>
<totfact> 0.21569315E-01</totfact>
</mgrwt>
</event>
<event>
 6    1  0.2047711E-005  0.1074596E+04  0.7818608E-02  0.9230313E-01
         -2   -1    0    0    0  501 -0.00000000000E+00  0.00000000000E+00  0.15007421727E+04  0.15007421727E+04  0.00000000000E+00 0.  1.
          2   -1    0    0  501    0  0.00000000000E+00 -0.00000000000E+00 -0.19236415168E+03  0.19236415168E+03  0.00000000000E+00 0. -1.
         23    2    1    2    0    0  0.43370462600E+03 -0.24328479316E+03  0.96245009535E+03  0.10873396012E+04  0.93327536280E+02 0.  0.
         13    1    3    3    0    0  0.13906344031E+03 -0.11905595039E+03  0.41021509142E+03  0.44920972940E+03  0.00000000000E+00 0.  1.
        -13    1    3    3    0    0  0.29464118570E+03 -0.12422884277E+03  0.55223500393E+03  0.63812987177E+03  0.00000000000E+00 0. -1.
         22    1    1    2    0    0 -0.43370462600E+03  0.24328479316E+03  0.34592792570E+03  0.60576672323E+03  0.00000000000E+00 0. -1.
<mgrwt>
<rscale>  0 0.10745957E+04</rscale>
<asrwt>0</asrwt>
<pdfrwt beam="1">  1        2 0.29594486E-01 0.10745957E+04</pdfrwt>
<pdfrwt beam="2">  1       -2 0.23088340E+00 0.10745957E+04</pdfrwt>
<totfact> 0.15222534E+01</totfact>
</mgrwt>
</event>
<event>
 6    1  0.2047711E-005  0.6449101E+04  0.7818608E-02  0.7637082E-01
         -2   -1    0    0    0  501 -0.00000000000E+00  0.00000000000E+00  0.32094738847E+04  0.32094738847E+04  0.00000000000E+00 0.  1.
          2   -1    0    0  501    0  0.00000000000E+00 -0.00000000000E+00 -0.32396982044E+04  0.32396982044E+04  0.00000000000E+00 0. -1.
         23    2    1    2    0    0 -0.25285525317E+04  0.87485023830E+02 -0.20132159625E+04  0.32345978731E+04  0.91396685487E+02 0.  0.
         11    1    3    3    0    0 -0.17436555899E+04  0.89058970895E+02 -0.14282218947E+04  0.22556781900E+04  0.00000000000E+00 0. -1.
        -11    1    3    3    0    0 -0.78489694187E+03 -0.15739470645E+01 -0.58499406777E+03  0.97891968312E+03  0.00000000000E+00 0.  1.
         22    1    1    2    0    0  0.25285525317E+04 -0.87485023830E+02  0.19829916428E+04  0.32145742160E+04  0.00000000000E+00 0.  1.
<mgrwt>
<rscale>  0 0.64491013E+04</rscale>
<asrwt>0</asrwt>
<pdfrwt beam="1">  1        2 0.49841511E+00 0.64491013E+04</pdfrwt>
<pdfrwt beam="2">  1       -2 0.49376521E+00 0.64491013E+04</pdfrwt>
<totfact> 0.14487536E-03</totfact>
</mgrwt>
</event>
<event>
 6    1  0.2047711E-005  0.1741933E+04  0.7818608E-02  0.8737803E-01
         -2   -1    0    0    0  501 -0.00000000000E+00  0.00000000000E+00  0.25857974937E+03  0.25857974937E+03  0.00000000000E+00 0.  1.
          2   -1    0    0  501    0  0.00000000000E+00 -0.00000000000E+00 -0.29336497831E+04  0.29336497831E+04  0.00000000000E+00 0. -1.
         23    2    1    2    0    0 -0.74931879708E+03  0.16782906515E+03 -0.59739810378E+03  0.97719772609E+03  0.91573176780E+02 0.  0.
         13    1    3    3    0    0 -0.36471368026E+03  0.96763680964E+02 -0.23862910172E+03  0.44645618677E+03  0.00000000000E+00 0.  1.
        -13    1    3    3    0    0 -0.38460511682E+03  0.71065384184E+02 -0.35876900206E+03  0.53074153931E+03  0.00000000000E+00 0. -1.
         22    1    1    2    0    0  0.74931879708E+03 -0.16782906515E+03 -0.20776719299E+04  0.22150318063E+04  0.00000000000E+00 0. -1.
<mgrwt>
<rscale>  0 0.17419327E+04</rscale>
<asrwt>0</asrwt>
<pdfrwt beam="1">  1        2 0.45133074E+00 0.17419327E+04</pdfrwt>
<pdfrwt beam="2">  1       -2 0.39781500E-01 0.17419327E+04</pdfrwt>
<totfact> 0.10901180E+01</totfact>
</mgrwt>
</event>
<event>
 6    1  0.2047711E-005  0.2440307E+04  0.7818608E-02  0.8424566E-01
          2   -1    0    0  501    0  0.00000000000E+00  0.00000000000E+00  0.24519143918E+04  0.24519143918E+04  0.00000000000E+00 0. -1.
         -2   -1    0    0    0  501 -0.00000000000E+00 -0.00000000000E+00 -0.60718853812E+03  0.60718853812E+03  0.00000000000E+00 0.  1.
         23    2    1    2    0    0 -0.11235636729E+04 -0.20025356028E+03  0.14582970175E+04  0.18541863100E+04  0.94233037632E+02 0.  0.
         13    1    3    3    0    0 -0.84880840545E+03 -0.17662981275E+03  0.10535021588E+04  0.13643828636E+04  0.00000000000E+00 0. -1.
        -13    1    3    3    0    0 -0.27475526748E+03 -0.23623747524E+02  0.40479485876E+03  0.48980344643E+03  0.00000000000E+00 0.  1.
         22    1    1    2    0    0  0.11235636729E+04  0.20025356028E+03  0.38642883616E+03  0.12049166199E+04  0.00000000000E+00 0.  1.
<mgrwt>
<rscale>  0 0.24403068E+04</rscale>
<asrwt>0</asrwt>
<pdfrwt beam="1">  1        2 0.37721759E+00 0.24403068E+04</pdfrwt>
<pdfrwt beam="2">  1       -2 0.93413623E-01 0.24403068E+04</pdfrwt>
<totfact> 0.32240169E+00</totfact>
</mgrwt>
</event>
<event>
 6    1  0.2047711E-005  0.2218888E+04  0.7818608E-02  0.8510607E-01
         -2   -1    0    0    0  501 -0.00000000000E+00  0.00000000000E+00  0.34208046874E+03  0.34208046874E+03  0.00000000000E+00 0.  1.
          2   -1    0    0  501    0  0.00000000000E+00 -0.00000000000E+00 -0.35981783673E+04  0.35981783673E+04  0.00000000000E+00 0. -1.
         23    2    1    2    0    0  0.65355398896E+03 -0.73163166388E+01 -0.42873250616E+02  0.66123474599E+03  0.90592100697E+02 0.  0.
         11    1    3    3    0    0  0.20115912407E+03 -0.41019601608E+01 -0.55285073381E+02  0.20865823399E+03  0.00000000000E+00 0. -1.
        -11    1    3    3    0    0  0.45239486489E+03 -0.32143564779E+01  0.12411822764E+02  0.45257651200E+03  0.00000000000E+00 0.  1.
         22    1    1    2    0    0 -0.65355398896E+03  0.73163166388E+01 -0.32132246480E+04  0.32790240901E+04  0.00000000000E+00 0. -1.
<mgrwt>
<rscale>  0 0.22188885E+04</rscale>
<asrwt>0</asrwt>
<pdfrwt beam="1">  1        2 0.55356587E+00 0.22188885E+04</pdfrwt>
<pdfrwt beam="2">  1       -2 0.52627767E-01 0.22188885E+04</pdfrwt>
<totfact> 0.21612544E+00</totfact>
</mgrwt>
</event>
<event>
 6    1  0.2047711E-005  0.1572234E+04  0.7818608E-02  0.8837790E-01
         -2   -1    0    0    0  501 -0.00000000000E+00  0.00000000000E+00  0.28371204620E+03  0.28371204620E+03  0.00000000000E+00 0.  1.
          2   -1    0    0  501    0  0.00000000000E+00 -0.00000000000E+00 -0.21781939474E+04  0.21781939474E+04  0.00000000000E+00 0. -1.
         23    2    1    2    0    0  0.42647540791E+03 -0.46329575056E+03 -0.16802621422E+04  0.17967636546E+04  0.92490745104E+02 0.  0.
         13    1    3    3    0    0  0.39433333762E+03 -0.41905130724E+03 -0.14478164007E+04  0.15579714725E+04  0.00000000000E+00 0. -1.
        -13    1    3    3    0    0  0.32142070285E+02 -0.44244443321E+02 -0.23244574150E+03  0.23879218201E+03  0.00000000000E+00 0.  1.
         22    1    1    2    0    0 -0.42647540791E+03  0.46329575056E+03 -0.21421975904E+03  0.66514233905E+03  0.00000000000E+00 0.  1.
<mgrwt>
<rscale>  0 0.15722339E+04</rscale>
<asrwt>0</asrwt>
<pdfrwt beam="1">  1        2 0.33510675E+00 0.15722339E+04</pdfrwt>
<pdfrwt beam="2">  1       -2 0.43648008E-01 0.15722339E+04</pdfrwt>
<totfact> 0.25425943E+01</totfact>
</mgrwt>
</event>
<event>
 6    1  0.2047711E-005  0.1343931E+04  0.7818608E-02  0.8995435E-01
         -2   -1    0    0    0  501 -0.00000000000E+00  0.00000000000E+00  0.87129887543E+03  0.87129887543E+03  0.00000000000E+00 0.  1.
          2   -1    0    0  501    0  0.00000000000E+00 -0.00000000000E+00 -0.51823483584E+03  0.51823483584E+03  0.00000000000E+00 0. -1.
         23    2    1    2    0    0 -0.20519892071E+03 -0.63389453297E+03  0.23868172741E+03  0.71350694455E+03  0.90522466413E+02 0.  0.
         13    1    3    3    0    0 -0.18237165546E+03 -0.52697384326E+03  0.23199513233E+03  0.60397234508E+03  0.00000000000E+00 0. -1.
        -13    1    3    3    0    0 -0.22827265254E+02 -0.10692068971E+03  0.66865950841E+01  0.10953459947E+03  0.00000000000E+00 0.  1.
         22    1    1    2    0    0  0.20519892071E+03  0.63389453297E+03  0.11438231217E+03  0.67602676673E+03  0.00000000000E+00 0. -1.
<mgrwt>
<rscale>  0 0.13439307E+04</rscale>
<asrwt>0</asrwt>
<pdfrwt beam="1">  1        2 0.79728436E-01 0.13439307E+04</pdfrwt>
<pdfrwt beam="2">  1       -2 0.13404598E+00 0.13439307E+04</pdfrwt>
<totfact> 0.23169064E+01</totfact>
</mgrwt>
</event>
<event>
 6    1  0.2047711E-005  0.2247240E+04  0.7818608E-02  0.8499019E-01
         -2   -1    0    0    0  501 -0.00000000000E+00  0.00000000000E+00  0.15846766576E+04  0.15846766576E+04  0.00000000000E+00 0.  1.
          2   -1    0    0  501    0  0.00000000000E+00 -0.00000000000E+00 -0.79670662408E+03  0.79670662408E+03  0.00000000000E+00 0. -1.
         23    2    1    2    0    0 -0.16255831575E+02 -0.90225065412E+03 -0.31154795182E+03  0.95896973599E+03  0.90776281818E+02 0.  0.
         11    1    3    3    0    0 -0.44330200477E+02 -0.27924619975E+03 -0.11303440327E+03  0.30450021851E+03  0.00000000000E+00 0. -1.
        -11    1    3    3    0    0  0.28074368902E+02 -0.62300445437E+03 -0.19851354855E+03  0.65446951748E+03  0.00000000000E+00 0.  1.
         22    1    1    2    0    0  0.16255831575E+02  0.90225065412E+03  0.10995179854E+04  0.14224135457E+04  0.00000000000E+00 0.  1.
<mgrwt>
<rscale>  0 0.22472404E+04</rscale>
<asrwt>0</asrwt>
<pdfrwt beam="1">  1        2 0.12257025E+00 0.22472404E+04</pdfrwt>
<pdfrwt beam="2">  1       -2 0.24379641E+00 0.22472404E+04</pdfrwt>
<totfact> 0.22126159E+00</totfact>
</mgrwt>
</event>
<event>
 6    1  0.2047711E-005  0.1745996E+04  0.7818608E-02  0.8735557E-01
          2   -1    0    0  501    0  0.00000000000E+00  0.00000000000E+00  0.25320582779E+04  0.25320582779E+04  0.00000000000E+00 0. -1.
         -2   -1    0    0    0  501 -0.00000000000E+00 -0.00000000000E+00 -0.30099067004E+03  0.30099067004E+03  0.00000000000E+00 0.  1.
         23    2    1    2    0    0  0.44384074378E+03  0.52602821279E+03  0.19836675294E+04  0.21016755239E+04  0.91667083475E+02 0.  0.
         13    1    3    3    0    0  0.24890055571E+03  0.35087949372E+03  0.11525181510E+04  0.12301894140E+04  0.00000000000E+00 0.  1.
        -13    1    3    3    0    0  0.19494018808E+03  0.17514871907E+03  0.83114937837E+03  0.87148610998E+03  0.00000000000E+00 0. -1.
         22    1    1    2    0    0 -0.44384074378E+03 -0.52602821279E+03  0.24740007842E+03  0.73137342397E+03  0.00000000000E+00 0.  1.
<mgrwt>
<rscale>  0 0.17459965E+04</rscale>
<asrwt>0</asrwt>
<pdfrwt beam="1">  1        2 0.38954741E+00 0.17459965E+04</pdfrwt>
<pdfrwt beam="2">  1       -2 0.46306259E-01 0.17459965E+04</pdfrwt>
<totfact> 0.14002580E+01</totfact>
</mgrwt>
</event>
<event>
 6    1  0.2047711E-005  0.1872018E+04  0.7818608E-02  0.8668911E-01
          2   -1    0    0  501    0  0.00000000000E+00  0.00000000000E+00  0.24777597331E+04  0.24777597331E+04  0.00000000000E+00 0. -1.
         -2   -1    0    0    0  501 -0.00000000000E+00 -0.00000000000E+00 -0.35359084657E+03  0.35359084657E+03  0.00000000000E+00 0.  1.
         23    2    1    2    0    0  0.43322324932E+03 -0.39761963444E+03  0.21617254033E+04  0.22421186649E+04  0.90860501907E+02 0.  0.
         13    1    3    3    0    0  0.66680503896E+02 -0.92696593933E+02  0.52992319160E+03  0.54208628199E+03  0.00000000000E+00 0. -1.
        -13    1    3    3    0    0  0.36654274542E+03 -0.30492304050E+03  0.16318022117E+04  0.17000323829E+04  0.00000000000E+00 0.  1.
         22    1    1    2    0    0 -0.43322324932E+03  0.39761963444E+03 -0.37556516765E+02  0.58923191477E+03  0.00000000000E+00 0.  1.
<mgrwt>
<rscale>  0 0.18720183E+04</rscale>
<asrwt>0</asrwt>
<pdfrwt beam="1">  1        2 0.38119380E+00 0.18720183E+04</pdfrwt>
<pdfrwt beam="2">  1       -2 0.54398593E-01 0.18720183E+04</pdfrwt>
<totfact> 0.10715782E+01</totfact>
</mgrwt>
</event>
<event>
 6    1  0.2047711E-005  0.3273035E+04  0.7818608E-02  0.8169791E-01
          2   -1    0    0  501    0  0.00000000000E+00  0.00000000000E+00  0.29994743468E+04  0.29994743468E+04  0.00000000000E+00 0. -1.
         -2   -1    0    0    0  501 -0.00000000000E+00 -0.00000000000E+00 -0.89288621000E+03  0.89288621000E+03  0.00000000000E+00 0.  1.
         23    2    1    2    0    0 -0.12458673078E+03 -0.16197596072E+04  0.82982341167E+03  0.18261390774E+04  0.83868926810E+02 0.  0.
         11    1    3    3    0    0  0.18818953525E+01 -0.26869212288E+03  0.11330548738E+03  0.29161126847E+03  0.00000000000E+00 0. -1.
        -11    1    3    3    0    0 -0.12646862613E+03 -0.13510674843E+04  0.71651792429E+03  0.15345278089E+04  0.00000000000E+00 0.  1.
         22    1    1    2    0    0  0.12458673078E+03  0.16197596072E+04  0.12767647251E+04  0.20662214794E+04  0.00000000000E+00 0. -1.
<mgrwt>
<rscale>  0 0.32730348E+04</rscale>
<asrwt>0</asrwt>
<pdfrwt beam="1">  1        2 0.46145759E+00 0.32730348E+04</pdfrwt>
<pdfrwt beam="2">  1       -2 0.13736711E+00 0.32730348E+04</pdfrwt>
<totfact> 0.54988960E-01</totfact>
</mgrwt>
</event>
<event>
 6    1  0.2047711E-005  0.2166169E+04  0.7818608E-02  0.8532643E-01
          2   -1    0    0  501    0  0.00000000000E+00  0.00000000000E+00  0.25592947656E+04  0.25592947656E+04  0.00000000000E+00 0. -1.
         -2   -1    0    0    0  501 -0.00000000000E+00 -0.00000000000E+00 -0.45835763584E+03  0.45835763584E+03  0.00000000000E+00 0.  1.
         23    2    1    2    0    0  0.71032945346E+03  0.42620950957E+03  0.84569655882E+02  0.83775325969E+03  0.91956614324E+02 0.  0.
         13    1    3    3    0    0  0.49521875082E+03  0.31066702044E+03  0.18921682290E+02  0.58490481176E+03  0.00000000000E+00 0. -1.
        -13    1    3    3    0    0  0.21511070264E+03  0.11554248913E+03  0.65647973592E+02  0.25284844793E+03  0.00000000000E+00 0.  1.
         22    1    1    2    0    0 -0.71032945346E+03 -0.42620950957E+03  0.20163674739E+04  0.21798991418E+04  0.00000000000E+00 0. -1.
<mgrwt>
<rscale>  0 0.21661692E+04</rscale>
<asrwt>0</asrwt>
<pdfrwt beam="1">  1        2 0.39373765E+00 0.21661692E+04</pdfrwt>
<pdfrwt beam="2">  1       -2 0.70516561E-01 0.21661692E+04</pdfrwt>
<totfact> 0.53919685E+00</totfact>
</mgrwt>
</event>
<event>
 6    1  0.2047711E-005  0.2016233E+04  0.7818608E-02  0.8599069E-01
          2   -1    0    0  501    0  0.00000000000E+00  0.00000000000E+00  0.18432404574E+04  0.18432404574E+04  0.00000000000E+00 0. -1.
         -2   -1    0    0    0  501 -0.00000000000E+00 -0.00000000000E+00 -0.55136523693E+03  0.55136523693E+03  0.00000000000E+00 0.  1.
         23    2    1    2    0    0 -0.75913942435E+03  0.45180664042E+03  0.12187713482E+04  0.15081712173E+04  0.93567705527E+02 0.  0.
         11    1    3    3    0    0 -0.15892315184E+03  0.52887434186E+02  0.24161188094E+03  0.29398971052E+03  0.00000000000E+00 0. -1.
        -11    1    3    3    0    0 -0.60021627251E+03  0.39891920623E+03  0.97715946726E+03  0.12141815068E+04  0.00000000000E+00 0.  1.
         22    1    1    2    0    0  0.75913942435E+03 -0.45180664042E+03  0.73103872256E+02  0.88643447703E+03  0.00000000000E+00 0.  1.
<mgrwt>
<rscale>  0 0.20162328E+04</rscale>
<asrwt>0</asrwt>
<pdfrwt beam="1">  1        2 0.28357545E+00 0.20162328E+04</pdfrwt>
<pdfrwt beam="2">  1       -2 0.84825422E-01 0.20162328E+04</pdfrwt>
<totfact> 0.91702448E+00</totfact>
</mgrwt>
</event>
<event>
 6    1  0.2047711E-005  0.1467967E+04  0.7818608E-02  0.8906039E-01
          2   -1    0    0  501    0  0.00000000000E+00  0.00000000000E+00  0.28364400835E+04  0.28364400835E+04  0.00000000000E+00 0. -1.
         -2   -1    0    0    0  501 -0.00000000000E+00 -0.00000000000E+00 -0.18993227550E+03  0.18993227550E+03  0.00000000000E+00 0.  1.
         23    2    1    2    0    0 -0.23241441632E+03 -0.51694804454E+03  0.22810277512E+04  0.23519634225E+04  0.85980216715E+02 0.  0.
         13    1    3    3    0    0 -0.92770243664E+02 -0.11902701605E+03  0.65181624043E+03  0.66905766564E+03  0.00000000000E+00 0.  1.
        -13    1    3    3    0    0 -0.13964417265E+03 -0.39792102849E+03  0.16292115107E+04  0.16829057569E+04  0.00000000000E+00 0. -1.
         22    1    1    2    0    0  0.23241441632E+03  0.51694804454E+03  0.36548005687E+03  0.67440893650E+03  0.00000000000E+00 0.  1.
<mgrwt>
<rscale>  0 0.14679666E+04</rscale>
<asrwt>0</asrwt>
<pdfrwt beam="1">  1        2 0.43637537E+00 0.14679666E+04</pdfrwt>
<pdfrwt beam="2">  1       -2 0.29220352E-01 0.14679666E+04</pdfrwt>
<totfact> 0.23061743E+01</totfact>
</mgrwt>
</event>
<event>
 6    1  0.2047711E-005  0.3093388E+04  0.7818608E-02  0.8217555E-01
          2   -1    0    0  501    0  0.00000000000E+00  0.00000000000E+00  0.25843384100E+04  0.25843384100E+04  0.00000000000E+00 0. -1.
         -2   -1    0    0    0  501 -0.00000000000E+00 -0.00000000000E+00 -0.92567659695E+03  0.92567659695E+03  0.00000000000E+00 0.  1.
         23    2    1    2    0    0  0.14507628659E+04 -0.46965028648E+03  0.11145033566E+04  0.18909434488E+04  0.90912650388E+02 0.  0.
         13    1    3    3    0    0  0.13076908882E+04 -0.40436362872E+03  0.10246860309E+04  0.17098382570E+04  0.00000000000E+00 0.  1.
        -13    1    3    3    0    0  0.14307197771E+03 -0.65286657762E+02  0.89817325700E+02  0.18110519176E+03  0.00000000000E+00 0. -1.
         22    1    1    2    0    0 -0.14507628659E+04  0.46965028648E+03  0.54415845637E+03  0.16190715581E+04  0.00000000000E+00 0.  1.
<mgrwt>
<rscale>  0 0.30933875E+04</rscale>
<asrwt>0</asrwt>
<pdfrwt beam="1">  1        2 0.39759052E+00 0.30933875E+04</pdfrwt>
<pdfrwt beam="2">  1       -2 0.14241179E+00 0.30933875E+04</pdfrwt>
<totfact> 0.90679480E-01</totfact>
</mgrwt>
</event>
<event>
 6    1  0.2047711E-005  0.2100190E+04  0.7818608E-02  0.8561160E-01
          2   -1    0    0  501    0  0.00000000000E+00  0.00000000000E+00  0.22654626501E+04  0.22654626501E+04  0.00000000000E+00 0. -1.
         -2   -1    0    0    0  501 -0.00000000000E+00 -0.00000000000E+00 -0.48674370469E+03  0.48674370469E+03  0.00000000000E+00 0.  1.
         23    2    1    2    0    0 -0.10039833245E+04  0.16213876105E+03  0.12211169968E+04  0.15923824773E+04  0.10140877991E+03 0.  0.
         11    1    3    3    0    0 -0.17104254222E+03 -0.10462441040E+02  0.20981755634E+03  0.27090297317E+03  0.00000000000E+00 0.  1.
        -11    1    3    3    0    0 -0.83294078224E+03  0.17260120209E+03  0.10112994405E+04  0.13214795042E+04  0.00000000000E+00 0. -1.
         22    1    1    2    0    0  0.10039833245E+04 -0.16213876105E+03  0.55760194864E+03  0.11598238775E+04  0.00000000000E+00 0.  1.
<mgrwt>
<rscale>  0 0.21001902E+04</rscale>
<asrwt>0</asrwt>
<pdfrwt beam="1">  1        2 0.34853271E+00 0.21001902E+04</pdfrwt>
<pdfrwt beam="2">  1       -2 0.74883648E-01 0.21001902E+04</pdfrwt>
<totfact> 0.70028944E+00</totfact>
</mgrwt>
</event>
<event>
 6    1  0.2477548E-005  0.5066370E+04  0.7818608E-02  0.7818350E-01
         -2   -1    0    0    0  501 -0.00000000000E+00  0.00000000000E+00  0.30526534216E+04  0.30526534216E+04  0.00000000000E+00 0.  1.
          2   -1    0    0  501    0  0.00000000000E+00 -0.00000000000E+00 -0.21021141894E+04  0.21021141894E+04  0.00000000000E+00 0. -1.
         23    2    1    2    0    0  0.64831238457E+03 -0.70316180487E+03 -0.19102967424E+04  0.21382915302E+04  0.91167715723E+02 0.  0.
         13    1    3    3    0    0  0.29849126651E+03 -0.39037337208E+03 -0.96363523210E+03  0.10817029474E+04  0.00000000000E+00 0.  1.
        -13    1    3    3    0    0  0.34982111806E+03 -0.31278843279E+03 -0.94666151030E+03  0.10565885829E+04  0.00000000000E+00 0. -1.
         22    1    1    2    0    0 -0.64831238457E+03  0.70316180487E+03  0.28608359746E+04  0.30164760807E+04  0.00000000000E+00 0.  1.
<mgrwt>
<rscale>  0 0.50663699E+04</rscale>
<asrwt>0</asrwt>
<pdfrwt beam="1">  1        2 0.32340218E+00 0.50663699E+04</pdfrwt>
<pdfrwt beam="2">  1       -2 0.46963899E+00 0.50663699E+04</pdfrwt>
<totfact> 0.10988314E-02</totfact>
</mgrwt>
</event>
<event>
 6    1  0.2047711E-005  0.4674058E+04  0.7818608E-02  0.7880853E-01
          2   -1    0    0  501    0  0.00000000000E+00  0.00000000000E+00  0.19644280628E+04  0.19644280628E+04  0.00000000000E+00 0. -1.
         -2   -1    0    0    0  501 -0.00000000000E+00 -0.00000000000E+00 -0.27803030231E+04  0.27803030231E+04  0.00000000000E+00 0.  1.
         23    2    1    2    0    0  0.10205199273E+04 -0.16840914879E+04  0.86787630591E+03  0.21538541324E+04  0.90847562486E+02 0.  0.
         13    1    3    3    0    0  0.51190157881E+03 -0.77418434175E+03  0.37949433543E+03  0.10027066231E+04  0.00000000000E+00 0.  1.
        -13    1    3    3    0    0  0.50861834853E+03 -0.90990714617E+03  0.48838197048E+03  0.11511475093E+04  0.00000000000E+00 0. -1.
         22    1    1    2    0    0 -0.10205199273E+04  0.16840914879E+04 -0.16837512662E+04  0.25908769535E+04  0.00000000000E+00 0.  1.
<mgrwt>
<rscale>  0 0.46740583E+04</rscale>
<asrwt>0</asrwt>
<pdfrwt beam="1">  1        2 0.30221970E+00 0.46740583E+04</pdfrwt>
<pdfrwt beam="2">  1       -2 0.42773893E+00 0.46740583E+04</pdfrwt>
<totfact> 0.25486379E-02</totfact>
</mgrwt>
</event>
<event>
 6    1  0.2047711E-005  0.2899465E+04  0.7818608E-02  0.8273037E-01
          2   -1    0    0  501    0  0.00000000000E+00  0.00000000000E+00  0.21524998159E+04  0.21524998159E+04  0.00000000000E+00 0. -1.
         -2   -1    0    0    0  501 -0.00000000000E+00 -0.00000000000E+00 -0.97641107284E+03  0.97641107284E+03  0.00000000000E+00 0.  1.
         23    2    1    2    0    0  0.11785000825E+04  0.41123294787E+03 -0.20412653276E+03  0.12680054130E+04  0.90526815441E+02 0.  0.
         13    1    3    3    0    0  0.86061637232E+03  0.29437867541E+03 -0.10808753309E+03  0.91597066527E+03  0.00000000000E+00 0.  1.
        -13    1    3    3    0    0  0.31788371017E+03  0.11685427246E+03 -0.96038999668E+02  0.35203474778E+03  0.00000000000E+00 0. -1.
         22    1    1    2    0    0 -0.11785000825E+04 -0.41123294787E+03  0.13802152758E+04  0.18609054756E+04  0.00000000000E+00 0. -1.
<mgrwt>
<rscale>  0 0.28994652E+04</rscale>
<asrwt>0</asrwt>
<pdfrwt beam="1">  1        2 0.33115382E+00 0.28994652E+04</pdfrwt>
<pdfrwt beam="2">  1       -2 0.15021709E+00 0.28994652E+04</pdfrwt>
<totfact> 0.14145794E+00</totfact>
</mgrwt>
</event>
<event>
 6    1  0.2047711E-005  0.3518339E+04  0.7818608E-02  0.8109458E-01
          2   -1    0    0  501    0  0.00000000000E+00  0.00000000000E+00  0.28987245624E+04  0.28987245624E+04  0.00000000000E+00 0. -1.
         -2   -1    0    0    0  501 -0.00000000000E+00 -0.00000000000E+00 -0.10675995704E+04  0.10675995704E+04  0.00000000000E+00 0.  1.
         23    2    1    2    0    0 -0.12746381948E+03  0.52357222220E+03 -0.97010763040E+03  0.11137324863E+04  0.94426369707E+02 0.  0.
         13    1    3    3    0    0 -0.62913252436E+02  0.14666591231E+03 -0.35857158202E+03  0.39248254305E+03  0.00000000000E+00 0.  1.
        -13    1    3    3    0    0 -0.64550567041E+02  0.37690630989E+03 -0.61153604839E+03  0.72124994324E+03  0.00000000000E+00 0. -1.
         22    1    1    2    0    0  0.12746381948E+03 -0.52357222220E+03  0.28012326224E+04  0.28525916465E+04  0.00000000000E+00 0. -1.
<mgrwt>
<rscale>  0 0.35183389E+04</rscale>
<asrwt>0</asrwt>
<pdfrwt beam="1">  1        2 0.44595762E+00 0.35183389E+04</pdfrwt>
<pdfrwt beam="2">  1       -2 0.16424609E+00 0.35183389E+04</pdfrwt>
<totfact> 0.38696290E-01</totfact>
</mgrwt>
</event>
<event>
 6    1  0.2047711E-005  0.1869558E+04  0.7818608E-02  0.8670159E-01
         -2   -1    0    0    0  501 -0.00000000000E+00  0.00000000000E+00  0.49635404676E+03  0.49635404676E+03  0.00000000000E+00 0.  1.
          2   -1    0    0  501    0  0.00000000000E+00 -0.00000000000E+00 -0.17604610711E+04  0.17604610711E+04  0.00000000000E+00 0. -1.
         23    2    1    2    0    0  0.10117271330E+03 -0.63398836692E+03  0.18277895576E+03  0.67388864871E+03  0.92415349864E+02 0.  0.
         13    1    3    3    0    0 -0.48803877434E+01 -0.23098388632E+03  0.48574773669E+02  0.23608659971E+03  0.00000000000E+00 0. -1.
        -13    1    3    3    0    0  0.10605310104E+03 -0.40300448059E+03  0.13420418209E+03  0.43780204900E+03  0.00000000000E+00 0.  1.
         22    1    1    2    0    0 -0.10117271330E+03  0.63398836692E+03 -0.14468859801E+04  0.15829264691E+04  0.00000000000E+00 0. -1.
<mgrwt>
<rscale>  0 0.18695582E+04</rscale>
<asrwt>0</asrwt>
<pdfrwt beam="1">  1        2 0.27084016E+00 0.18695582E+04</pdfrwt>
<pdfrwt beam="2">  1       -2 0.76362162E-01 0.18695582E+04</pdfrwt>
<totfact> 0.13071681E+01</totfact>
</mgrwt>
</event>
<event>
 6    1  0.2047711E-005  0.3448384E+04  0.7818608E-02  0.8126132E-01
         -2   -1    0    0    0  501 -0.00000000000E+00  0.00000000000E+00  0.10301165927E+04  0.10301165927E+04  0.00000000000E+00 0.  1.
          2   -1    0    0  501    0  0.00000000000E+00 -0.00000000000E+00 -0.28859235817E+04  0.28859235817E+04  0.00000000000E+00 0. -1.
         23    2    1    2    0    0  0.62853771202E+03 -0.99012263412E+03 -0.23618925239E+04  0.26387285231E+04  0.94601469881E+02 0.  0.
         13    1    3    3    0    0  0.45190111482E+03 -0.67248293201E+03 -0.15423068493E+04  0.17421705797E+04  0.00000000000E+00 0. -1.
        -13    1    3    3    0    0  0.17663659719E+03 -0.31763970211E+03 -0.81958567461E+03  0.89655794339E+03  0.00000000000E+00 0.  1.
         22    1    1    2    0    0 -0.62853771202E+03  0.99012263412E+03  0.50608553486E+03  0.12773116513E+04  0.00000000000E+00 0.  1.
<mgrwt>
<rscale>  0 0.34483838E+04</rscale>
<asrwt>0</asrwt>
<pdfrwt beam="1">  1        2 0.44398824E+00 0.34483838E+04</pdfrwt>
<pdfrwt beam="2">  1       -2 0.15847948E+00 0.34483838E+04</pdfrwt>
<totfact> 0.43697791E-01</totfact>
</mgrwt>
</event>
<event>
 6    1  0.2047711E-005  0.1238365E+04  0.7818608E-02  0.9079923E-01
          2   -1    0    0  501    0  0.00000000000E+00  0.00000000000E+00  0.29049557407E+03  0.29049557407E+03  0.00000000000E+00 0. -1.
         -2   -1    0    0    0  501 -0.00000000000E+00 -0.00000000000E+00 -0.13197690761E+04  0.13197690761E+04  0.00000000000E+00 0.  1.
         23    2    1    2    0    0 -0.48736864413E+03  0.36687941096E+03 -0.62615042174E+03  0.87907594996E+03  0.92636265426E+02 0.  0.
         13    1    3    3    0    0 -0.38270202610E+03  0.33114567729E+03 -0.50247716711E+03  0.71316309764E+03  0.00000000000E+00 0.  1.
        -13    1    3    3    0    0 -0.10466661803E+03  0.35733733674E+02 -0.12367325463E+03  0.16591285232E+03  0.00000000000E+00 0. -1.
         22    1    1    2    0    0  0.48736864413E+03 -0.36687941096E+03 -0.40312308033E+03  0.73118870025E+03  0.00000000000E+00 0.  1.
<mgrwt>
<rscale>  0 0.12383652E+04</rscale>
<asrwt>0</asrwt>
<pdfrwt beam="1">  1        2 0.44691626E-01 0.12383652E+04</pdfrwt>
<pdfrwt beam="2">  1       -2 0.20304140E+00 0.12383652E+04</pdfrwt>
<totfact> 0.14222047E+01</totfact>
</mgrwt>
</event>
<event>
 6    1  0.2047711E-005  0.7985211E+03  0.7818608E-02  0.9562160E-01
          2   -1    0    0  501    0  0.00000000000E+00  0.00000000000E+00  0.11015130225E+04  0.11015130225E+04  0.00000000000E+00 0. -1.
         -2   -1    0    0    0  501 -0.00000000000E+00 -0.00000000000E+00 -0.14471818684E+03  0.14471818684E+03  0.00000000000E+00 0.  1.
         23    2    1    2    0    0  0.30265435248E+03 -0.21670777714E+03  0.26886044982E+03  0.46404476291E+03  0.67005095041E+02 0.  0.
         13    1    3    3    0    0  0.86614136150E+02 -0.10099293502E+03  0.99619181619E+02  0.16620939460E+03  0.00000000000E+00 0.  1.
        -13    1    3    3    0    0  0.21604021633E+03 -0.11571484211E+03  0.16924126820E+03  0.29783536832E+03  0.00000000000E+00 0. -1.
         22    1    1    2    0    0 -0.30265435248E+03  0.21670777714E+03  0.68793438583E+03  0.78218644642E+03  0.00000000000E+00 0. -1.
<mgrwt>
<rscale>  0 0.79852105E+03</rscale>
<asrwt>0</asrwt>
<pdfrwt beam="1">  1        2 0.16946354E+00 0.79852105E+03</pdfrwt>
<pdfrwt beam="2">  1       -2 0.22264337E-01 0.79852105E+03</pdfrwt>
<totfact> 0.38576456E+02</totfact>
</mgrwt>
</event>
<event>
 6    1  0.2047711E-005  0.3684292E+04  0.7818608E-02  0.8071452E-01
          2   -1    0    0  501    0  0.00000000000E+00  0.00000000000E+00  0.24949919870E+04  0.24949919870E+04  0.00000000000E+00 0. -1.
         -2   -1    0    0    0  501 -0.00000000000E+00 -0.00000000000E+00 -0.13601255460E+04  0.13601255460E+04  0.00000000000E+00 0.  1.
         23    2    1    2    0    0  0.52106160102E+02  0.18320359009E+04  0.74957137441E+03  0.19822793439E+04  0.92214736965E+02 0.  0.
         13    1    3    3    0    0  0.57753002112E+02  0.13294027833E+04  0.50484564570E+03  0.14232063432E+04  0.00000000000E+00 0. -1.
        -13    1    3    3    0    0 -0.56468420098E+01  0.50263311767E+03  0.24472572871E+03  0.55907300069E+03  0.00000000000E+00 0.  1.
         22    1    1    2    0    0 -0.52106160102E+02 -0.18320359009E+04  0.38529506652E+03  0.18728381891E+04  0.00000000000E+00 0. -1.
<mgrwt>
<rscale>  0 0.36842922E+04</rscale>
<asrwt>0</asrwt>
<pdfrwt beam="1">  1        2 0.38384492E+00 0.36842922E+04</pdfrwt>
<pdfrwt beam="2">  1       -2 0.20925008E+00 0.36842922E+04</pdfrwt>
<totfact> 0.32843596E-01</totfact>
</mgrwt>
</event>
<event>
 6    1  0.2047711E-005  0.5430444E+04  0.7818608E-02  0.7765333E-01
          2   -1    0    0  501    0  0.00000000000E+00  0.00000000000E+00  0.33167067445E+04  0.33167067445E+04  0.00000000000E+00 0. -1.
         -2   -1    0    0    0  501 -0.00000000000E+00 -0.00000000000E+00 -0.22228162530E+04  0.22228162530E+04  0.00000000000E+00 0.  1.
         23    2    1    2    0    0  0.22688356781E+04 -0.97964236091E+03 -0.59817471191E+03  0.25444605371E+04  0.95665820797E+02 0.  0.
         13    1    3    3    0    0  0.87576228182E+03 -0.34026473740E+03 -0.19570248067E+03  0.95970783404E+03  0.00000000000E+00 0.  1.
        -13    1    3    3    0    0  0.13930733963E+04 -0.63937762351E+03 -0.40247223125E+03  0.15847527030E+04  0.00000000000E+00 0. -1.
         22    1    1    2    0    0 -0.22688356781E+04  0.97964236091E+03  0.16920652034E+04  0.29950624605E+04  0.00000000000E+00 0. -1.
<mgrwt>
<rscale>  0 0.54304437E+04</rscale>
<asrwt>0</asrwt>
<pdfrwt beam="1">  1        2 0.51026257E+00 0.54304437E+04</pdfrwt>
<pdfrwt beam="2">  1       -2 0.34197173E+00 0.54304437E+04</pdfrwt>
<totfact> 0.13332792E-02</totfact>
</mgrwt>
</event>
<event>
 6    1  0.2047711E-005  0.2534663E+04  0.7818608E-02  0.8390740E-01
         -1   -1    0    0    0  501 -0.00000000000E+00  0.00000000000E+00  0.12841334377E+04  0.12841334377E+04  0.00000000000E+00 0.  1.
          1   -1    0    0  501    0  0.00000000000E+00 -0.00000000000E+00 -0.12507498176E+04  0.12507498176E+04  0.00000000000E+00 0. -1.
         23    2    1    2    0    0 -0.77525573049E+03  0.94826804346E+03  0.33647584594E+03  0.12730993486E+04  0.85628421370E+02 0.  0.
         13    1    3    3    0    0 -0.32633012780E+03  0.46611951885E+03  0.15056563951E+03  0.58858199936E+03  0.00000000000E+00 0.  1.
        -13    1    3    3    0    0 -0.44892560269E+03  0.48214852461E+03  0.18591020643E+03  0.68451734923E+03  0.00000000000E+00 0. -1.
         22    1    1    2    0    0  0.77525573049E+03 -0.94826804346E+03 -0.30309222588E+03  0.12617839067E+04  0.00000000000E+00 0.  1.
<mgrwt>
<rscale>  0 0.25346634E+04</rscale>
<asrwt>0</asrwt>
<pdfrwt beam="1">  1        1 0.19242305E+00 0.25346634E+04</pdfrwt>
<pdfrwt beam="2">  1       -1 0.19755899E+00 0.25346634E+04</pdfrwt>
<totfact> 0.13602983E+00</totfact>
</mgrwt>
</event>
<event>
 6    1  0.2047711E-005  0.4830268E+04  0.7818608E-02  0.7855237E-01
          2   -1    0    0  501    0  0.00000000000E+00  0.00000000000E+00  0.25989508832E+04  0.25989508832E+04  0.00000000000E+00 0. -1.
         -2   -1    0    0    0  501 -0.00000000000E+00 -0.00000000000E+00 -0.22443176063E+04  0.22443176063E+04  0.00000000000E+00 0.  1.
         23    2    1    2    0    0  0.18565845037E+03  0.15908713996E+04 -0.16339310489E+04  0.22898924991E+04  0.92391096049E+02 0.  0.
         11    1    3    3    0    0  0.12130827457E+03  0.69088882102E+03 -0.68386566505E+03  0.97965060522E+03  0.00000000000E+00 0. -1.
        -11    1    3    3    0    0  0.64350175806E+02  0.89998257854E+03 -0.95006538389E+03  0.13102418939E+04  0.00000000000E+00 0.  1.
         22    1    1    2    0    0 -0.18565845037E+03 -0.15908713996E+04  0.19885643258E+04  0.25533759904E+04  0.00000000000E+00 0. -1.
<mgrwt>
<rscale>  0 0.48302676E+04</rscale>
<asrwt>0</asrwt>
<pdfrwt beam="1">  1        2 0.39983860E+00 0.48302676E+04</pdfrwt>
<pdfrwt beam="2">  1       -2 0.34527963E+00 0.48302676E+04</pdfrwt>
<totfact> 0.37465579E-02</totfact>
</mgrwt>
</event>
<event>
 6    1  0.2047711E-005  0.1800101E+04  0.7818608E-02  0.8706246E-01
          2   -1    0    0  501    0  0.00000000000E+00  0.00000000000E+00  0.11658700881E+04  0.11658700881E+04  0.00000000000E+00 0. -1.
         -2   -1    0    0    0  501 -0.00000000000E+00 -0.00000000000E+00 -0.69483792230E+03  0.69483792230E+03  0.00000000000E+00 0.  1.
         23    2    1    2    0    0  0.46740753780E+03 -0.11068908445E+03 -0.54640505217E+03  0.73558562935E+03  0.10865476177E+03 0.  0.
         13    1    3    3    0    0  0.26539829507E+03 -0.75474228797E+02 -0.23342277220E+03  0.36141223667E+03  0.00000000000E+00 0.  1.
        -13    1    3    3    0    0  0.20200924274E+03 -0.35214855651E+02 -0.31298227997E+03  0.37417339268E+03  0.00000000000E+00 0. -1.
         22    1    1    2    0    0 -0.46740753780E+03  0.11068908445E+03  0.10174372180E+04  0.11251223810E+04  0.00000000000E+00 0. -1.
<mgrwt>
<rscale>  0 0.18001008E+04</rscale>
<asrwt>0</asrwt>
<pdfrwt beam="1">  1        2 0.17936463E+00 0.18001008E+04</pdfrwt>
<pdfrwt beam="2">  1       -2 0.10689814E+00 0.18001008E+04</pdfrwt>
<totfact> 0.13201231E+01</totfact>
</mgrwt>
</event>
<event>
 6    1  0.2047711E-005  0.2191078E+04  0.7818608E-02  0.8522151E-01
          2   -1    0    0  501    0  0.00000000000E+00  0.00000000000E+00  0.15782785076E+04  0.15782785076E+04  0.00000000000E+00 0. -1.
         -2   -1    0    0    0  501 -0.00000000000E+00 -0.00000000000E+00 -0.76045247135E+03  0.76045247135E+03  0.00000000000E+00 0.  1.
         23    2    1    2    0    0  0.61187116985E+02  0.50165544394E+03 -0.62721336182E+03  0.80786817984E+03  0.62067278265E+02 0.  0.
         13    1    3    3    0    0  0.16303976197E+02  0.36311703864E+03 -0.44217350453E+03  0.57239602680E+03  0.00000000000E+00 0.  1.
        -13    1    3    3    0    0  0.44883140788E+02  0.13853840531E+03 -0.18503985729E+03  0.23547215304E+03  0.00000000000E+00 0. -1.
         22    1    1    2    0    0 -0.61187116985E+02 -0.50165544394E+03  0.14450393981E+04  0.15308627991E+04  0.00000000000E+00 0. -1.
<mgrwt>
<rscale>  0 0.21910781E+04</rscale>
<asrwt>0</asrwt>
<pdfrwt beam="1">  1        2 0.24281208E+00 0.21910781E+04</pdfrwt>
<pdfrwt beam="2">  1       -2 0.11699269E+00 0.21910781E+04</pdfrwt>
<totfact> 0.59319520E+00</totfact>
</mgrwt>
</event>
<event>
 6    1  0.2047711E-005  0.3047223E+04  0.7818608E-02  0.8230373E-01
         -2   -1    0    0    0  501 -0.00000000000E+00  0.00000000000E+00  0.11502280920E+04  0.11502280920E+04  0.00000000000E+00 0.  1.
          2   -1    0    0  501    0  0.00000000000E+00 -0.00000000000E+00 -0.20182016840E+04  0.20182016840E+04  0.00000000000E+00 0. -1.
         23    2    1    2    0    0 -0.70692801161E+03 -0.12301062782E+04  0.13892512714E+03  0.14286729827E+04  0.94327257301E+02 0.  0.
         13    1    3    3    0    0 -0.26449213053E+03 -0.42764465335E+03  0.91601122019E+02  0.51110351418E+03  0.00000000000E+00 0. -1.
        -13    1    3    3    0    0 -0.44243588108E+03 -0.80246162481E+03  0.47324005124E+02  0.91756946855E+03  0.00000000000E+00 0.  1.
         22    1    1    2    0    0  0.70692801161E+03  0.12301062782E+04 -0.10068987192E+04  0.17397567933E+04  0.00000000000E+00 0. -1.
<mgrwt>
<rscale>  0 0.30472232E+04</rscale>
<asrwt>0</asrwt>
<pdfrwt beam="1">  1        2 0.31049256E+00 0.30472232E+04</pdfrwt>
<pdfrwt beam="2">  1       -2 0.17695817E+00 0.30472232E+04</pdfrwt>
<totfact> 0.10596289E+00</totfact>
</mgrwt>
</event>
<event>
 6    1  0.2047711E-005  0.1539308E+04  0.7818608E-02  0.8858726E-01
          2   -1    0    0  501    0  0.00000000000E+00  0.00000000000E+00  0.10278571541E+04  0.10278571541E+04  0.00000000000E+00 0. -1.
         -2   -1    0    0    0  501 -0.00000000000E+00 -0.00000000000E+00 -0.57631285363E+03  0.57631285363E+03  0.00000000000E+00 0.  1.
         23    2    1    2    0    0 -0.57807976038E+03  0.49552337658E+03  0.32247716067E+03  0.83191489917E+03  0.91494558399E+02 0.  0.
         11    1    3    3    0    0 -0.37460325100E+03  0.33150991442E+03  0.16474502819E+03  0.52665676045E+03  0.00000000000E+00 0.  1.
        -11    1    3    3    0    0 -0.20347650938E+03  0.16401346216E+03  0.15773213248E+03  0.30525813872E+03  0.00000000000E+00 0. -1.
         22    1    1    2    0    0  0.57807976038E+03 -0.49552337658E+03  0.12906713979E+03  0.77225510854E+03  0.00000000000E+00 0.  1.
<mgrwt>
<rscale>  0 0.15393080E+04</rscale>
<asrwt>0</asrwt>
<pdfrwt beam="1">  1        2 0.15813187E+00 0.15393080E+04</pdfrwt>
<pdfrwt beam="2">  1       -2 0.88663516E-01 0.15393080E+04</pdfrwt>
<totfact> 0.25482575E+01</totfact>
</mgrwt>
</event>
<event>
 6    1  0.2047711E-005  0.1097953E+04  0.7818608E-02  0.9207189E-01
          1   -1    0    0  501    0  0.00000000000E+00  0.00000000000E+00  0.83982319335E+03  0.83982319335E+03  0.00000000000E+00 0. -1.
         -1   -1    0    0    0  501 -0.00000000000E+00 -0.00000000000E+00 -0.35885582537E+03  0.35885582537E+03  0.00000000000E+00 0.  1.
         23    2    1    2    0    0 -0.21950267355E+03  0.78560876798E+02  0.78013907160E+03  0.81939424007E+03  0.91851589879E+02 0.  0.
         11    1    3    3    0    0 -0.17119974757E+03  0.42811593302E+02  0.44145986248E+03  0.47542506904E+03  0.00000000000E+00 0. -1.
        -11    1    3    3    0    0 -0.48302925972E+02  0.35749283496E+02  0.33867920912E+03  0.34396917103E+03  0.00000000000E+00 0.  1.
         22    1    1    2    0    0  0.21950267355E+03 -0.78560876798E+02 -0.29917170363E+03  0.37928477864E+03  0.00000000000E+00 0.  1.
<mgrwt>
<rscale>  0 0.10979535E+04</rscale>
<asrwt>0</asrwt>
<pdfrwt beam="1">  1        1 0.12920357E+00 0.10979535E+04</pdfrwt>
<pdfrwt beam="2">  1       -1 0.55208589E-01 0.10979535E+04</pdfrwt>
<totfact> 0.67520006E+01</totfact>
</mgrwt>
</event>
<event>
 6    1  0.2047711E-005  0.2253797E+04  0.7818608E-02  0.8496365E-01
         -2   -1    0    0    0  501 -0.00000000000E+00  0.00000000000E+00  0.47845720930E+03  0.47845720930E+03  0.00000000000E+00 0.  1.
          2   -1    0    0  501    0  0.00000000000E+00 -0.00000000000E+00 -0.26541554370E+04  0.26541554370E+04  0.00000000000E+00 0. -1.
         23    2    1    2    0    0  0.89620751639E+03  0.62586922417E+03 -0.71928886290E+03  0.13116160960E+04  0.89778153938E+02 0.  0.
         11    1    3    3    0    0  0.10942247803E+03  0.91838689288E+02 -0.62444279384E+02  0.15590673999E+03  0.00000000000E+00 0.  1.
        -11    1    3    3    0    0  0.78678503836E+03  0.53403053488E+03 -0.65684458352E+03  0.11557093561E+04  0.00000000000E+00 0. -1.
         22    1    1    2    0    0 -0.89620751639E+03 -0.62586922417E+03 -0.14564093648E+04  0.18209965503E+04  0.00000000000E+00 0. -1.
<mgrwt>
<rscale>  0 0.22537966E+04</rscale>
<asrwt>0</asrwt>
<pdfrwt beam="1">  1        2 0.40833161E+00 0.22537966E+04</pdfrwt>
<pdfrwt beam="2">  1       -2 0.73608801E-01 0.22537966E+04</pdfrwt>
<totfact> 0.42835482E+00</totfact>
</mgrwt>
</event>
<event>
 6    1  0.2047711E-005  0.4324929E+04  0.7818608E-02  0.7942025E-01
          2   -1    0    0  501    0  0.00000000000E+00  0.00000000000E+00  0.37077771148E+04  0.37077771148E+04  0.00000000000E+00 0. -1.
         -2   -1    0    0    0  501 -0.00000000000E+00 -0.00000000000E+00 -0.12612010160E+04  0.12612010160E+04  0.00000000000E+00 0.  1.
         23    2    1    2    0    0  0.81119944693E+03  0.43953276917E+03 -0.10219608817E+04  0.13798302676E+04  0.91070992635E+02 0.  0.
         11    1    3    3    0    0  0.24595597646E+03  0.88069833576E+02 -0.30278521155E+03  0.39991189314E+03  0.00000000000E+00 0. -1.
        -11    1    3    3    0    0  0.56524347048E+03  0.35146293559E+03 -0.71917567019E+03  0.97991837446E+03  0.00000000000E+00 0.  1.
         22    1    1    2    0    0 -0.81119944693E+03 -0.43953276917E+03  0.34685369806E+04  0.35891478631E+04  0.00000000000E+00 0. -1.
<mgrwt>
<rscale>  0 0.43249288E+04</rscale>
<asrwt>0</asrwt>
<pdfrwt beam="1">  1        2 0.57042725E+00 0.43249288E+04</pdfrwt>
<pdfrwt beam="2">  1       -2 0.19403093E+00 0.43249288E+04</pdfrwt>
<totfact> 0.64309694E-02</totfact>
</mgrwt>
</event>
<event>
 6    1  0.2047711E-005  0.1969041E+04  0.7818608E-02  0.8621233E-01
         -2   -1    0    0    0  501 -0.00000000000E+00  0.00000000000E+00  0.74430921846E+03  0.74430921846E+03  0.00000000000E+00 0.  1.
          2   -1    0    0  501    0  0.00000000000E+00 -0.00000000000E+00 -0.13022558509E+04  0.13022558509E+04  0.00000000000E+00 0. -1.
         23    2    1    2    0    0  0.64010516292E+03 -0.23528046686E+03  0.45539902095E+03  0.82510654328E+03  0.91219634923E+02 0.  0.
         13    1    3    3    0    0  0.18290566716E+03 -0.87780536648E+02  0.92131971679E+02  0.22281877367E+03  0.00000000000E+00 0. -1.
        -13    1    3    3    0    0  0.45719949576E+03 -0.14749993021E+03  0.36326704927E+03  0.60228776961E+03  0.00000000000E+00 0.  1.
         22    1    1    2    0    0 -0.64010516292E+03  0.23528046686E+03 -0.10133456534E+04  0.12214585261E+04  0.00000000000E+00 0. -1.
<mgrwt>
<rscale>  0 0.19690414E+04</rscale>
<asrwt>0</asrwt>
<pdfrwt beam="1">  1        2 0.20034706E+00 0.19690414E+04</pdfrwt>
<pdfrwt beam="2">  1       -2 0.11450911E+00 0.19690414E+04</pdfrwt>
<totfact> 0.91481231E+00</totfact>
</mgrwt>
</event>
<event>
 6    1  0.2047711E-005  0.2884311E+04  0.7818608E-02  0.8277561E-01
          2   -1    0    0  501    0  0.00000000000E+00  0.00000000000E+00  0.13365172351E+04  0.13365172351E+04  0.00000000000E+00 0. -1.
         -2   -1    0    0    0  501 -0.00000000000E+00 -0.00000000000E+00 -0.15561432955E+04  0.15561432955E+04  0.00000000000E+00 0.  1.
         23    2    1    2    0    0 -0.74416922868E+03  0.99256991191E+03 -0.84606282885E+03  0.15029102309E+04  0.62721453238E+02 0.  0.
         13    1    3    3    0    0 -0.61118986345E+03  0.77610355384E+03 -0.66146219738E+03  0.11888742633E+04  0.00000000000E+00 0. -1.
        -13    1    3    3    0    0 -0.13297936523E+03  0.21646635808E+03 -0.18460063147E+03  0.31403596752E+03  0.00000000000E+00 0.  1.
         22    1    1    2    0    0  0.74416922868E+03 -0.99256991191E+03  0.62643676847E+03  0.13897502998E+04  0.00000000000E+00 0. -1.
<mgrwt>
<rscale>  0 0.28843109E+04</rscale>
<asrwt>0</asrwt>
<pdfrwt beam="1">  1        2 0.20561804E+00 0.28843109E+04</pdfrwt>
<pdfrwt beam="2">  1       -2 0.23940666E+00 0.28843109E+04</pdfrwt>
<totfact> 0.10163137E+00</totfact>
</mgrwt>
</event>
<event>
 6    1  0.2047711E-005  0.6130790E+04  0.7818608E-02  0.7674394E-01
         -2   -1    0    0    0  501 -0.00000000000E+00  0.00000000000E+00  0.50070160253E+04  0.50070160253E+04  0.00000000000E+00 0.  1.
          2   -1    0    0  501    0  0.00000000000E+00 -0.00000000000E+00 -0.18766957030E+04  0.18766957030E+04  0.00000000000E+00 0. -1.
         23    2    1    2    0    0  0.11936050545E+04  0.12424263511E+04 -0.12803786977E+04  0.21484628321E+04  0.90590657491E+02 0.  0.
         11    1    3    3    0    0  0.46255454270E+03  0.42996983582E+03 -0.50034524812E+03  0.80571467159E+03  0.00000000000E+00 0. -1.
        -11    1    3    3    0    0  0.73105051179E+03  0.81245651531E+03 -0.78003344957E+03  0.13427481605E+04  0.00000000000E+00 0.  1.
         22    1    1    2    0    0 -0.11936050545E+04 -0.12424263511E+04  0.44106990200E+04  0.47352488962E+04  0.00000000000E+00 0.  1.
<mgrwt>
<rscale>  0 0.61307897E+04</rscale>
<asrwt>0</asrwt>
<pdfrwt beam="1">  1        2 0.28872242E+00 0.61307897E+04</pdfrwt>
<pdfrwt beam="2">  1       -2 0.77031015E+00 0.61307897E+04</pdfrwt>
<totfact> 0.60356485E-04</totfact>
</mgrwt>
</event>
<event>
 6    1  0.2047711E-005  0.1119018E+04  0.7818608E-02  0.9186852E-01
         -1   -1    0    0    0  501 -0.00000000000E+00  0.00000000000E+00  0.44589099519E+03  0.44589099519E+03  0.00000000000E+00 0.  1.
          1   -1    0    0  501    0  0.00000000000E+00 -0.00000000000E+00 -0.70207770924E+03  0.70207770924E+03  0.00000000000E+00 0. -1.
         23    2    1    2    0    0 -0.40543481344E+02  0.30249169039E+03  0.34793712137E+03  0.47113001969E+03  0.88080976348E+02 0.  0.
         13    1    3    3    0    0 -0.35264088427E+02  0.26066518803E+03  0.33713541454E+03  0.42760985011E+03  0.00000000000E+00 0. -1.
        -13    1    3    3    0    0 -0.52793929174E+01  0.41826502365E+02  0.10801706835E+02  0.43520169579E+02  0.00000000000E+00 0.  1.
         22    1    1    2    0    0  0.40543481344E+02 -0.30249169039E+03 -0.60412383542E+03  0.67683868474E+03  0.00000000000E+00 0. -1.
<mgrwt>
<rscale>  0 0.11190177E+04</rscale>
<asrwt>0</asrwt>
<pdfrwt beam="1">  1        1 0.10801195E+00 0.11190177E+04</pdfrwt>
<pdfrwt beam="2">  1       -1 0.68598615E-01 0.11190177E+04</pdfrwt>
<totfact> 0.58071004E+01</totfact>
</mgrwt>
</event>
<event>
 6    1  0.2047711E-005  0.1991632E+04  0.7818608E-02  0.8610543E-01
          1   -1    0    0  501    0  0.00000000000E+00  0.00000000000E+00  0.11942696198E+04  0.11942696198E+04  0.00000000000E+00 0. -1.
         -1   -1    0    0    0  501 -0.00000000000E+00 -0.00000000000E+00 -0.83033956241E+03  0.83033956241E+03  0.00000000000E+00 0.  1.
         23    2    1    2    0    0 -0.31111510450E+03  0.81219538450E+03  0.67067313215E+03  0.11023590726E+04  0.94546939965E+02 0.  0.
         11    1    3    3    0    0 -0.25145498604E+03  0.60647069345E+03  0.45791205490E+03  0.80044972487E+03  0.00000000000E+00 0.  1.
        -11    1    3    3    0    0 -0.59660118452E+02  0.20572469105E+03  0.21276107725E+03  0.30190934771E+03  0.00000000000E+00 0. -1.
         22    1    1    2    0    0  0.31111510450E+03 -0.81219538450E+03 -0.30674307475E+03  0.92225010965E+03  0.00000000000E+00 0.  1.
<mgrwt>
<rscale>  0 0.19916318E+04</rscale>
<asrwt>0</asrwt>
<pdfrwt beam="1">  1        1 0.18373379E+00 0.19916318E+04</pdfrwt>
<pdfrwt beam="2">  1       -1 0.12774455E+00 0.19916318E+04</pdfrwt>
<totfact> 0.53092515E+00</totfact>
</mgrwt>
</event>
<event>
 6    1  0.2047711E-005  0.1693459E+04  0.7818608E-02  0.8765104E-01
         -2   -1    0    0    0  501 -0.00000000000E+00  0.00000000000E+00  0.12194344308E+04  0.12194344308E+04  0.00000000000E+00 0. -1.
          2   -1    0    0  501    0  0.00000000000E+00 -0.00000000000E+00 -0.58793705392E+03  0.58793705392E+03  0.00000000000E+00 0.  1.
         23    2    1    2    0    0  0.21866393202E+03 -0.27876386395E+03 -0.50127944333E+03  0.62048204952E+03  0.90518983970E+02 0.  0.
         13    1    3    3    0    0  0.71489771343E+02 -0.83887294820E+02 -0.23267276754E+03  0.25745772933E+03  0.00000000000E+00 0.  1.
        -13    1    3    3    0    0  0.14717416068E+03 -0.19487656913E+03 -0.26860667579E+03  0.36302432018E+03  0.00000000000E+00 0. -1.
         22    1    1    2    0    0 -0.21866393202E+03  0.27876386395E+03  0.11327768202E+04  0.11868894352E+04  0.00000000000E+00 0. -1.
<mgrwt>
<rscale>  0 0.16934588E+04</rscale>
<asrwt>0</asrwt>
<pdfrwt beam="1">  1        2 0.90451855E-01 0.16934588E+04</pdfrwt>
<pdfrwt beam="2">  1       -2 0.18760530E+00 0.16934588E+04</pdfrwt>
<totfact> 0.77773774E+00</totfact>
</mgrwt>
</event>
<event>
 6    1  0.2047711E-005  0.1218790E+04  0.7818608E-02  0.9096567E-01
         -2   -1    0    0    0  501 -0.00000000000E+00  0.00000000000E+00  0.23181770567E+03  0.23181770567E+03  0.00000000000E+00 0.  1.
          2   -1    0    0  501    0  0.00000000000E+00 -0.00000000000E+00 -0.16019573426E+04  0.16019573426E+04  0.00000000000E+00 0. -1.
         23    2    1    2    0    0  0.45349794596E+02  0.28733037441E+03 -0.14886346466E+04  0.15196788604E+04  0.93676997994E+02 0.  0.
         11    1    3    3    0    0  0.18850715248E+02  0.22782875597E+03 -0.94993651255E+03  0.97705714745E+03  0.00000000000E+00 0. -1.
        -11    1    3    3    0    0  0.26499079347E+02  0.59501618448E+02 -0.53869813403E+03  0.54262171299E+03  0.00000000000E+00 0.  1.
         22    1    1    2    0    0 -0.45349794596E+02 -0.28733037441E+03  0.11849500960E+03  0.31409618786E+03  0.00000000000E+00 0.  1.
<mgrwt>
<rscale>  0 0.12187897E+04</rscale>
<asrwt>0</asrwt>
<pdfrwt beam="1">  1        2 0.24645499E+00 0.12187897E+04</pdfrwt>
<pdfrwt beam="2">  1       -2 0.35664261E-01 0.12187897E+04</pdfrwt>
<totfact> 0.80976999E+01</totfact>
</mgrwt>
</event>
<event>
 6    1  0.2047711E-005  0.3693519E+04  0.7818608E-02  0.8069400E-01
         -1   -1    0    0    0  501 -0.00000000000E+00  0.00000000000E+00  0.19150705486E+04  0.19150705486E+04  0.00000000000E+00 0.  1.
          1   -1    0    0  501    0  0.00000000000E+00 -0.00000000000E+00 -0.17808852132E+04  0.17808852132E+04  0.00000000000E+00 0. -1.
         23    2    1    2    0    0  0.17545517566E+04 -0.17181271025E+03  0.61385833793E+03  0.18689205504E+04  0.89835910056E+02 0.  0.
         13    1    3    3    0    0  0.83436335622E+03 -0.56799563123E+02  0.25152676548E+03  0.87330070097E+03  0.00000000000E+00 0. -1.
        -13    1    3    3    0    0  0.92018840038E+03 -0.11501314713E+03  0.36233157245E+03  0.99561984944E+03  0.00000000000E+00 0.  1.
         22    1    1    2    0    0 -0.17545517566E+04  0.17181271025E+03 -0.47967300253E+03  0.18270352113E+04  0.00000000000E+00 0. -1.
<mgrwt>
<rscale>  0 0.36935191E+04</rscale>
<asrwt>0</asrwt>
<pdfrwt beam="1">  1        1 0.27398234E+00 0.36935191E+04</pdfrwt>
<pdfrwt beam="2">  1       -1 0.29462624E+00 0.36935191E+04</pdfrwt>
<totfact> 0.12057735E-01</totfact>
</mgrwt>
</event>
<event>
 6    1  0.2047711E-005  0.4405702E+03  0.7818608E-02  0.1030572E+00
          2   -1    0    0  501    0  0.00000000000E+00  0.00000000000E+00  0.34996886640E+03  0.34996886640E+03  0.00000000000E+00 0. -1.
         -2   -1    0    0    0  501 -0.00000000000E+00 -0.00000000000E+00 -0.13865670125E+03  0.13865670125E+03  0.00000000000E+00 0.  1.
         23    2    1    2    0    0  0.54701643180E+02  0.19713612433E+03  0.54499289983E+02  0.23085590476E+03  0.92029097949E+02 0.  0.
         13    1    3    3    0    0  0.61254422135E+02  0.58851289408E+02  0.10494178036E+02  0.85590339809E+02  0.00000000000E+00 0. -1.
        -13    1    3    3    0    0 -0.65527789547E+01  0.13828483493E+03  0.44005111947E+02  0.14526556495E+03  0.00000000000E+00 0.  1.
         22    1    1    2    0    0 -0.54701643180E+02 -0.19713612433E+03  0.15681287517E+03  0.25776966288E+03  0.00000000000E+00 0. -1.
<mgrwt>
<rscale>  0 0.44057021E+03</rscale>
<asrwt>0</asrwt>
<pdfrwt beam="1">  1        2 0.53841364E-01 0.44057021E+03</pdfrwt>
<pdfrwt beam="2">  1       -2 0.21331800E-01 0.44057021E+03</pdfrwt>
<totfact> 0.17492134E+03</totfact>
</mgrwt>
</event>
<event>
 6    1  0.2047711E-005  0.1163977E+04  0.7818608E-02  0.9144985E-01
         -2   -1    0    0    0  501 -0.00000000000E+00  0.00000000000E+00  0.90163314102E+03  0.90163314102E+03  0.00000000000E+00 0.  1.
          2   -1    0    0  501    0  0.00000000000E+00 -0.00000000000E+00 -0.37566319510E+03  0.37566319510E+03  0.00000000000E+00 0. -1.
         23    2    1    2    0    0 -0.21734018287E+03  0.15225014466E+03 -0.29948952909E+03  0.41023220555E+03  0.90441267110E+02 0.  0.
         13    1    3    3    0    0 -0.13676996617E+03  0.13748505901E+03 -0.24220701957E+03  0.31027794867E+03  0.00000000000E+00 0.  1.
        -13    1    3    3    0    0 -0.80570216694E+02  0.14765085652E+02 -0.57282509518E+02  0.99954256883E+02  0.00000000000E+00 0. -1.
         22    1    1    2    0    0  0.21734018287E+03 -0.15225014466E+03  0.82545947501E+03  0.86706413057E+03  0.00000000000E+00 0.  1.
<mgrwt>
<rscale>  0 0.11639766E+04</rscale>
<asrwt>0</asrwt>
<pdfrwt beam="1">  1        2 0.57794338E-01 0.11639766E+04</pdfrwt>
<pdfrwt beam="2">  1       -2 0.13871279E+00 0.11639766E+04</pdfrwt>
<totfact> 0.31025978E+01</totfact>
</mgrwt>
</event>
<event>
 6    1  0.2047711E-005  0.5251148E+04  0.7818608E-02  0.7790891E-01
         -2   -1    0    0    0  501 -0.00000000000E+00  0.00000000000E+00  0.16618659129E+04  0.16618659129E+04  0.00000000000E+00 0.  1.
          2   -1    0    0  501    0  0.00000000000E+00 -0.00000000000E+00 -0.41481311888E+04  0.41481311888E+04  0.00000000000E+00 0. -1.
         23    2    1    2    0    0 -0.64325466127E+03  0.16732250559E+04  0.87768900450E+03  0.19982196885E+04  0.95316776783E+02 0.  0.
         13    1    3    3    0    0 -0.31142004139E+03  0.92462042754E+03  0.45072556190E+03  0.10747366698E+04  0.00000000000E+00 0. -1.
        -13    1    3    3    0    0 -0.33183461989E+03  0.74860462836E+03  0.42696344261E+03  0.92348301873E+03  0.00000000000E+00 0.  1.
         22    1    1    2    0    0  0.64325466127E+03 -0.16732250559E+04 -0.33639542804E+04  0.38117774132E+04  0.00000000000E+00 0. -1.
<mgrwt>
<rscale>  0 0.52511476E+04</rscale>
<asrwt>0</asrwt>
<pdfrwt beam="1">  1        2 0.63817402E+00 0.52511476E+04</pdfrwt>
<pdfrwt beam="2">  1       -2 0.25567168E+00 0.52511476E+04</pdfrwt>
<totfact> 0.10840481E-02</totfact>
</mgrwt>
</event>
<event>
 6    1  0.2047711E-005  0.1623188E+04  0.7818608E-02  0.8806428E-01
          2   -1    0    0  501    0  0.00000000000E+00  0.00000000000E+00  0.31260333638E+04  0.31260333638E+04  0.00000000000E+00 0. -1.
         -2   -1    0    0    0  501 -0.00000000000E+00 -0.00000000000E+00 -0.21070957867E+03  0.21070957867E+03  0.00000000000E+00 0.  1.
         23    2    1    2    0    0 -0.54071613397E+03  0.60177399106E+03  0.14300825323E+04  0.16454572028E+04  0.88811505352E+02 0.  0.
         13    1    3    3    0    0 -0.19925255616E+03  0.24917190880E+03  0.48530071767E+03  0.58077965515E+03  0.00000000000E+00 0. -1.
        -13    1    3    3    0    0 -0.34146357781E+03  0.35260208226E+03  0.94478181459E+03  0.10646775477E+04  0.00000000000E+00 0.  1.
         22    1    1    2    0    0  0.54071613397E+03 -0.60177399106E+03  0.14852412529E+04  0.16912857396E+04  0.00000000000E+00 0.  1.
<mgrwt>
<rscale>  0 0.16231884E+04</rscale>
<asrwt>0</asrwt>
<pdfrwt beam="1">  1        2 0.48092818E+00 0.16231884E+04</pdfrwt>
<pdfrwt beam="2">  1       -2 0.32416860E-01 0.16231884E+04</pdfrwt>
<totfact> 0.12373225E+01</totfact>
</mgrwt>
</event>
<event>
 6    1  0.2047711E-005  0.2644629E+04  0.7818608E-02  0.8353198E-01
         -2   -1    0    0    0  501 -0.00000000000E+00  0.00000000000E+00  0.23951616547E+04  0.23951616547E+04  0.00000000000E+00 0.  1.
          2   -1    0    0  501    0  0.00000000000E+00 -0.00000000000E+00 -0.73002001352E+03  0.73002001352E+03  0.00000000000E+00 0. -1.
         23    2    1    2    0    0  0.11735206764E+04  0.10920947992E+03  0.12915963924E+03  0.11891242830E+04  0.90867263024E+02 0.  0.
         13    1    3    3    0    0  0.75297211440E+03  0.10798131315E+03  0.61389936350E+02  0.76314853949E+03  0.00000000000E+00 0. -1.
        -13    1    3    3    0    0  0.42054856205E+03  0.12281667740E+01  0.67769702889E+02  0.42597574352E+03  0.00000000000E+00 0.  1.
         22    1    1    2    0    0 -0.11735206764E+04 -0.10920947992E+03  0.15359820020E+04  0.19360573852E+04  0.00000000000E+00 0. -1.
<mgrwt>
<rscale>  0 0.26446292E+04</rscale>
<asrwt>0</asrwt>
<pdfrwt beam="1">  1        2 0.11231077E+00 0.26446292E+04</pdfrwt>
<pdfrwt beam="2">  1       -2 0.36848640E+00 0.26446292E+04</pdfrwt>
<totfact> 0.40635317E-01</totfact>
</mgrwt>
</event>
<event>
 6    1  0.2047711E-005  0.4240816E+04  0.7818608E-02  0.7957653E-01
          2   -1    0    0  501    0  0.00000000000E+00  0.00000000000E+00  0.16559044501E+04  0.16559044501E+04  0.00000000000E+00 0. -1.
         -2   -1    0    0    0  501 -0.00000000000E+00 -0.00000000000E+00 -0.27152113388E+04  0.27152113388E+04  0.00000000000E+00 0.  1.
         23    2    1    2    0    0 -0.63815885355E+03  0.56419427385E+03  0.14704027332E+04  0.17018475986E+04  0.92947028075E+02 0.  0.
         13    1    3    3    0    0 -0.50330380454E+03  0.44207648602E+03  0.12271670258E+04  0.13981005859E+04  0.00000000000E+00 0. -1.
        -13    1    3    3    0    0 -0.13485504901E+03  0.12211778783E+03  0.24323570735E+03  0.30374701263E+03  0.00000000000E+00 0.  1.
         22    1    1    2    0    0  0.63815885355E+03 -0.56419427385E+03 -0.25297096219E+04  0.26692681903E+04  0.00000000000E+00 0.  1.
<mgrwt>
<rscale>  0 0.42408162E+04</rscale>
<asrwt>0</asrwt>
<pdfrwt beam="1">  1        2 0.25475453E+00 0.42408162E+04</pdfrwt>
<pdfrwt beam="2">  1       -2 0.41772482E+00 0.42408162E+04</pdfrwt>
<totfact> 0.45572587E-02</totfact>
</mgrwt>
</event>
<event>
 6    1  0.2077388E-005  0.4027548E+04  0.7818608E-02  0.7999012E-01
          1   -1    0    0  501    0  0.00000000000E+00  0.00000000000E+00  0.20666933943E+04  0.20666933943E+04  0.00000000000E+00 0. -1.
         -1   -1    0    0    0  501 -0.00000000000E+00 -0.00000000000E+00 -0.19622094526E+04  0.19622094526E+04  0.00000000000E+00 0.  1.
         23    2    1    2    0    0 -0.24618444146E+03  0.26536626053E+03  0.20329873700E+04  0.20667225533E+04  0.85313741493E+02 0.  0.
         13    1    3    3    0    0 -0.16887776620E+03  0.16045303120E+03  0.10778263549E+04  0.11027123498E+04  0.00000000000E+00 0.  1.
        -13    1    3    3    0    0 -0.77306675258E+02  0.10491322933E+03  0.95516101511E+03  0.96401020353E+03  0.00000000000E+00 0. -1.
         22    1    1    2    0    0  0.24618444146E+03 -0.26536626053E+03 -0.19285034283E+04  0.19621802935E+04  0.00000000000E+00 0.  1.
<mgrwt>
<rscale>  0 0.40275478E+04</rscale>
<asrwt>0</asrwt>
<pdfrwt beam="1">  1        1 0.31795283E+00 0.40275478E+04</pdfrwt>
<pdfrwt beam="2">  1       -1 0.30187838E+00 0.40275478E+04</pdfrwt>
<totfact> 0.67322943E-02</totfact>
</mgrwt>
</event>
<event>
 6    1  0.2047711E-005  0.1921734E+04  0.7818608E-02  0.8644113E-01
          3   -1    0    0  501    0  0.00000000000E+00  0.00000000000E+00  0.24489869749E+03  0.24489869749E+03  0.00000000000E+00 0. -1.
         -3   -1    0    0    0  501 -0.00000000000E+00 -0.00000000000E+00 -0.37699891501E+04  0.37699891501E+04  0.00000000000E+00 0.  1.
         23    2    1    2    0    0  0.65270658761E+03  0.66350584686E+03 -0.12858653049E+04  0.15899352376E+04  0.90435497579E+02 0.  0.
         13    1    3    3    0    0  0.40761575907E+03  0.36628301860E+03 -0.80406173045E+03  0.97305144938E+03  0.00000000000E+00 0.  1.
        -13    1    3    3    0    0  0.24509082854E+03  0.29722282826E+03 -0.48180357444E+03  0.61688378826E+03  0.00000000000E+00 0. -1.
         22    1    1    2    0    0 -0.65270658761E+03 -0.66350584686E+03 -0.22392251477E+04  0.24249526099E+04  0.00000000000E+00 0. -1.
<mgrwt>
<rscale>  0 0.19217340E+04</rscale>
<asrwt>0</asrwt>
<pdfrwt beam="1">  1        3 0.37676724E-01 0.19217340E+04</pdfrwt>
<pdfrwt beam="2">  1       -3 0.57999831E+00 0.19217340E+04</pdfrwt>
<totfact> 0.19942108E-02</totfact>
</mgrwt>
</event>
<event>
 6    1  0.2047711E-005  0.1421183E+04  0.7818608E-02  0.8938626E-01
          2   -1    0    0  501    0  0.00000000000E+00  0.00000000000E+00  0.76519585876E+03  0.76519585876E+03  0.00000000000E+00 0. -1.
         -2   -1    0    0    0  501 -0.00000000000E+00 -0.00000000000E+00 -0.65988381979E+03  0.65988381979E+03  0.00000000000E+00 0.  1.
         23    2    1    2    0    0 -0.61528614544E+03 -0.34526815171E+03 -0.22938781065E+01  0.71138074290E+03  0.90940431772E+02 0.  0.
         13    1    3    3    0    0 -0.41515786127E+03 -0.26985676388E+03 -0.28170975452E+02  0.49595597249E+03  0.00000000000E+00 0. -1.
        -13    1    3    3    0    0 -0.20012828417E+03 -0.75411387829E+02  0.25877097346E+02  0.21542477041E+03  0.00000000000E+00 0.  1.
         22    1    1    2    0    0  0.61528614544E+03  0.34526815171E+03  0.10760591707E+03  0.71369893565E+03  0.00000000000E+00 0.  1.
<mgrwt>
<rscale>  0 0.14211831E+04</rscale>
<asrwt>0</asrwt>
<pdfrwt beam="1">  1        2 0.11772244E+00 0.14211831E+04</pdfrwt>
<pdfrwt beam="2">  1       -2 0.10152059E+00 0.14211831E+04</pdfrwt>
<totfact> 0.28295675E+01</totfact>
</mgrwt>
</event>
<event>
 6    1  0.2047711E-005  0.1376432E+04  0.7818608E-02  0.8971057E-01
         -2   -1    0    0    0  501 -0.00000000000E+00  0.00000000000E+00  0.55759543479E+03  0.55759543479E+03  0.00000000000E+00 0. -1.
          2   -1    0    0  501    0  0.00000000000E+00 -0.00000000000E+00 -0.84943495288E+03  0.84943495288E+03  0.00000000000E+00 0.  1.
         23    2    1    2    0    0 -0.46649768853E+03 -0.18688358657E+03  0.32965693112E+03  0.60777860962E+03  0.90418901469E+02 0.  0.
         11    1    3    3    0    0 -0.31973769618E+03 -0.15712695666E+03  0.26812356839E+03  0.44588263343E+03  0.00000000000E+00 0. -1.
        -11    1    3    3    0    0 -0.14675999235E+03 -0.29756629913E+02  0.61533362731E+02  0.16189597619E+03  0.00000000000E+00 0.  1.
         22    1    1    2    0    0  0.46649768853E+03  0.18688358657E+03 -0.62149644921E+03  0.79925177805E+03  0.00000000000E+00 0.  1.
<mgrwt>
<rscale>  0 0.13764317E+04</rscale>
<asrwt>0</asrwt>
<pdfrwt beam="1">  1        2 0.13068230E+00 0.13764317E+04</pdfrwt>
<pdfrwt beam="2">  1       -2 0.85783913E-01 0.13764317E+04</pdfrwt>
<totfact> 0.36557157E+01</totfact>
</mgrwt>
</event>
<event>
 6    1  0.2047711E-005  0.3966707E+04  0.7818608E-02  0.8011297E-01
         -2   -1    0    0    0  501 -0.00000000000E+00  0.00000000000E+00  0.10542221047E+04  0.10542221047E+04  0.00000000000E+00 0.  1.
          2   -1    0    0  501    0  0.00000000000E+00 -0.00000000000E+00 -0.37313688756E+04  0.37313688756E+04  0.00000000000E+00 0. -1.
         23    2    1    2    0    0  0.18274890639E+04 -0.63286190150E+03 -0.81435411457E+03  0.21004044048E+04  0.91080045939E+02 0.  0.
         13    1    3    3    0    0  0.73189364565E+03 -0.23076170073E+03 -0.28082742841E+03  0.81718009987E+03  0.00000000000E+00 0.  1.
        -13    1    3    3    0    0  0.10955954183E+04 -0.40210020077E+03 -0.53352668616E+03  0.12832243050E+04  0.00000000000E+00 0. -1.
         22    1    1    2    0    0 -0.18274890639E+04  0.63286190150E+03 -0.18627926563E+04  0.26851865755E+04  0.00000000000E+00 0.  1.
<mgrwt>
<rscale>  0 0.39667072E+04</rscale>
<asrwt>0</asrwt>
<pdfrwt beam="1">  1        2 0.57405676E+00 0.39667072E+04</pdfrwt>
<pdfrwt beam="2">  1       -2 0.16218801E+00 0.39667072E+04</pdfrwt>
<totfact> 0.10593796E-01</totfact>
</mgrwt>
</event>
<event>
 6    1  0.2047711E-005  0.2735044E+04  0.7818608E-02  0.8323723E-01
         -2   -1    0    0    0  501 -0.00000000000E+00  0.00000000000E+00  0.79573739929E+03  0.79573739929E+03  0.00000000000E+00 0.  1.
          2   -1    0    0  501    0  0.00000000000E+00 -0.00000000000E+00 -0.23501681550E+04  0.23501681550E+04  0.00000000000E+00 0. -1.
         23    2    1    2    0    0 -0.57194831888E+03  0.38771222682E+03 -0.21334896063E+04  0.22443764073E+04  0.89453378915E+02 0.  0.
         13    1    3    3    0    0 -0.29607202587E+03  0.14846550877E+03 -0.10509640776E+04  0.11019193002E+04  0.00000000000E+00 0.  1.
        -13    1    3    3    0    0 -0.27587629301E+03  0.23924671805E+03 -0.10825255287E+04  0.11424571071E+04  0.00000000000E+00 0. -1.
         22    1    1    2    0    0  0.57194831888E+03 -0.38771222682E+03  0.57905885066E+03  0.90152914696E+03  0.00000000000E+00 0.  1.
<mgrwt>
<rscale>  0 0.27350442E+04</rscale>
<asrwt>0</asrwt>
<pdfrwt beam="1">  1        2 0.36156432E+00 0.27350442E+04</pdfrwt>
<pdfrwt beam="2">  1       -2 0.12242114E+00 0.27350442E+04</pdfrwt>
<totfact> 0.18758132E+00</totfact>
</mgrwt>
</event>
<event>
 6    1  0.2047711E-005  0.2107834E+04  0.7818608E-02  0.8557800E-01
         -2   -1    0    0    0  501 -0.00000000000E+00  0.00000000000E+00  0.85750880239E+03  0.85750880239E+03  0.00000000000E+00 0.  1.
          2   -1    0    0  501    0  0.00000000000E+00 -0.00000000000E+00 -0.12953121107E+04  0.12953121107E+04  0.00000000000E+00 0. -1.
         23    2    1    2    0    0  0.80208071877E+03 -0.56742254585E+03 -0.60319411149E+03  0.11564997085E+04  0.91359809092E+02 0.  0.
         11    1    3    3    0    0  0.39529646140E+03 -0.32490040175E+03 -0.28179997675E+03  0.58414963010E+03  0.00000000000E+00 0. -1.
        -11    1    3    3    0    0  0.40678425737E+03 -0.24252214410E+03 -0.32139413474E+03  0.57235007842E+03  0.00000000000E+00 0.  1.
         22    1    1    2    0    0 -0.80208071877E+03  0.56742254585E+03  0.16539080315E+03  0.99632120459E+03  0.00000000000E+00 0.  1.
<mgrwt>
<rscale>  0 0.21078345E+04</rscale>
<asrwt>0</asrwt>
<pdfrwt beam="1">  1        2 0.19927879E+00 0.21078345E+04</pdfrwt>
<pdfrwt beam="2">  1       -2 0.13192443E+00 0.21078345E+04</pdfrwt>
<totfact> 0.64113647E+00</totfact>
</mgrwt>
</event>
<event>
 6    1  0.2155506E-005  0.3043172E+04  0.7818608E-02  0.8231509E-01
         -2   -1    0    0    0  501 -0.00000000000E+00  0.00000000000E+00  0.93269273176E+03  0.93269273176E+03  0.00000000000E+00 0.  1.
          2   -1    0    0  501    0  0.00000000000E+00 -0.00000000000E+00 -0.24823013991E+04  0.24823013991E+04  0.00000000000E+00 0. -1.
         23    2    1    2    0    0  0.67332888127E+03 -0.92531777487E+03  0.34755304381E+03  0.11994112899E+04  0.90606607156E+02 0.  0.
         11    1    3    3    0    0  0.50369118204E+03 -0.62316854612E+03  0.25188958336E+03  0.83993583442E+03  0.00000000000E+00 0.  1.
        -11    1    3    3    0    0  0.16963769923E+03 -0.30214922875E+03  0.95663460455E+02  0.35947545549E+03  0.00000000000E+00 0. -1.
         22    1    1    2    0    0 -0.67332888127E+03  0.92531777487E+03 -0.18971617112E+04  0.22155828410E+04  0.00000000000E+00 0. -1.
<mgrwt>
<rscale>  0 0.30431723E+04</rscale>
<asrwt>0</asrwt>
<pdfrwt beam="1">  1        2 0.38189252E+00 0.30431723E+04</pdfrwt>
<pdfrwt beam="2">  1       -2 0.14349119E+00 0.30431723E+04</pdfrwt>
<totfact> 0.10237598E+00</totfact>
</mgrwt>
</event>
<event>
 6    1  0.2047711E-005  0.4428289E+04  0.7818608E-02  0.7923313E-01
         -1   -1    0    0    0  501 -0.00000000000E+00  0.00000000000E+00  0.15672372828E+04  0.15672372828E+04  0.00000000000E+00 0.  1.
          1   -1    0    0  501    0  0.00000000000E+00 -0.00000000000E+00 -0.31280756690E+04  0.31280756690E+04  0.00000000000E+00 0. -1.
         23    2    1    2    0    0  0.19669946399E+04  0.97285420498E+03 -0.10854633244E+04  0.24499856557E+04  0.93197999724E+02 0.  0.
         13    1    3    3    0    0  0.16816923694E+04  0.86081443056E+03 -0.95496632631E+03  0.21168494027E+04  0.00000000000E+00 0. -1.
        -13    1    3    3    0    0  0.28530227042E+03  0.11203977443E+03 -0.13049699804E+03  0.33313625299E+03  0.00000000000E+00 0.  1.
         22    1    1    2    0    0 -0.19669946399E+04 -0.97285420498E+03 -0.47537506181E+03  0.22453272961E+04  0.00000000000E+00 0. -1.
<mgrwt>
<rscale>  0 0.44282894E+04</rscale>
<asrwt>0</asrwt>
<pdfrwt beam="1">  1        1 0.48124241E+00 0.44282894E+04</pdfrwt>
<pdfrwt beam="2">  1       -1 0.24111343E+00 0.44282894E+04</pdfrwt>
<totfact> 0.28969805E-02</totfact>
</mgrwt>
</event>
<event>
 6    1  0.2047711E-005  0.1627484E+04  0.7818608E-02  0.8803839E-01
          2   -1    0    0  501    0  0.00000000000E+00  0.00000000000E+00  0.19165261202E+04  0.19165261202E+04  0.00000000000E+00 0. -1.
         -2   -1    0    0    0  501 -0.00000000000E+00 -0.00000000000E+00 -0.34550851948E+03  0.34550851948E+03  0.00000000000E+00 0.  1.
         23    2    1    2    0    0 -0.39976416850E+03 -0.67397207629E+03  0.49614577465E+03  0.93184698655E+03  0.90157787252E+02 0.  0.
         13    1    3    3    0    0 -0.12039714832E+03 -0.15323002879E+03  0.89075849900E+02  0.21426484098E+03  0.00000000000E+00 0. -1.
        -13    1    3    3    0    0 -0.27936702019E+03 -0.52074204750E+03  0.40706992475E+03  0.71758214557E+03  0.00000000000E+00 0.  1.
         22    1    1    2    0    0  0.39976416850E+03  0.67397207629E+03  0.10748718261E+04  0.13301876531E+04  0.00000000000E+00 0. -1.
<mgrwt>
<rscale>  0 0.16274841E+04</rscale>
<asrwt>0</asrwt>
<pdfrwt beam="1">  1        2 0.29485017E+00 0.16274841E+04</pdfrwt>
<pdfrwt beam="2">  1       -2 0.53155158E-01 0.16274841E+04</pdfrwt>
<totfact> 0.23742004E+01</totfact>
</mgrwt>
</event>
<event>
 6    1  0.2047711E-005  0.9703939E+03  0.7818608E-02  0.9341626E-01
          1   -1    0    0  501    0  0.00000000000E+00  0.00000000000E+00  0.52150336448E+03  0.52150336448E+03  0.00000000000E+00 0. -1.
         -1   -1    0    0    0  501 -0.00000000000E+00 -0.00000000000E+00 -0.45141816075E+03  0.45141816075E+03  0.00000000000E+00 0.  1.
         23    2    1    2    0    0 -0.14018699344E+03  0.28492813406E+03  0.39804110933E+03  0.51642233495E+03  0.86132854415E+02 0.  0.
         13    1    3    3    0    0 -0.34772143255E+02  0.32517693782E+02  0.24805575193E+02  0.53682575535E+02  0.00000000000E+00 0.  1.
        -13    1    3    3    0    0 -0.10541485019E+03  0.25241044028E+03  0.37323553414E+03  0.46273975941E+03  0.00000000000E+00 0. -1.
         22    1    1    2    0    0  0.14018699344E+03 -0.28492813406E+03 -0.32795590560E+03  0.45649919028E+03  0.00000000000E+00 0.  1.
<mgrwt>
<rscale>  0 0.97039392E+03</rscale>
<asrwt>0</asrwt>
<pdfrwt beam="1">  1        1 0.80231286E-01 0.97039392E+03</pdfrwt>
<pdfrwt beam="2">  1       -1 0.69448948E-01 0.97039392E+03</pdfrwt>
<totfact> 0.88076883E+01</totfact>
</mgrwt>
</event>
<event>
 6    1  0.2047711E-005  0.5266823E+03  0.7818608E-02  0.1007040E+00
          2   -1    0    0  501    0  0.00000000000E+00  0.00000000000E+00  0.11659668731E+04  0.11659668731E+04  0.00000000000E+00 0. -1.
         -2   -1    0    0    0  501 -0.00000000000E+00 -0.00000000000E+00 -0.59477294824E+02  0.59477294824E+02  0.00000000000E+00 0.  1.
         23    2    1    2    0    0  0.16906278919E+03 -0.80038151592E+02  0.16272525464E+03  0.26332181034E+03  0.88716035201E+02 0.  0.
         11    1    3    3    0    0  0.15368228484E+03 -0.92440844178E+02  0.16466195011E+03  0.24346891416E+03  0.00000000000E+00 0. -1.
        -11    1    3    3    0    0  0.15380504348E+02  0.12402692586E+02 -0.19366954691E+01  0.19852896180E+02  0.00000000000E+00 0.  1.
         22    1    1    2    0    0 -0.16906278919E+03  0.80038151592E+02  0.94376432362E+03  0.96212235757E+03  0.00000000000E+00 0. -1.
<mgrwt>
<rscale>  0 0.52668228E+03</rscale>
<asrwt>0</asrwt>
<pdfrwt beam="1">  1        2 0.17937950E+00 0.52668228E+03</pdfrwt>
<pdfrwt beam="2">  1       -2 0.91503540E-02 0.52668228E+03</pdfrwt>
<totfact> 0.15910339E+03</totfact>
</mgrwt>
</event>
<event>
 6    1  0.2047711E-005  0.7623390E+03  0.7818608E-02  0.9616189E-01
          2   -1    0    0  501    0  0.00000000000E+00  0.00000000000E+00  0.16841838422E+04  0.16841838422E+04  0.00000000000E+00 0. -1.
         -2   -1    0    0    0  501 -0.00000000000E+00 -0.00000000000E+00 -0.86267415523E+02  0.86267415523E+02  0.00000000000E+00 0.  1.
         23    2    1    2    0    0  0.21210651356E+03 -0.28899994688E+03  0.10723467044E+04  0.11342644334E+04  0.90101099766E+02 0.  0.
         11    1    3    3    0    0  0.11995367631E+03 -0.11465262389E+03  0.59708550106E+03  0.61971380830E+03  0.00000000000E+00 0.  1.
        -11    1    3    3    0    0  0.92152837257E+02 -0.17434732299E+03  0.47526120330E+03  0.51455062512E+03  0.00000000000E+00 0. -1.
         22    1    1    2    0    0 -0.21210651356E+03  0.28899994688E+03  0.52556972230E+03  0.63618682429E+03  0.00000000000E+00 0.  1.
<mgrwt>
<rscale>  0 0.76233900E+03</rscale>
<asrwt>0</asrwt>
<pdfrwt beam="1">  1        2 0.25910518E+00 0.76233900E+03</pdfrwt>
<pdfrwt beam="2">  1       -2 0.13271911E-01 0.76233900E+03</pdfrwt>
<totfact> 0.43740694E+02</totfact>
</mgrwt>
</event>
<event>
 6    1  0.2047711E-005  0.2614180E+04  0.7818608E-02  0.8363401E-01
          2   -1    0    0  501    0  0.00000000000E+00  0.00000000000E+00  0.13541729553E+04  0.13541729553E+04  0.00000000000E+00 0. -1.
         -2   -1    0    0    0  501 -0.00000000000E+00 -0.00000000000E+00 -0.12616439913E+04  0.12616439913E+04  0.00000000000E+00 0.  1.
         23    2    1    2    0    0 -0.40780456171E+03  0.56592781688E+03 -0.10579202758E+04  0.12704128036E+04  0.90413090615E+02 0.  0.
         13    1    3    3    0    0 -0.27478233352E+03  0.33936673489E+03 -0.59349471604E+03  0.73682500604E+03  0.00000000000E+00 0.  1.
        -13    1    3    3    0    0 -0.13302222819E+03  0.22656108200E+03 -0.46442555981E+03  0.53358779753E+03  0.00000000000E+00 0. -1.
         22    1    1    2    0    0  0.40780456171E+03 -0.56592781688E+03  0.11504492398E+04  0.13454041430E+04  0.00000000000E+00 0. -1.
<mgrwt>
<rscale>  0 0.26141799E+04</rscale>
<asrwt>0</asrwt>
<pdfrwt beam="1">  1        2 0.20833430E+00 0.26141799E+04</pdfrwt>
<pdfrwt beam="2">  1       -2 0.19409908E+00 0.26141799E+04</pdfrwt>
<totfact> 0.19770081E+00</totfact>
</mgrwt>
</event>
<event>
 6    1  0.2047711E-005  0.4990975E+04  0.7818608E-02  0.7829901E-01
         -2   -1    0    0    0  501 -0.00000000000E+00  0.00000000000E+00  0.21173227752E+04  0.21173227752E+04  0.00000000000E+00 0.  1.
          2   -1    0    0  501    0  0.00000000000E+00 -0.00000000000E+00 -0.29411943528E+04  0.29411943528E+04  0.00000000000E+00 0. -1.
         23    2    1    2    0    0  0.82097477571E+03  0.62358559418E+02 -0.27987960731E+04  0.29188407657E+04  0.92107458322E+02 0.  0.
         11    1    3    3    0    0  0.57685643293E+03  0.91809644855E+01 -0.18648217874E+04  0.19520266220E+04  0.00000000000E+00 0. -1.
        -11    1    3    3    0    0  0.24411834278E+03  0.53177594933E+02 -0.93397428572E+03  0.96681414360E+03  0.00000000000E+00 0.  1.
         22    1    1    2    0    0 -0.82097477571E+03 -0.62358559418E+02  0.19749244956E+04  0.21396763623E+04  0.00000000000E+00 0.  1.
<mgrwt>
<rscale>  0 0.49909750E+04</rscale>
<asrwt>0</asrwt>
<pdfrwt beam="1">  1        2 0.45249144E+00 0.49909750E+04</pdfrwt>
<pdfrwt beam="2">  1       -2 0.32574197E+00 0.49909750E+04</pdfrwt>
<totfact> 0.30441399E-02</totfact>
</mgrwt>
</event>
<event>
 6    1  0.2047711E-005  0.7843700E+03  0.7818608E-02  0.9582921E-01
         -1   -1    0    0    0  501 -0.00000000000E+00  0.00000000000E+00  0.97847049081E+02  0.97847049081E+02  0.00000000000E+00 0.  1.
          1   -1    0    0  501    0  0.00000000000E+00 -0.00000000000E+00 -0.15719337048E+04  0.15719337048E+04  0.00000000000E+00 0. -1.
         23    2    1    2    0    0  0.28928867830E+03 -0.12653049768E+03 -0.27111088326E+03  0.42605706457E+03  0.91244753336E+02 0.  0.
         11    1    3    3    0    0  0.16710202464E+03 -0.36518476254E+02 -0.18335010490E+03  0.25074677807E+03  0.00000000000E+00 0. -1.
        -11    1    3    3    0    0  0.12218665366E+03 -0.90012021421E+02 -0.87760778364E+02  0.17531028650E+03  0.00000000000E+00 0.  1.
         22    1    1    2    0    0 -0.28928867830E+03  0.12653049768E+03 -0.12029757725E+04  0.12437236893E+04  0.00000000000E+00 0. -1.
<mgrwt>
<rscale>  0 0.78437000E+03</rscale>
<asrwt>0</asrwt>
<pdfrwt beam="1">  1        1 0.24183595E+00 0.78437000E+03</pdfrwt>
<pdfrwt beam="2">  1       -1 0.15053392E-01 0.78437000E+03</pdfrwt>
<totfact> 0.19414062E+02</totfact>
</mgrwt>
</event>
<event>
 6    1  0.2047711E-005  0.1556236E+04  0.7818608E-02  0.8847894E-01
          4   -1    0    0  501    0  0.00000000000E+00  0.00000000000E+00  0.62060622168E+03  0.62060622168E+03  0.00000000000E+00 0. -1.
         -4   -1    0    0    0  501 -0.00000000000E+00 -0.00000000000E+00 -0.97560730176E+03  0.97560730176E+03  0.00000000000E+00 0.  1.
         23    2    1    2    0    0 -0.67893775630E+03 -0.48422144550E+02  0.20293777419E+03  0.71610162936E+03  0.91195517228E+02 0.  0.
         13    1    3    3    0    0 -0.46210441542E+03  0.95504477559E+01  0.14208789896E+03  0.48355007273E+03  0.00000000000E+00 0.  1.
        -13    1    3    3    0    0 -0.21683334088E+03 -0.57972592306E+02  0.60849875228E+02  0.23255155663E+03  0.00000000000E+00 0. -1.
         22    1    1    2    0    0  0.67893775630E+03  0.48422144550E+02 -0.55793885427E+03  0.88011189409E+03  0.00000000000E+00 0.  1.
<mgrwt>
<rscale>  0 0.15562364E+04</rscale>
<asrwt>0</asrwt>
<pdfrwt beam="1">  1        4 0.95477881E-01 0.15562364E+04</pdfrwt>
<pdfrwt beam="2">  1       -4 0.15009343E+00 0.15562364E+04</pdfrwt>
<totfact> 0.52726773E-01</totfact>
</mgrwt>
</event>
<event>
 6    1  0.2047711E-005  0.1627083E+04  0.7818608E-02  0.8804080E-01
          2   -1    0    0  501    0  0.00000000000E+00  0.00000000000E+00  0.25567698729E+04  0.25567698729E+04  0.00000000000E+00 0. -1.
         -2   -1    0    0    0  501 -0.00000000000E+00 -0.00000000000E+00 -0.25886180354E+03  0.25886180354E+03  0.00000000000E+00 0.  1.
         23    2    1    2    0    0 -0.53807871581E+03 -0.16203094981E+03  0.14365106662E+03  0.58928804461E+03  0.10412510493E+03 0.  0.
         11    1    3    3    0    0 -0.30383884114E+03 -0.12522624919E+03  0.12441473626E+03  0.35139533501E+03  0.00000000000E+00 0.  1.
        -11    1    3    3    0    0 -0.23423987467E+03 -0.36804700624E+02  0.19236330356E+02  0.23789270960E+03  0.00000000000E+00 0. -1.
         22    1    1    2    0    0  0.53807871581E+03  0.16203094981E+03  0.21542570027E+04  0.22263436318E+04  0.00000000000E+00 0. -1.
<mgrwt>
<rscale>  0 0.16270834E+04</rscale>
<asrwt>0</asrwt>
<pdfrwt beam="1">  1        2 0.39334920E+00 0.16270834E+04</pdfrwt>
<pdfrwt beam="2">  1       -2 0.39824894E-01 0.16270834E+04</pdfrwt>
<totfact> 0.18458590E+01</totfact>
</mgrwt>
</event>
<event>
 6    1  0.2047711E-005  0.1168722E+04  0.7818608E-02  0.9140684E-01
          2   -1    0    0  501    0  0.00000000000E+00  0.00000000000E+00  0.76055390082E+03  0.76055390082E+03  0.00000000000E+00 0. -1.
         -2   -1    0    0    0  501 -0.00000000000E+00 -0.00000000000E+00 -0.44898527409E+03  0.44898527409E+03  0.00000000000E+00 0.  1.
         23    2    1    2    0    0 -0.52947176019E+02 -0.91996667620E+02  0.74777009573E+03  0.76060876620E+03  0.89993271210E+02 0.  0.
         13    1    3    3    0    0 -0.78151000014E+02 -0.77585197934E+02  0.58932102599E+03  0.59952173723E+03  0.00000000000E+00 0. -1.
        -13    1    3    3    0    0  0.25203823994E+02 -0.14411469687E+02  0.15844906974E+03  0.16108702897E+03  0.00000000000E+00 0.  1.
         22    1    1    2    0    0  0.52947176019E+02  0.91996667620E+02 -0.43620146900E+03  0.44893040871E+03  0.00000000000E+00 0.  1.
<mgrwt>
<rscale>  0 0.11687215E+04</rscale>
<asrwt>0</asrwt>
<pdfrwt beam="1">  1        2 0.11700829E+00 0.11687215E+04</pdfrwt>
<pdfrwt beam="2">  1       -2 0.69074658E-01 0.11687215E+04</pdfrwt>
<totfact> 0.69708186E+01</totfact>
</mgrwt>
</event>
<event>
 6    1  0.2047711E-005  0.6176049E+04  0.7818608E-02  0.7668949E-01
          2   -1    0    0  501    0  0.00000000000E+00  0.00000000000E+00  0.38461436722E+04  0.38461436722E+04  0.00000000000E+00 0. -1.
         -2   -1    0    0    0  501 -0.00000000000E+00 -0.00000000000E+00 -0.24793390590E+04  0.24793390590E+04  0.00000000000E+00 0.  1.
         23    2    1    2    0    0  0.15864033092E+03  0.30376369097E+04  0.12248407316E+04  0.32803951309E+04  0.91392815568E+02 0.  0.
         13    1    3    3    0    0  0.13846901183E+03  0.23333951833E+04  0.97845107664E+03  0.25340231368E+04  0.00000000000E+00 0. -1.
        -13    1    3    3    0    0  0.20171319097E+02  0.70424172645E+03  0.24638965499E+03  0.74637199403E+03  0.00000000000E+00 0.  1.
         22    1    1    2    0    0 -0.15864033092E+03 -0.30376369097E+04  0.14196388152E+03  0.30450876003E+04  0.00000000000E+00 0.  1.
<mgrwt>
<rscale>  0 0.61760487E+04</rscale>
<asrwt>0</asrwt>
<pdfrwt beam="1">  1        2 0.59171441E+00 0.61760487E+04</pdfrwt>
<pdfrwt beam="2">  1       -2 0.38143678E+00 0.61760487E+04</pdfrwt>
<totfact> 0.29358454E-03</totfact>
</mgrwt>
</event>
<event>
 6    1  0.2047711E-005  0.1429815E+04  0.7818608E-02  0.8932515E-01
         -2   -1    0    0    0  501 -0.00000000000E+00  0.00000000000E+00  0.19721071886E+03  0.19721071886E+03  0.00000000000E+00 0.  1.
          2   -1    0    0  501    0  0.00000000000E+00 -0.00000000000E+00 -0.25916083445E+04  0.25916083445E+04  0.00000000000E+00 0. -1.
         23    2    1    2    0    0 -0.11289812262E+03 -0.50589972607E+03 -0.21540534625E+04  0.22174646762E+04  0.92318752928E+02 0.  0.
         13    1    3    3    0    0 -0.64728719533E+02 -0.19284292129E+03 -0.10155705705E+04  0.10357421412E+04  0.00000000000E+00 0. -1.
        -13    1    3    3    0    0 -0.48169403091E+02 -0.31305680478E+03 -0.11384828920E+04  0.11817225350E+04  0.00000000000E+00 0.  1.
         22    1    1    2    0    0  0.11289812262E+03  0.50589972607E+03 -0.24034416315E+03  0.57135438713E+03  0.00000000000E+00 0.  1.
<mgrwt>
<rscale>  0 0.14298153E+04</rscale>
<asrwt>0</asrwt>
<pdfrwt beam="1">  1        2 0.39870899E+00 0.14298153E+04</pdfrwt>
<pdfrwt beam="2">  1       -2 0.30340110E-01 0.14298153E+04</pdfrwt>
<totfact> 0.30140180E+01</totfact>
</mgrwt>
</event>
<event>
 6    1  0.2047711E-005  0.4164169E+04  0.7818608E-02  0.7972223E-01
         -2   -1    0    0    0  501 -0.00000000000E+00  0.00000000000E+00  0.15013041037E+04  0.15013041037E+04  0.00000000000E+00 0.  1.
          2   -1    0    0  501    0  0.00000000000E+00 -0.00000000000E+00 -0.28875397613E+04  0.28875397613E+04  0.00000000000E+00 0. -1.
         23    2    1    2    0    0  0.17236247021E+04  0.65633660619E+03 -0.17094397754E+04  0.25163800453E+04  0.91237778864E+02 0.  0.
         13    1    3    3    0    0  0.36365031819E+03  0.10003619986E+03 -0.33857220552E+03  0.50683324037E+03  0.00000000000E+00 0. -1.
        -13    1    3    3    0    0  0.13599743839E+04  0.55630040633E+03 -0.13708675699E+04  0.20095468049E+04  0.00000000000E+00 0.  1.
         22    1    1    2    0    0 -0.17236247021E+04 -0.65633660619E+03  0.32320411771E+03  0.18724638197E+04  0.00000000000E+00 0.  1.
<mgrwt>
<rscale>  0 0.41641687E+04</rscale>
<asrwt>0</asrwt>
<pdfrwt beam="1">  1        2 0.44423689E+00 0.41641687E+04</pdfrwt>
<pdfrwt beam="2">  1       -2 0.23096986E+00 0.41641687E+04</pdfrwt>
<totfact> 0.13416812E-01</totfact>
</mgrwt>
</event>
<event>
 6    1  0.2047711E-005  0.3790224E+04  0.7818608E-02  0.8048256E-01
         -2   -1    0    0    0  501 -0.00000000000E+00  0.00000000000E+00  0.13332170266E+04  0.13332170266E+04  0.00000000000E+00 0.  1.
          2   -1    0    0  501    0  0.00000000000E+00 -0.00000000000E+00 -0.26938217245E+04  0.26938217245E+04  0.00000000000E+00 0. -1.
         23    2    1    2    0    0  0.14985422208E+04 -0.10308274777E+04 -0.12419368193E+04  0.22043165721E+04  0.91489949461E+02 0.  0.
         11    1    3    3    0    0  0.11128351077E+04 -0.73993887074E+03 -0.86990718893E+03  0.15945689157E+04  0.00000000000E+00 0. -1.
        -11    1    3    3    0    0  0.38570711302E+03 -0.29088860699E+03 -0.37202963035E+03  0.60974765647E+03  0.00000000000E+00 0.  1.
         22    1    1    2    0    0 -0.14985422208E+04  0.10308274777E+04 -0.11866787859E+03  0.18227221790E+04  0.00000000000E+00 0. -1.
<mgrwt>
<rscale>  0 0.37902237E+04</rscale>
<asrwt>0</asrwt>
<pdfrwt beam="1">  1        2 0.41443411E+00 0.37902237E+04</pdfrwt>
<pdfrwt beam="2">  1       -2 0.20511031E+00 0.37902237E+04</pdfrwt>
<totfact> 0.26461669E-01</totfact>
</mgrwt>
</event>
<event>
 6    1  0.2047711E-005  0.1395739E+04  0.7818608E-02  0.8956909E-01
         -2   -1    0    0    0  501 -0.00000000000E+00  0.00000000000E+00  0.54447763381E+03  0.54447763381E+03  0.00000000000E+00 0.  1.
          2   -1    0    0  501    0  0.00000000000E+00 -0.00000000000E+00 -0.89447550404E+03  0.89447550404E+03  0.00000000000E+00 0. -1.
         23    2    1    2    0    0 -0.24831426913E+03  0.50075590255E+03  0.24995363462E+03  0.61897859045E+03  0.90781197334E+02 0.  0.
         11    1    3    3    0    0 -0.19539515832E+03  0.29573074692E+03  0.15174979548E+03  0.38556963443E+03  0.00000000000E+00 0. -1.
        -11    1    3    3    0    0 -0.52919110814E+02  0.20502515562E+03  0.98203839141E+02  0.23340895602E+03  0.00000000000E+00 0.  1.
         22    1    1    2    0    0  0.24831426913E+03 -0.50075590255E+03 -0.59995150485E+03  0.81997454739E+03  0.00000000000E+00 0. -1.
<mgrwt>
<rscale>  0 0.13957391E+04</rscale>
<asrwt>0</asrwt>
<pdfrwt beam="1">  1        2 0.13761162E+00 0.13957391E+04</pdfrwt>
<pdfrwt beam="2">  1       -2 0.83765790E-01 0.13957391E+04</pdfrwt>
<totfact> 0.35881493E+01</totfact>
</mgrwt>
</event>
<event>
 6    1  0.2047711E-005  0.7914095E+03  0.7818608E-02  0.9572535E-01
          2   -1    0    0  501    0  0.00000000000E+00  0.00000000000E+00  0.20777691057E+04  0.20777691057E+04  0.00000000000E+00 0.  1.
         -2   -1    0    0    0  501 -0.00000000000E+00 -0.00000000000E+00 -0.75360751301E+02  0.75360751301E+02  0.00000000000E+00 0. -1.
         23    2    1    2    0    0  0.22367503710E+03 -0.26399829069E+03  0.52189506965E+03  0.63272030493E+03  0.90746354380E+02 0.  0.
         13    1    3    3    0    0  0.14274702507E+03 -0.13012529468E+03  0.35382317237E+03  0.40311306452E+03  0.00000000000E+00 0.  1.
        -13    1    3    3    0    0  0.80928012029E+02 -0.13387299601E+03  0.16807189728E+03  0.22960724041E+03  0.00000000000E+00 0. -1.
         22    1    1    2    0    0 -0.22367503710E+03  0.26399829069E+03  0.14805132847E+04  0.15204095520E+04  0.00000000000E+00 0.  1.
<mgrwt>
<rscale>  0 0.79140948E+03</rscale>
<asrwt>0</asrwt>
<pdfrwt beam="1">  1        2 0.31965674E+00 0.79140948E+03</pdfrwt>
<pdfrwt beam="2">  1       -2 0.11593963E-01 0.79140948E+03</pdfrwt>
<totfact> 0.33298848E+02</totfact>
</mgrwt>
</event>
<event>
 6    1  0.2047711E-005  0.5001557E+04  0.7818608E-02  0.7828267E-01
         -2   -1    0    0    0  501 -0.00000000000E+00  0.00000000000E+00  0.34792835413E+04  0.34792835413E+04  0.00000000000E+00 0.  1.
          2   -1    0    0  501    0  0.00000000000E+00 -0.00000000000E+00 -0.17974654585E+04  0.17974654585E+04  0.00000000000E+00 0. -1.
         23    2    1    2    0    0  0.19568825604E+04  0.12265056907E+04  0.18509774717E+04  0.29610805297E+04  0.90414257761E+02 0.  0.
         11    1    3    3    0    0  0.72805721383E+03  0.47209135930E+03  0.74914543373E+03  0.11463666250E+04  0.00000000000E+00 0. -1.
        -11    1    3    3    0    0  0.12288253466E+04  0.75441433139E+03  0.11018320380E+04  0.18147139046E+04  0.00000000000E+00 0.  1.
         22    1    1    2    0    0 -0.19568825604E+04 -0.12265056907E+04 -0.16915938885E+03  0.23156684701E+04  0.00000000000E+00 0. -1.
<mgrwt>
<rscale>  0 0.50015566E+04</rscale>
<asrwt>0</asrwt>
<pdfrwt beam="1">  1        2 0.27653315E+00 0.50015566E+04</pdfrwt>
<pdfrwt beam="2">  1       -2 0.53527439E+00 0.50015566E+04</pdfrwt>
<totfact> 0.65065684E-03</totfact>
</mgrwt>
</event>
<event>
 6    1  0.2047711E-005  0.1724586E+04  0.7818608E-02  0.8747465E-01
         -2   -1    0    0    0  501 -0.00000000000E+00  0.00000000000E+00  0.10567715809E+04  0.10567715809E+04  0.00000000000E+00 0.  1.
          2   -1    0    0  501    0  0.00000000000E+00 -0.00000000000E+00 -0.70360441007E+03  0.70360441007E+03  0.00000000000E+00 0. -1.
         23    2    1    2    0    0  0.31176140914E+03  0.35495973204E+03  0.91047745238E+03  0.10297691627E+04  0.90905167842E+02 0.  0.
         11    1    3    3    0    0  0.16825225743E+03  0.23726553434E+03  0.62344143906E+03  0.68795565544E+03  0.00000000000E+00 0.  1.
        -11    1    3    3    0    0  0.14350915171E+03  0.11769419770E+03  0.28703601332E+03  0.34181350725E+03  0.00000000000E+00 0. -1.
         22    1    1    2    0    0 -0.31176140914E+03 -0.35495973204E+03 -0.55731028155E+03  0.73060682828E+03  0.00000000000E+00 0. -1.
<mgrwt>
<rscale>  0 0.17245859E+04</rscale>
<asrwt>0</asrwt>
<pdfrwt beam="1">  1        2 0.10824683E+00 0.17245859E+04</pdfrwt>
<pdfrwt beam="2">  1       -2 0.16258024E+00 0.17245859E+04</pdfrwt>
<totfact> 0.93153445E+00</totfact>
</mgrwt>
</event>
<event>
 6    1  0.2047711E-005  0.7161478E+04  0.7818608E-02  0.7561008E-01
         -2   -1    0    0    0  501 -0.00000000000E+00  0.00000000000E+00  0.51055686586E+04  0.51055686586E+04  0.00000000000E+00 0.  1.
          2   -1    0    0  501    0  0.00000000000E+00 -0.00000000000E+00 -0.25113148070E+04  0.25113148070E+04  0.00000000000E+00 0. -1.
         23    2    1    2    0    0 -0.11009585041E+04  0.11970651517E+04 -0.20948847192E+04  0.26537095676E+04  0.92508795406E+02 0.  0.
         13    1    3    3    0    0 -0.55838448879E+03  0.67505104984E+03 -0.11207426381E+04  0.14225158059E+04  0.00000000000E+00 0.  1.
        -13    1    3    3    0    0 -0.54257401535E+03  0.52201410186E+03 -0.97414208111E+03  0.12311937617E+04  0.00000000000E+00 0. -1.
         22    1    1    2    0    0  0.11009585041E+04 -0.11970651517E+04  0.46891385708E+04  0.49631738980E+04  0.00000000000E+00 0.  1.
<mgrwt>
<rscale>  0 0.71614775E+04</rscale>
<asrwt>0</asrwt>
<pdfrwt beam="1">  1        2 0.38635612E+00 0.71614775E+04</pdfrwt>
<pdfrwt beam="2">  1       -2 0.78547210E+00 0.71614775E+04</pdfrwt>
<totfact> 0.20368177E-04</totfact>
</mgrwt>
</event>
<event>
 6    1  0.2047711E-005  0.3251165E+04  0.7818608E-02  0.8175434E-01
         -2   -1    0    0    0  501 -0.00000000000E+00  0.00000000000E+00  0.75300159076E+03  0.75300159076E+03  0.00000000000E+00 0.  1.
          2   -1    0    0  501    0  0.00000000000E+00 -0.00000000000E+00 -0.35093127302E+04  0.35093127302E+04  0.00000000000E+00 0. -1.
         23    2    1    2    0    0 -0.13877270483E+04 -0.45665585310E+03 -0.23099966841E+04  0.27347288007E+04  0.91301720663E+02 0.  0.
         13    1    3    3    0    0 -0.65956191969E+03 -0.26325821981E+03 -0.10976321325E+04  0.13073343546E+04  0.00000000000E+00 0.  1.
        -13    1    3    3    0    0 -0.72816512857E+03 -0.19339763329E+03 -0.12123645516E+04  0.14273944462E+04  0.00000000000E+00 0. -1.
         22    1    1    2    0    0  0.13877270483E+04  0.45665585310E+03 -0.44631445532E+03  0.15275855202E+04  0.00000000000E+00 0.  1.
<mgrwt>
<rscale>  0 0.32511648E+04</rscale>
<asrwt>0</asrwt>
<pdfrwt beam="1">  1        2 0.53989427E+00 0.32511648E+04</pdfrwt>
<pdfrwt beam="2">  1       -2 0.11584640E+00 0.32511648E+04</pdfrwt>
<totfact> 0.38839457E-01</totfact>
</mgrwt>
</event>
<event>
 6    1  0.2047711E-005  0.1923253E+04  0.7818608E-02  0.8643368E-01
         -2   -1    0    0    0  501 -0.00000000000E+00  0.00000000000E+00  0.90537559158E+03  0.90537559158E+03  0.00000000000E+00 0.  1.
          2   -1    0    0  501    0  0.00000000000E+00 -0.00000000000E+00 -0.10213724993E+04  0.10213724993E+04  0.00000000000E+00 0. -1.
         23    2    1    2    0    0  0.63545069073E+02  0.70000694049E+03  0.59608524433E+03  0.92619390254E+03  0.92031701363E+02 0.  0.
         13    1    3    3    0    0  0.12082394668E+02  0.54346548102E+03  0.47191757565E+03  0.71986589830E+03  0.00000000000E+00 0.  1.
        -13    1    3    3    0    0  0.51462674405E+02  0.15654145947E+03  0.12416766868E+03  0.20632800424E+03  0.00000000000E+00 0. -1.
         22    1    1    2    0    0 -0.63545069073E+02 -0.70000694049E+03 -0.71208215203E+03  0.10005541883E+04  0.00000000000E+00 0. -1.
<mgrwt>
<rscale>  0 0.19232532E+04</rscale>
<asrwt>0</asrwt>
<pdfrwt beam="1">  1        2 0.15713423E+00 0.19232532E+04</pdfrwt>
<pdfrwt beam="2">  1       -2 0.13928855E+00 0.19232532E+04</pdfrwt>
<totfact> 0.83036100E+00</totfact>
</mgrwt>
</event>
<event>
 6    1  0.2047711E-005  0.3633902E+04  0.7818608E-02  0.8082770E-01
         -2   -1    0    0    0  501 -0.00000000000E+00  0.00000000000E+00  0.11277712093E+04  0.11277712093E+04  0.00000000000E+00 0.  1.
          2   -1    0    0  501    0  0.00000000000E+00 -0.00000000000E+00 -0.29272872281E+04  0.29272872281E+04  0.00000000000E+00 0. -1.
         23    2    1    2    0    0 -0.49857262098E+03  0.83093723138E+03  0.81326301346E+03  0.12683676379E+04  0.91260040655E+02 0.  0.
         11    1    3    3    0    0 -0.26103809281E+03  0.51696725618E+03  0.46430867478E+03  0.74227931086E+03  0.00000000000E+00 0. -1.
        -11    1    3    3    0    0 -0.23753452816E+03  0.31396997520E+03  0.34895433868E+03  0.52608832707E+03  0.00000000000E+00 0.  1.
         22    1    1    2    0    0  0.49857262098E+03 -0.83093723138E+03 -0.26127790322E+04  0.27866907995E+04  0.00000000000E+00 0. -1.
<mgrwt>
<rscale>  0 0.36339016E+04</rscale>
<asrwt>0</asrwt>
<pdfrwt beam="1">  1        2 0.45035188E+00 0.36339016E+04</pdfrwt>
<pdfrwt beam="2">  1       -2 0.17350326E+00 0.36339016E+04</pdfrwt>
<totfact> 0.31602996E-01</totfact>
</mgrwt>
</event>
<event>
 6    1  0.2047711E-005  0.3445612E+04  0.7818608E-02  0.8126801E-01
          2   -1    0    0  501    0  0.00000000000E+00  0.00000000000E+00  0.45854854375E+04  0.45854854375E+04  0.00000000000E+00 0. -1.
         -2   -1    0    0    0  501 -0.00000000000E+00 -0.00000000000E+00 -0.64727294901E+03  0.64727294901E+03  0.00000000000E+00 0.  1.
         23    2    1    2    0    0 -0.57521270328E+03  0.88437958733E+03  0.40365834941E+04  0.41731953808E+04  0.92501203205E+02 0.  0.
         13    1    3    3    0    0 -0.32943267645E+03  0.57618085652E+03  0.24384316482E+04  0.25271444697E+04  0.00000000000E+00 0. -1.
        -13    1    3    3    0    0 -0.24578002683E+03  0.30819873081E+03  0.15981518459E+04  0.16460509111E+04  0.00000000000E+00 0.  1.
         22    1    1    2    0    0  0.57521270328E+03 -0.88437958733E+03 -0.98371005575E+02  0.10595630058E+04  0.00000000000E+00 0.  1.
<mgrwt>
<rscale>  0 0.34456121E+04</rscale>
<asrwt>0</asrwt>
<pdfrwt beam="1">  1        2 0.70545928E+00 0.34456121E+04</pdfrwt>
<pdfrwt beam="2">  1       -2 0.99580457E-01 0.34456121E+04</pdfrwt>
<totfact> 0.69291651E-02</totfact>
</mgrwt>
</event>
<event>
 6    1  0.2047711E-005  0.9270654E+03  0.7818608E-02  0.9392367E-01
         -1   -1    0    0    0  501 -0.00000000000E+00  0.00000000000E+00  0.21135756005E+03  0.21135756005E+03  0.00000000000E+00 0.  1.
          1   -1    0    0  501    0  0.00000000000E+00 -0.00000000000E+00 -0.10165832517E+04  0.10165832517E+04  0.00000000000E+00 0. -1.
         23    2    1    2    0    0 -0.53343566428E+01  0.45671518526E+03 -0.46929161881E+03  0.66095852182E+03  0.89522780747E+02 0.  0.
         11    1    3    3    0    0 -0.27207162225E+02  0.16534064168E+03 -0.12299546326E+03  0.20785966768E+03  0.00000000000E+00 0.  1.
        -11    1    3    3    0    0  0.21872805582E+02  0.29137454358E+03 -0.34629615555E+03  0.45309885414E+03  0.00000000000E+00 0. -1.
         22    1    1    2    0    0  0.53343566428E+01 -0.45671518526E+03 -0.33593407284E+03  0.56698228993E+03  0.00000000000E+00 0.  1.
<mgrwt>
<rscale>  0 0.92706538E+03</rscale>
<asrwt>0</asrwt>
<pdfrwt beam="1">  1        1 0.15639742E+00 0.92706538E+03</pdfrwt>
<pdfrwt beam="2">  1       -1 0.32516548E-01 0.92706538E+03</pdfrwt>
<totfact> 0.13063612E+02</totfact>
</mgrwt>
</event>
<event>
 6    1  0.2047711E-005  0.4119946E+04  0.7818608E-02  0.7980777E-01
          2   -1    0    0  501    0  0.00000000000E+00  0.00000000000E+00  0.35648148506E+04  0.35648148506E+04  0.00000000000E+00 0. -1.
         -2   -1    0    0    0  501 -0.00000000000E+00 -0.00000000000E+00 -0.11903814392E+04  0.11903814392E+04  0.00000000000E+00 0.  1.
         23    2    1    2    0    0 -0.48481428362E+03 -0.11561600294E+04 -0.69750165191E+03  0.14372849082E+04  0.86766640161E+02 0.  0.
         11    1    3    3    0    0 -0.18367794196E+03 -0.54816341768E+03 -0.31233747949E+03  0.65709620295E+03  0.00000000000E+00 0. -1.
        -11    1    3    3    0    0 -0.30113634166E+03 -0.60799661169E+03 -0.38516417242E+03  0.78018870526E+03  0.00000000000E+00 0.  1.
         22    1    1    2    0    0  0.48481428362E+03  0.11561600294E+04  0.30719350633E+04  0.33179113816E+04  0.00000000000E+00 0. -1.
<mgrwt>
<rscale>  0 0.41199463E+04</rscale>
<asrwt>0</asrwt>
<pdfrwt beam="1">  1        2 0.54843305E+00 0.41199463E+04</pdfrwt>
<pdfrwt beam="2">  1       -2 0.18313561E+00 0.41199463E+04</pdfrwt>
<totfact> 0.98421529E-02</totfact>
</mgrwt>
</event>
<event>
 6    1  0.2047711E-005  0.1267670E+04  0.7818608E-02  0.9055603E-01
         -2   -1    0    0    0  501 -0.00000000000E+00  0.00000000000E+00  0.43839800365E+03  0.43839800365E+03  0.00000000000E+00 0.  1.
          2   -1    0    0  501    0  0.00000000000E+00 -0.00000000000E+00 -0.91639813164E+03  0.91639813164E+03  0.00000000000E+00 0. -1.
         23    2    1    2    0    0  0.44158898023E+03  0.35560901981E+03  0.54342592674E+02  0.57707679345E+03  0.92768021023E+02 0.  0.
         11    1    3    3    0    0  0.19401882111E+03  0.13606815086E+03  0.65948581060E+02  0.24598182853E+03  0.00000000000E+00 0. -1.
        -11    1    3    3    0    0  0.24757015913E+03  0.21954086895E+03 -0.11605988386E+02  0.33109496492E+03  0.00000000000E+00 0.  1.
         22    1    1    2    0    0 -0.44158898023E+03 -0.35560901981E+03 -0.53234272067E+03  0.77771934185E+03  0.00000000000E+00 0. -1.
<mgrwt>
<rscale>  0 0.12676705E+04</rscale>
<asrwt>0</asrwt>
<pdfrwt beam="1">  1        2 0.14098433E+00 0.12676705E+04</pdfrwt>
<pdfrwt beam="2">  1       -2 0.67445847E-01 0.12676705E+04</pdfrwt>
<totfact> 0.56615244E+01</totfact>
</mgrwt>
</event>
<event>
 6    1  0.2047711E-005  0.2664997E+04  0.7818608E-02  0.8346452E-01
         -2   -1    0    0    0  501 -0.00000000000E+00  0.00000000000E+00  0.11470350970E+04  0.11470350970E+04  0.00000000000E+00 0.  1.
          2   -1    0    0  501    0  0.00000000000E+00 -0.00000000000E+00 -0.15479489744E+04  0.15479489744E+04  0.00000000000E+00 0. -1.
         23    2    1    2    0    0  0.16005603467E+03 -0.73653946294E+03 -0.13100076894E+04  0.15140692253E+04  0.90427638840E+02 0.  0.
         11    1    3    3    0    0  0.33722567487E+02 -0.24961079847E+03 -0.51458251770E+03  0.57292052659E+03  0.00000000000E+00 0.  1.
        -11    1    3    3    0    0  0.12633346719E+03 -0.48692866447E+03 -0.79542517175E+03  0.94114869870E+03  0.00000000000E+00 0. -1.
         22    1    1    2    0    0 -0.16005603467E+03  0.73653946294E+03  0.90909381199E+03  0.11809148461E+04  0.00000000000E+00 0.  1.
<mgrwt>
<rscale>  0 0.26649967E+04</rscale>
<asrwt>0</asrwt>
<pdfrwt beam="1">  1        2 0.23814599E+00 0.26649967E+04</pdfrwt>
<pdfrwt beam="2">  1       -2 0.17646694E+00 0.26649967E+04</pdfrwt>
<totfact> 0.20139775E+00</totfact>
</mgrwt>
</event>
<event>
 6    1  0.2047711E-005  0.3201288E+04  0.7818608E-02  0.8188477E-01
          1   -1    0    0  501    0  0.00000000000E+00  0.00000000000E+00  0.41448714374E+04  0.41448714374E+04  0.00000000000E+00 0. -1.
         -1   -1    0    0    0  501 -0.00000000000E+00 -0.00000000000E+00 -0.61812802696E+03  0.61812802696E+03  0.00000000000E+00 0.  1.
         23    2    1    2    0    0  0.82594707450E+03  0.12956764887E+04  0.11046861043E+04  0.18946675924E+04  0.92020452225E+02 0.  0.
         13    1    3    3    0    0  0.30541750826E+03  0.41925439043E+03  0.33680566298E+03  0.61845949978E+03  0.00000000000E+00 0. -1.
        -13    1    3    3    0    0  0.52052956624E+03  0.87642209824E+03  0.76788044129E+03  0.12762080926E+04  0.00000000000E+00 0.  1.
         22    1    1    2    0    0 -0.82594707450E+03 -0.12956764887E+04  0.24220573062E+04  0.28683318719E+04  0.00000000000E+00 0. -1.
<mgrwt>
<rscale>  0 0.32012880E+04</rscale>
<asrwt>0</asrwt>
<pdfrwt beam="1">  1        1 0.63767251E+00 0.32012880E+04</pdfrwt>
<pdfrwt beam="2">  1       -1 0.95096622E-01 0.32012880E+04</pdfrwt>
<totfact> 0.63442882E-02</totfact>
</mgrwt>
</event>
<event>
 6    1  0.2047711E-005  0.1526613E+04  0.7818608E-02  0.8866946E-01
          2   -1    0    0  501    0  0.00000000000E+00  0.00000000000E+00  0.80650930264E+03  0.80650930264E+03  0.00000000000E+00 0.  1.
         -2   -1    0    0    0  501 -0.00000000000E+00 -0.00000000000E+00 -0.72241775375E+03  0.72241775375E+03  0.00000000000E+00 0. -1.
         23    2    1    2    0    0  0.67427589264E+03 -0.16125277189E+03  0.35532904650E+03  0.78446737586E+03  0.92086354377E+02 0.  0.
         11    1    3    3    0    0  0.48246968521E+03 -0.12068683633E+03  0.29978985583E+03  0.58070325233E+03  0.00000000000E+00 0.  1.
        -11    1    3    3    0    0  0.19180620743E+03 -0.40565935560E+02  0.55539190669E+02  0.20376412352E+03  0.00000000000E+00 0. -1.
         22    1    1    2    0    0 -0.67427589264E+03  0.16125277189E+03 -0.27123749760E+03  0.74445968053E+03  0.00000000000E+00 0. -1.
<mgrwt>
<rscale>  0 0.15266128E+04</rscale>
<asrwt>0</asrwt>
<pdfrwt beam="1">  1        2 0.12407835E+00 0.15266128E+04</pdfrwt>
<pdfrwt beam="2">  1       -2 0.11114119E+00 0.15266128E+04</pdfrwt>
<totfact> 0.21055936E+01</totfact>
</mgrwt>
</event>
<event>
 6    1  0.2047711E-005  0.2183350E+04  0.7818608E-02  0.8525390E-01
         -2   -1    0    0    0  501 -0.00000000000E+00  0.00000000000E+00  0.84785115611E+03  0.84785115611E+03  0.00000000000E+00 0.  1.
          2   -1    0    0  501    0  0.00000000000E+00 -0.00000000000E+00 -0.14056178764E+04  0.14056178764E+04  0.00000000000E+00 0. -1.
         23    2    1    2    0    0  0.75483910219E+03 -0.27181057035E+03  0.48180441251E+03  0.94031588208E+03  0.91626469057E+02 0.  0.
         11    1    3    3    0    0  0.51415165963E+03 -0.22211260953E+03  0.36223208432E+03  0.66700676408E+03  0.00000000000E+00 0.  1.
        -11    1    3    3    0    0  0.24068744256E+03 -0.49697960817E+02  0.11957232819E+03  0.27330911800E+03  0.00000000000E+00 0. -1.
         22    1    1    2    0    0 -0.75483910219E+03  0.27181057035E+03 -0.10395711328E+04  0.13131531505E+04  0.00000000000E+00 0. -1.
<mgrwt>
<rscale>  0 0.21833504E+04</rscale>
<asrwt>0</asrwt>
<pdfrwt beam="1">  1        2 0.21624890E+00 0.21833504E+04</pdfrwt>
<pdfrwt beam="2">  1       -2 0.13043864E+00 0.21833504E+04</pdfrwt>
<totfact> 0.56622569E+00</totfact>
</mgrwt>
</event>
<event>
 6    1  0.2047711E-005  0.1369676E+04  0.7818608E-02  0.8976066E-01
         -4   -1    0    0    0  501 -0.00000000000E+00  0.00000000000E+00  0.40263314699E+03  0.40263314699E+03  0.00000000000E+00 0. -1.
          4   -1    0    0  501    0  0.00000000000E+00 -0.00000000000E+00 -0.11648389813E+04  0.11648389813E+04  0.00000000000E+00 0.  1.
         23    2    1    2    0    0  0.57145175624E+03  0.30898241906E+03 -0.61949860177E+03  0.90234612578E+03  0.91775640119E+02 0.  0.
         13    1    3    3    0    0  0.40533153877E+03  0.18434507707E+03 -0.46239248151E+03  0.64193735732E+03  0.00000000000E+00 0.  1.
        -13    1    3    3    0    0  0.16612021747E+03  0.12463734199E+03 -0.15710612026E+03  0.26040876847E+03  0.00000000000E+00 0. -1.
         22    1    1    2    0    0 -0.57145175624E+03 -0.30898241906E+03 -0.14270723253E+03  0.66512600251E+03  0.00000000000E+00 0. -1.
<mgrwt>
<rscale>  0 0.13696756E+04</rscale>
<asrwt>0</asrwt>
<pdfrwt beam="1">  1        4 0.17920600E+00 0.13696756E+04</pdfrwt>
<pdfrwt beam="2">  1       -4 0.61943561E-01 0.13696756E+04</pdfrwt>
<totfact> 0.86848195E-01</totfact>
</mgrwt>
</event>
<event>
 6    1  0.2047711E-005  0.2393749E+04  0.7818608E-02  0.8441848E-01
         -2   -1    0    0    0  501 -0.00000000000E+00  0.00000000000E+00  0.91912724390E+03  0.91912724390E+03  0.00000000000E+00 0.  1.
          2   -1    0    0  501    0  0.00000000000E+00 -0.00000000000E+00 -0.15585529209E+04  0.15585529209E+04  0.00000000000E+00 0. -1.
         23    2    1    2    0    0 -0.34208447544E+02 -0.11940049977E+04 -0.28043889383E+03  0.12304072745E+04  0.91858236783E+02 0.  0.
         13    1    3    3    0    0 -0.45628409717E+02 -0.68109428024E+03 -0.19826004183E+03  0.71082938497E+03  0.00000000000E+00 0. -1.
        -13    1    3    3    0    0  0.11419962173E+02 -0.51291071742E+03 -0.82178852003E+02  0.51957788954E+03  0.00000000000E+00 0.  1.
         22    1    1    2    0    0  0.34208447544E+02  0.11940049977E+04 -0.35898678316E+03  0.12472728903E+04  0.00000000000E+00 0. -1.
<mgrwt>
<rscale>  0 0.23937489E+04</rscale>
<asrwt>0</asrwt>
<pdfrwt beam="1">  1        2 0.23977737E+00 0.23937489E+04</pdfrwt>
<pdfrwt beam="2">  1       -2 0.14140419E+00 0.23937489E+04</pdfrwt>
<totfact> 0.37047939E+00</totfact>
</mgrwt>
</event>
<event>
 6    1  0.2047711E-005  0.1744263E+04  0.7818608E-02  0.8736515E-01
          2   -1    0    0  501    0  0.00000000000E+00  0.00000000000E+00  0.26968383386E+04  0.26968383386E+04  0.00000000000E+00 0. -1.
         -2   -1    0    0    0  501 -0.00000000000E+00 -0.00000000000E+00 -0.28203889278E+03  0.28203889278E+03  0.00000000000E+00 0.  1.
         23    2    1    2    0    0  0.34496461078E+03  0.53811399788E+03  0.20323410939E+03  0.67679371971E+03  0.90434387385E+02 0.  0.
         13    1    3    3    0    0  0.66982924939E+01  0.57195756016E+02  0.18781013821E+02  0.60571842540E+02  0.00000000000E+00 0. -1.
        -13    1    3    3    0    0  0.33826631828E+03  0.48091824186E+03  0.18445309557E+03  0.61622187717E+03  0.00000000000E+00 0.  1.
         22    1    1    2    0    0 -0.34496461078E+03 -0.53811399788E+03  0.22115653364E+04  0.23020835117E+04  0.00000000000E+00 0. -1.
<mgrwt>
<rscale>  0 0.17442629E+04</rscale>
<asrwt>0</asrwt>
<pdfrwt beam="1">  1        2 0.41489819E+00 0.17442629E+04</pdfrwt>
<pdfrwt beam="2">  1       -2 0.43390601E-01 0.17442629E+04</pdfrwt>
<totfact> 0.12767639E+01</totfact>
</mgrwt>
</event>
<event>
 6    1  0.2047711E-005  0.3105728E+04  0.7818608E-02  0.8214168E-01
         -2   -1    0    0    0  501 -0.00000000000E+00  0.00000000000E+00  0.11365302772E+04  0.11365302772E+04  0.00000000000E+00 0.  1.
          2   -1    0    0  501    0  0.00000000000E+00 -0.00000000000E+00 -0.21217089148E+04  0.21217089148E+04  0.00000000000E+00 0. -1.
         23    2    1    2    0    0  0.30968325406E+03  0.13164974511E+04 -0.12907177889E+04  0.18717243418E+04  0.91270722273E+02 0.  0.
         13    1    3    3    0    0  0.19111434113E+03  0.83586508164E+03 -0.87777696818E+03  0.12270645998E+04  0.00000000000E+00 0.  1.
        -13    1    3    3    0    0  0.11856891293E+03  0.48063236944E+03 -0.41294082070E+03  0.64465974209E+03  0.00000000000E+00 0. -1.
         22    1    1    2    0    0 -0.30968325406E+03 -0.13164974511E+04  0.30553915128E+03  0.13865148501E+04  0.00000000000E+00 0.  1.
<mgrwt>
<rscale>  0 0.31057279E+04</rscale>
<asrwt>0</asrwt>
<pdfrwt beam="1">  1        2 0.32641675E+00 0.31057279E+04</pdfrwt>
<pdfrwt beam="2">  1       -2 0.17485081E+00 0.31057279E+04</pdfrwt>
<totfact> 0.95502647E-01</totfact>
</mgrwt>
</event>
<event>
 6    1  0.2047711E-005  0.7121951E+03  0.7818608E-02  0.9696601E-01
          2   -1    0    0  501    0  0.00000000000E+00  0.00000000000E+00  0.10789273061E+04  0.10789273061E+04  0.00000000000E+00 0. -1.
         -2   -1    0    0    0  501 -0.00000000000E+00 -0.00000000000E+00 -0.11752918882E+03  0.11752918882E+03  0.00000000000E+00 0.  1.
         23    2    1    2    0    0 -0.22946742887E+03  0.39875595296E+02  0.92824010061E+03  0.96120170095E+03  0.89630695116E+02 0.  0.
         11    1    3    3    0    0 -0.12058036291E+03 -0.23968763935E+02  0.48501962708E+03  0.50035803602E+03  0.00000000000E+00 0. -1.
        -11    1    3    3    0    0 -0.10888706596E+03  0.63844359231E+02  0.44322047353E+03  0.46084366492E+03  0.00000000000E+00 0.  1.
         22    1    1    2    0    0  0.22946742887E+03 -0.39875595296E+02  0.33158016663E+02  0.23525479396E+03  0.00000000000E+00 0.  1.
<mgrwt>
<rscale>  0 0.71219506E+03</rscale>
<asrwt>0</asrwt>
<pdfrwt beam="1">  1        2 0.16598881E+00 0.71219506E+03</pdfrwt>
<pdfrwt beam="2">  1       -2 0.18081414E-01 0.71219506E+03</pdfrwt>
<totfact> 0.57556276E+02</totfact>
</mgrwt>
</event>
<event>
 6    1  0.2047711E-005  0.2475835E+04  0.7818608E-02  0.8411645E-01
         -1   -1    0    0    0  501 -0.00000000000E+00  0.00000000000E+00  0.11488619661E+04  0.11488619661E+04  0.00000000000E+00 0.  1.
          1   -1    0    0  501    0  0.00000000000E+00 -0.00000000000E+00 -0.13338768072E+04  0.13338768072E+04  0.00000000000E+00 0. -1.
         23    2    1    2    0    0  0.79685987115E+03 -0.41156266199E+03  0.76057960928E+03  0.11794666054E+04  0.91053018407E+02 0.  0.
         11    1    3    3    0    0  0.39786177988E+03 -0.21222332764E+03  0.44139531352E+03  0.63100123572E+03  0.00000000000E+00 0. -1.
        -11    1    3    3    0    0  0.39899809127E+03 -0.19933933435E+03  0.31918429576E+03  0.54846536966E+03  0.00000000000E+00 0.  1.
         22    1    1    2    0    0 -0.79685987115E+03  0.41156266199E+03 -0.94559445036E+03  0.13032721679E+04  0.00000000000E+00 0. -1.
<mgrwt>
<rscale>  0 0.24758355E+04</rscale>
<asrwt>0</asrwt>
<pdfrwt beam="1">  1        1 0.20521182E+00 0.24758355E+04</pdfrwt>
<pdfrwt beam="2">  1       -1 0.17674799E+00 0.24758355E+04</pdfrwt>
<totfact> 0.16733587E+00</totfact>
</mgrwt>
</event>
<event>
 6    1  0.2047711E-005  0.4231817E+04  0.7818608E-02  0.7959347E-01
          2   -1    0    0  501    0  0.00000000000E+00  0.00000000000E+00  0.31173222736E+04  0.31173222736E+04  0.00000000000E+00 0. -1.
         -2   -1    0    0    0  501 -0.00000000000E+00 -0.00000000000E+00 -0.14361904796E+04  0.14361904796E+04  0.00000000000E+00 0.  1.
         23    2    1    2    0    0 -0.48089453892E+03 -0.68724254049E+03 -0.12479910492E+04  0.15066582281E+04  0.94739064452E+02 0.  0.
         11    1    3    3    0    0 -0.59535585113E+02 -0.14862942732E+03 -0.24847591939E+03  0.29559342868E+03  0.00000000000E+00 0. -1.
        -11    1    3    3    0    0 -0.42135895381E+03 -0.53861311317E+03 -0.99951512982E+03  0.12110647994E+04  0.00000000000E+00 0.  1.
         22    1    1    2    0    0  0.48089453892E+03  0.68724254049E+03  0.29291228432E+04  0.30468545252E+04  0.00000000000E+00 0. -1.
<mgrwt>
<rscale>  0 0.42318169E+04</rscale>
<asrwt>0</asrwt>
<pdfrwt beam="1">  1        2 0.47958804E+00 0.42318169E+04</pdfrwt>
<pdfrwt beam="2">  1       -2 0.22095238E+00 0.42318169E+04</pdfrwt>
<totfact> 0.11061648E-01</totfact>
</mgrwt>
</event>
<event>
 6    1  0.2047711E-005  0.2184313E+04  0.7818608E-02  0.8524986E-01
          2   -1    0    0  501    0  0.00000000000E+00  0.00000000000E+00  0.51800416012E+03  0.51800416012E+03  0.00000000000E+00 0. -1.
         -2   -1    0    0    0  501 -0.00000000000E+00 -0.00000000000E+00 -0.23026949239E+04  0.23026949239E+04  0.00000000000E+00 0.  1.
         23    2    1    2    0    0  0.34140398219E+03 -0.10288375266E+04 -0.10455754506E+04  0.15086949753E+04  0.88708344409E+02 0.  0.
         13    1    3    3    0    0  0.20609851001E+03 -0.71991000913E+03 -0.68322476025E+03  0.10136780012E+04  0.00000000000E+00 0. -1.
        -13    1    3    3    0    0  0.13530547218E+03 -0.30892751747E+03 -0.36235069031E+03  0.49501697408E+03  0.00000000000E+00 0.  1.
         22    1    1    2    0    0 -0.34140398219E+03  0.10288375266E+04 -0.73911531324E+03  0.13120041088E+04  0.00000000000E+00 0.  1.
<mgrwt>
<rscale>  0 0.21843128E+04</rscale>
<asrwt>0</asrwt>
<pdfrwt beam="1">  1        2 0.79692950E-01 0.21843128E+04</pdfrwt>
<pdfrwt beam="2">  1       -2 0.35426075E+00 0.21843128E+04</pdfrwt>
<totfact> 0.79198290E-01</totfact>
</mgrwt>
</event>
<event>
 6    1  0.2047711E-005  0.2860134E+04  0.7818608E-02  0.8284839E-01
         -2   -1    0    0    0  501 -0.00000000000E+00  0.00000000000E+00  0.20574489534E+04  0.20574489534E+04  0.00000000000E+00 0.  1.
          2   -1    0    0  501    0  0.00000000000E+00 -0.00000000000E+00 -0.99399367097E+03  0.99399367097E+03  0.00000000000E+00 0. -1.
         23    2    1    2    0    0  0.71305262179E+03  0.18854630483E+03 -0.77304700546E+03  0.10723684964E+04  0.91535615749E+02 0.  0.
         13    1    3    3    0    0  0.61810829073E+03  0.17545628978E+03 -0.62756701543E+03  0.89815540278E+03  0.00000000000E+00 0. -1.
        -13    1    3    3    0    0  0.94944331059E+02  0.13090015050E+02 -0.14547999003E+03  0.17421309363E+03  0.00000000000E+00 0.  1.
         22    1    1    2    0    0 -0.71305262179E+03 -0.18854630483E+03  0.18365022879E+04  0.19790741279E+04  0.00000000000E+00 0.  1.
<mgrwt>
<rscale>  0 0.28601337E+04</rscale>
<asrwt>0</asrwt>
<pdfrwt beam="1">  1        2 0.15292210E+00 0.28601337E+04</pdfrwt>
<pdfrwt beam="2">  1       -2 0.31653061E+00 0.28601337E+04</pdfrwt>
<totfact> 0.55351644E-01</totfact>
</mgrwt>
</event>
<event>
 6    1  0.2047711E-005  0.4679173E+04  0.7818608E-02  0.7879998E-01
          2   -1    0    0  501    0  0.00000000000E+00  0.00000000000E+00  0.50458833948E+04  0.50458833948E+04  0.00000000000E+00 0. -1.
         -2   -1    0    0    0  501 -0.00000000000E+00 -0.00000000000E+00 -0.10847782753E+04  0.10847782753E+04  0.00000000000E+00 0.  1.
         23    2    1    2    0    0 -0.21477813519E+04 -0.19886411055E+03  0.79714447541E+03  0.23014112699E+04  0.92427531946E+02 0.  0.
         11    1    3    3    0    0 -0.13790691135E+04 -0.88834950654E+02  0.48718049861E+03  0.14652877214E+04  0.00000000000E+00 0.  1.
        -11    1    3    3    0    0 -0.76871223844E+03 -0.11002915990E+03  0.30996397681E+03  0.83612354857E+03  0.00000000000E+00 0. -1.
         22    1    1    2    0    0  0.21477813519E+04  0.19886411055E+03  0.31639606440E+04  0.38292504002E+04  0.00000000000E+00 0. -1.
<mgrwt>
<rscale>  0 0.46791729E+04</rscale>
<asrwt>0</asrwt>
<pdfrwt beam="1">  1        2 0.77628974E+00 0.46791729E+04</pdfrwt>
<pdfrwt beam="2">  1       -2 0.16688897E+00 0.46791729E+04</pdfrwt>
<totfact> 0.49398697E-03</totfact>
</mgrwt>
</event>
<event>
 6    1  0.2047711E-005  0.1804150E+04  0.7818608E-02  0.8704096E-01
         -4   -1    0    0    0  501 -0.00000000000E+00  0.00000000000E+00  0.62175028513E+03  0.62175028513E+03  0.00000000000E+00 0.  1.
          4   -1    0    0  501    0  0.00000000000E+00 -0.00000000000E+00 -0.13087878728E+04  0.13087878728E+04  0.00000000000E+00 0. -1.
         23    2    1    2    0    0 -0.32171667176E+03  0.70800823701E+03 -0.82887802384E+03  0.11400345274E+04  0.88671668116E+02 0.  0.
         13    1    3    3    0    0 -0.28661723330E+03  0.57415209506E+03 -0.64440509913E+03  0.90942729147E+03  0.00000000000E+00 0.  1.
        -13    1    3    3    0    0 -0.35099438460E+02  0.13385614195E+03 -0.18447292471E+03  0.23060723595E+03  0.00000000000E+00 0. -1.
         22    1    1    2    0    0  0.32171667176E+03 -0.70800823701E+03  0.14184043616E+03  0.79050363054E+03  0.00000000000E+00 0.  1.
<mgrwt>
<rscale>  0 0.18041499E+04</rscale>
<asrwt>0</asrwt>
<pdfrwt beam="1">  1        4 0.20135198E+00 0.18041499E+04</pdfrwt>
<pdfrwt beam="2">  1       -4 0.95653890E-01 0.18041499E+04</pdfrwt>
<totfact> 0.22330631E-01</totfact>
</mgrwt>
</event>
<event>
 6    1  0.2047711E-005  0.4702460E+04  0.7818608E-02  0.7876120E-01
         -2   -1    0    0    0  501 -0.00000000000E+00  0.00000000000E+00  0.15467542717E+04  0.15467542717E+04  0.00000000000E+00 0.  1.
          2   -1    0    0  501    0  0.00000000000E+00 -0.00000000000E+00 -0.35741179051E+04  0.35741179051E+04  0.00000000000E+00 0. -1.
         23    2    1    2    0    0 -0.14500381429E+04  0.84158380303E+03 -0.28078178405E+04  0.32715526580E+04  0.91333757116E+02 0.  0.
         11    1    3    3    0    0 -0.52538122399E+03  0.25999692117E+03 -0.94255988504E+03  0.11099743089E+04  0.00000000000E+00 0.  1.
        -11    1    3    3    0    0 -0.92465691895E+03  0.58158688186E+03 -0.18652579554E+04  0.21615783491E+04  0.00000000000E+00 0. -1.
         22    1    1    2    0    0  0.14500381429E+04 -0.84158380303E+03  0.78045420701E+03  0.18493195188E+04  0.00000000000E+00 0.  1.
<mgrwt>
<rscale>  0 0.47024598E+04</rscale>
<asrwt>0</asrwt>
<pdfrwt beam="1">  1        2 0.54986429E+00 0.47024598E+04</pdfrwt>
<pdfrwt beam="2">  1       -2 0.23796220E+00 0.47024598E+04</pdfrwt>
<totfact> 0.40868887E-02</totfact>
</mgrwt>
</event>
<event>
 6    1  0.2047711E-005  0.4057316E+03  0.7818608E-02  0.1041813E+00
          2   -1    0    0  501    0  0.00000000000E+00  0.00000000000E+00  0.11588886925E+03  0.11588886925E+03  0.00000000000E+00 0. -1.
         -2   -1    0    0    0  501 -0.00000000000E+00 -0.00000000000E+00 -0.35512066176E+03  0.35512066176E+03  0.00000000000E+00 0.  1.
         23    2    1    2    0    0 -0.98535274021E+02  0.61789814868E+02  0.53322768837E+02  0.15618362226E+03  0.89570222391E+02 0.  0.
         11    1    3    3    0    0 -0.27270773853E+02 -0.67894034316E+00  0.55008018252E+02  0.61400636304E+02  0.00000000000E+00 0.  1.
        -11    1    3    3    0    0 -0.71264500168E+02  0.62468755211E+02 -0.16852494157E+01  0.94782985960E+02  0.00000000000E+00 0. -1.
         22    1    1    2    0    0  0.98535274021E+02 -0.61789814868E+02 -0.29255456135E+03  0.31482590874E+03  0.00000000000E+00 0.  1.
<mgrwt>
<rscale>  0 0.40573160E+03</rscale>
<asrwt>0</asrwt>
<pdfrwt beam="1">  1        2 0.17829057E-01 0.40573160E+03</pdfrwt>
<pdfrwt beam="2">  1       -2 0.54633947E-01 0.40573160E+03</pdfrwt>
<totfact> 0.10261729E+03</totfact>
</mgrwt>
</event>
<event>
 6    1  0.2047711E-005  0.1911090E+04  0.7818608E-02  0.8649356E-01
          2   -1    0    0  501    0  0.00000000000E+00  0.00000000000E+00  0.78409628995E+03  0.78409628995E+03  0.00000000000E+00 0. -1.
         -2   -1    0    0    0  501 -0.00000000000E+00 -0.00000000000E+00 -0.11644824770E+04  0.11644824770E+04  0.00000000000E+00 0.  1.
         23    2    1    2    0    0 -0.74585879830E+03 -0.58781648453E+03 -0.10519962156E+03  0.95986181438E+03  0.91837769104E+02 0.  0.
         13    1    3    3    0    0 -0.47461094029E+03 -0.32987783389E+03 -0.35199635308E+02  0.57906298817E+03  0.00000000000E+00 0.  1.
        -13    1    3    3    0    0 -0.27124785801E+03 -0.25793865065E+03 -0.69999986255E+02  0.38079882622E+03  0.00000000000E+00 0. -1.
         22    1    1    2    0    0  0.74585879830E+03  0.58781648453E+03 -0.27518656552E+03  0.98871695259E+03  0.00000000000E+00 0.  1.
<mgrwt>
<rscale>  0 0.19110901E+04</rscale>
<asrwt>0</asrwt>
<pdfrwt beam="1">  1        2 0.12063020E+00 0.19110901E+04</pdfrwt>
<pdfrwt beam="2">  1       -2 0.17915115E+00 0.19110901E+04</pdfrwt>
<totfact> 0.60809987E+00</totfact>
</mgrwt>
</event>
<event>
 6    1  0.2047711E-005  0.2219516E+04  0.7818608E-02  0.8510349E-01
         -2   -1    0    0    0  501 -0.00000000000E+00  0.00000000000E+00  0.23123495954E+04  0.23123495954E+04  0.00000000000E+00 0.  1.
          2   -1    0    0  501    0  0.00000000000E+00 -0.00000000000E+00 -0.53260244040E+03  0.53260244040E+03  0.00000000000E+00 0. -1.
         23    2    1    2    0    0  0.39271204893E+03  0.10078486248E+04  0.11974040274E+04  0.16164956376E+04  0.96437221421E+02 0.  0.
         11    1    3    3    0    0  0.12785672024E+03  0.45038955996E+03  0.54283918208E+03  0.71684898983E+03  0.00000000000E+00 0.  1.
        -11    1    3    3    0    0  0.26485532869E+03  0.55745906489E+03  0.65456484531E+03  0.89964664779E+03  0.00000000000E+00 0. -1.
         22    1    1    2    0    0 -0.39271204893E+03 -0.10078486248E+04  0.58234312764E+03  0.12284563982E+04  0.00000000000E+00 0. -1.
<mgrwt>
<rscale>  0 0.22195162E+04</rscale>
<asrwt>0</asrwt>
<pdfrwt beam="1">  1        2 0.81938838E-01 0.22195162E+04</pdfrwt>
<pdfrwt beam="2">  1       -2 0.35574609E+00 0.22195162E+04</pdfrwt>
<totfact> 0.74782966E-01</totfact>
</mgrwt>
</event>
<event>
 6    1  0.2047711E-005  0.2317457E+04  0.7818608E-02  0.8471070E-01
          2   -1    0    0  501    0  0.00000000000E+00  0.00000000000E+00  0.31042220165E+04  0.31042220165E+04  0.00000000000E+00 0. -1.
         -2   -1    0    0    0  501 -0.00000000000E+00 -0.00000000000E+00 -0.43252422629E+03  0.43252422629E+03  0.00000000000E+00 0.  1.
         23    2    1    2    0    0  0.41474065302E+03  0.36041573498E+02  0.29852824908E+04  0.30155512996E+04  0.91264926377E+02 0.  0.
         13    1    3    3    0    0  0.11863891345E+03  0.49124720826E+02  0.10181541029E+04  0.10262193758E+04  0.00000000000E+00 0. -1.
        -13    1    3    3    0    0  0.29610173956E+03 -0.13083147328E+02  0.19671283879E+04  0.19893319239E+04  0.00000000000E+00 0.  1.
         22    1    1    2    0    0 -0.41474065302E+03 -0.36041573498E+02 -0.31358470060E+03  0.52119494312E+03  0.00000000000E+00 0.  1.
<mgrwt>
<rscale>  0 0.23174566E+04</rscale>
<asrwt>0</asrwt>
<pdfrwt beam="1">  1        2 0.47757260E+00 0.23174566E+04</pdfrwt>
<pdfrwt beam="2">  1       -2 0.66542191E-01 0.23174566E+04</pdfrwt>
<totfact> 0.28128907E+00</totfact>
</mgrwt>
</event>
<event>
 6    1  0.2047711E-005  0.1690283E+04  0.7818608E-02  0.8766926E-01
          2   -1    0    0  501    0  0.00000000000E+00  0.00000000000E+00  0.87580004866E+03  0.87580004866E+03  0.00000000000E+00 0. -1.
         -2   -1    0    0    0  501 -0.00000000000E+00 -0.00000000000E+00 -0.81555659040E+03  0.81555659040E+03  0.00000000000E+00 0.  1.
         23    2    1    2    0    0  0.11928256166E+03  0.40237303465E+03 -0.70113686169E+03  0.82197043020E+03  0.88938747352E+02 0.  0.
         11    1    3    3    0    0  0.82789677088E+02  0.31670990539E+03 -0.60652261904E+03  0.68922346319E+03  0.00000000000E+00 0.  1.
        -11    1    3    3    0    0  0.36492884574E+02  0.85663129262E+02 -0.94614242646E+02  0.13274696701E+03  0.00000000000E+00 0. -1.
         22    1    1    2    0    0 -0.11928256166E+03 -0.40237303465E+03  0.76138031996E+03  0.86938620886E+03  0.00000000000E+00 0. -1.
<mgrwt>
<rscale>  0 0.16902834E+04</rscale>
<asrwt>0</asrwt>
<pdfrwt beam="1">  1        2 0.13473847E+00 0.16902834E+04</pdfrwt>
<pdfrwt beam="2">  1       -2 0.12547024E+00 0.16902834E+04</pdfrwt>
<totfact> 0.13775626E+01</totfact>
</mgrwt>
</event>
<event>
 6    1  0.2047711E-005  0.1468180E+04  0.7818608E-02  0.8905893E-01
          2   -1    0    0  501    0  0.00000000000E+00  0.00000000000E+00  0.15953724771E+04  0.15953724771E+04  0.00000000000E+00 0. -1.
         -2   -1    0    0    0  501 -0.00000000000E+00 -0.00000000000E+00 -0.33778223218E+03  0.33778223218E+03  0.00000000000E+00 0.  1.
         23    2    1    2    0    0 -0.58613679552E+03 -0.43550126504E+03  0.67779206143E+03  0.10007472723E+04  0.94208967691E+02 0.  0.
         13    1    3    3    0    0 -0.10090335043E+03 -0.34280281201E+02  0.10320632080E+03  0.14835150306E+03  0.00000000000E+00 0. -1.
        -13    1    3    3    0    0 -0.48523344509E+03 -0.40122098384E+03  0.57458574063E+03  0.85239576926E+03  0.00000000000E+00 0.  1.
         22    1    1    2    0    0  0.58613679552E+03  0.43550126504E+03  0.57979818348E+03  0.93240743695E+03  0.00000000000E+00 0. -1.
<mgrwt>
<rscale>  0 0.14681805E+04</rscale>
<asrwt>0</asrwt>
<pdfrwt beam="1">  1        2 0.24544192E+00 0.14681805E+04</pdfrwt>
<pdfrwt beam="2">  1       -2 0.51966498E-01 0.14681805E+04</pdfrwt>
<totfact> 0.37981928E+01</totfact>
</mgrwt>
</event>
<event>
 6    1  0.2047711E-005  0.2203477E+04  0.7818608E-02  0.8516982E-01
         -2   -1    0    0    0  501 -0.00000000000E+00  0.00000000000E+00  0.47926019649E+03  0.47926019649E+03  0.00000000000E+00 0.  1.
          2   -1    0    0  501    0  0.00000000000E+00 -0.00000000000E+00 -0.25327121687E+04  0.25327121687E+04  0.00000000000E+00 0. -1.
         23    2    1    2    0    0 -0.40245487922E+03 -0.95297721394E+03 -0.15389396742E+04  0.18566116401E+04  0.92390267324E+02 0.  0.
         11    1    3    3    0    0 -0.62231937447E+02 -0.87209405275E+02 -0.18800807117E+03  0.21639161082E+03  0.00000000000E+00 0.  1.
        -11    1    3    3    0    0 -0.34022294177E+03 -0.86576780867E+03 -0.13509316030E+04  0.16402200293E+04  0.00000000000E+00 0. -1.
         22    1    1    2    0    0  0.40245487922E+03  0.95297721394E+03 -0.51451229801E+03  0.11553607250E+04  0.00000000000E+00 0.  1.
<mgrwt>
<rscale>  0 0.22034774E+04</rscale>
<asrwt>0</asrwt>
<pdfrwt beam="1">  1        2 0.38964802E+00 0.22034774E+04</pdfrwt>
<pdfrwt beam="2">  1       -2 0.73732340E-01 0.22034774E+04</pdfrwt>
<totfact> 0.50496088E+00</totfact>
</mgrwt>
</event>
<event>
 6    1  0.2047711E-005  0.2378257E+04  0.7818608E-02  0.8447689E-01
         -2   -1    0    0    0  501 -0.00000000000E+00  0.00000000000E+00  0.12799229599E+04  0.12799229599E+04  0.00000000000E+00 0.  1.
          2   -1    0    0  501    0  0.00000000000E+00 -0.00000000000E+00 -0.11047745832E+04  0.11047745832E+04  0.00000000000E+00 0. -1.
         23    2    1    2    0    0  0.14365071858E+03 -0.39996492692E+03  0.11996656152E+04  0.12755343254E+04  0.84751137748E+02 0.  0.
         11    1    3    3    0    0  0.12490923869E+03 -0.22522022770E+03  0.72359203185E+03  0.76805722276E+03  0.00000000000E+00 0. -1.
        -11    1    3    3    0    0  0.18741479885E+02 -0.17474469922E+03  0.47607358333E+03  0.50747710265E+03  0.00000000000E+00 0.  1.
         22    1    1    2    0    0 -0.14365071858E+03  0.39996492692E+03 -0.10245172384E+04  0.11091632177E+04  0.00000000000E+00 0. -1.
<mgrwt>
<rscale>  0 0.23782568E+04</rscale>
<asrwt>0</asrwt>
<pdfrwt beam="1">  1        2 0.16996532E+00 0.23782568E+04</pdfrwt>
<pdfrwt beam="2">  1       -2 0.19691123E+00 0.23782568E+04</pdfrwt>
<totfact> 0.27167753E+00</totfact>
</mgrwt>
</event>
<event>
 6    1  0.2047711E-005  0.7991971E+03  0.7818608E-02  0.9561180E-01
          2   -1    0    0  501    0  0.00000000000E+00  0.00000000000E+00  0.64795919062E+03  0.64795919062E+03  0.00000000000E+00 0. -1.
         -2   -1    0    0    0  501 -0.00000000000E+00 -0.00000000000E+00 -0.24643372071E+03  0.24643372071E+03  0.00000000000E+00 0.  1.
         23    2    1    2    0    0  0.36315209665E+03  0.34715961395E+02  0.37056998412E+03  0.52827423470E+03  0.93096243946E+02 0.  0.
         13    1    3    3    0    0  0.16124022707E+03 -0.10176420907E+02  0.21756546877E+03  0.27099207288E+03  0.00000000000E+00 0. -1.
        -13    1    3    3    0    0  0.20191186959E+03  0.44892382303E+02  0.15300451535E+03  0.25728216181E+03  0.00000000000E+00 0.  1.
         22    1    1    2    0    0 -0.36315209665E+03 -0.34715961395E+02  0.30955485800E+02  0.36611867663E+03  0.00000000000E+00 0.  1.
<mgrwt>
<rscale>  0 0.79919708E+03</rscale>
<asrwt>0</asrwt>
<pdfrwt beam="1">  1        2 0.99686029E-01 0.79919708E+03</pdfrwt>
<pdfrwt beam="2">  1       -2 0.37912880E-01 0.79919708E+03</pdfrwt>
<totfact> 0.29805125E+02</totfact>
</mgrwt>
</event>
<event>
 6    1  0.2047711E-005  0.2441578E+04  0.7818608E-02  0.8424099E-01
         -2   -1    0    0    0  501 -0.00000000000E+00  0.00000000000E+00  0.16916363043E+04  0.16916363043E+04  0.00000000000E+00 0.  1.
          2   -1    0    0  501    0  0.00000000000E+00 -0.00000000000E+00 -0.88099655461E+03  0.88099655461E+03  0.00000000000E+00 0. -1.
         23    2    1    2    0    0 -0.51615041885E+03 -0.67534530294E+03 -0.51499174240E+03  0.99789434542E+03  0.89855978121E+02 0.  0.
         13    1    3    3    0    0 -0.71303502822E+02 -0.82397216199E+02 -0.33588725207E+02  0.11402496750E+03  0.00000000000E+00 0.  1.
        -13    1    3    3    0    0 -0.44484691603E+03 -0.59294808674E+03 -0.48140301719E+03  0.88386937792E+03  0.00000000000E+00 0. -1.
         22    1    1    2    0    0  0.51615041885E+03  0.67534530294E+03  0.13256314921E+04  0.15747385135E+04  0.00000000000E+00 0.  1.
<mgrwt>
<rscale>  0 0.24415780E+04</rscale>
<asrwt>0</asrwt>
<pdfrwt beam="1">  1        2 0.13553793E+00 0.24415780E+04</pdfrwt>
<pdfrwt beam="2">  1       -2 0.26025174E+00 0.24415780E+04</pdfrwt>
<totfact> 0.15049664E+00</totfact>
</mgrwt>
</event>
<event>
 6    1  0.2047711E-005  0.1676413E+04  0.7818608E-02  0.8774932E-01
         -2   -1    0    0    0  501 -0.00000000000E+00  0.00000000000E+00  0.51998201889E+03  0.51998201889E+03  0.00000000000E+00 0.  1.
          2   -1    0    0  501    0  0.00000000000E+00 -0.00000000000E+00 -0.13511816861E+04  0.13511816861E+04  0.00000000000E+00 0. -1.
         23    2    1    2    0    0  0.69710797859E+02  0.37697190465E+03 -0.12456425799E+04  0.13066016268E+04  0.92816819601E+02 0.  0.
         11    1    3    3    0    0  0.77168329678E+02  0.16691347426E+03 -0.60916515145E+03  0.63631536264E+03  0.00000000000E+00 0. -1.
        -11    1    3    3    0    0 -0.74575318198E+01  0.21005843039E+03 -0.63647742844E+03  0.67028626412E+03  0.00000000000E+00 0.  1.
         22    1    1    2    0    0 -0.69710797859E+02 -0.37697190465E+03  0.41444291271E+03  0.56456207819E+03  0.00000000000E+00 0.  1.
<mgrwt>
<rscale>  0 0.16764131E+04</rscale>
<asrwt>0</asrwt>
<pdfrwt beam="1">  1        2 0.20787410E+00 0.16764131E+04</pdfrwt>
<pdfrwt beam="2">  1       -2 0.79997236E-01 0.16764131E+04</pdfrwt>
<totfact> 0.20345517E+01</totfact>
</mgrwt>
</event>
<event>
 6    1  0.2047711E-005  0.1767179E+04  0.7818608E-02  0.8723951E-01
          2   -1    0    0  501    0  0.00000000000E+00  0.00000000000E+00  0.21189619681E+04  0.21189619681E+04  0.00000000000E+00 0. -1.
         -2   -1    0    0    0  501 -0.00000000000E+00 -0.00000000000E+00 -0.36844943438E+03  0.36844943438E+03  0.00000000000E+00 0.  1.
         23    2    1    2    0    0  0.87524471390E+03 -0.12031354270E+02  0.10206127301E+04  0.13476957423E+04  0.91844468086E+02 0.  0.
         11    1    3    3    0    0  0.29874300771E+03 -0.39975065968E+02  0.38863445534E+03  0.49181513847E+03  0.00000000000E+00 0. -1.
        -11    1    3    3    0    0  0.57650170619E+03  0.27943711698E+02  0.63197827475E+03  0.85588060383E+03  0.00000000000E+00 0.  1.
         22    1    1    2    0    0 -0.87524471390E+03  0.12031354270E+02  0.72989980363E+03  0.11397156602E+04  0.00000000000E+00 0.  1.
<mgrwt>
<rscale>  0 0.17671789E+04</rscale>
<asrwt>0</asrwt>
<pdfrwt beam="1">  1        2 0.32599414E+00 0.17671789E+04</pdfrwt>
<pdfrwt beam="2">  1       -2 0.56684529E-01 0.17671789E+04</pdfrwt>
<totfact> 0.15847001E+01</totfact>
</mgrwt>
</event>
<event>
 6    1  0.2047711E-005  0.2235959E+04  0.7818608E-02  0.8503608E-01
         -2   -1    0    0    0  501 -0.00000000000E+00  0.00000000000E+00  0.55251420033E+03  0.55251420033E+03  0.00000000000E+00 0.  1.
          2   -1    0    0  501    0  0.00000000000E+00 -0.00000000000E+00 -0.22621649792E+04  0.22621649792E+04  0.00000000000E+00 0. -1.
         23    2    1    2    0    0  0.70128919062E+03  0.85775287687E+03 -0.68238132386E+03  0.13037757875E+04  0.81489302193E+02 0.  0.
         13    1    3    3    0    0  0.28029929537E+03  0.28707651371E+03 -0.22680681150E+03  0.46089255738E+03  0.00000000000E+00 0. -1.
        -13    1    3    3    0    0  0.42098989525E+03  0.57067636316E+03 -0.45557451237E+03  0.84288323017E+03  0.00000000000E+00 0.  1.
         22    1    1    2    0    0 -0.70128919062E+03 -0.85775287687E+03 -0.10272694550E+04  0.15109033919E+04  0.00000000000E+00 0. -1.
<mgrwt>
<rscale>  0 0.22359591E+04</rscale>
<asrwt>0</asrwt>
<pdfrwt beam="1">  1        2 0.34802537E+00 0.22359591E+04</pdfrwt>
<pdfrwt beam="2">  1       -2 0.85002187E-01 0.22359591E+04</pdfrwt>
<totfact> 0.52294140E+00</totfact>
</mgrwt>
</event>
<event>
 6    1  0.2047711E-005  0.1038403E+04  0.7818608E-02  0.9267399E-01
          2   -1    0    0  501    0  0.00000000000E+00  0.00000000000E+00  0.11328473064E+04  0.11328473064E+04  0.00000000000E+00 0.  1.
         -2   -1    0    0    0  501 -0.00000000000E+00 -0.00000000000E+00 -0.23795824853E+03  0.23795824853E+03  0.00000000000E+00 0. -1.
         23    2    1    2    0    0 -0.28899285160E+03 -0.36700076930E+03  0.16433275363E+03  0.50367295456E+03  0.92058450409E+02 0.  0.
         13    1    3    3    0    0 -0.66550071083E+01 -0.22616368791E+02  0.30742047358E+02  0.38740969692E+02  0.00000000000E+00 0. -1.
        -13    1    3    3    0    0 -0.28233784450E+03 -0.34438440051E+03  0.13359070627E+03  0.46493198487E+03  0.00000000000E+00 0.  1.
         22    1    1    2    0    0  0.28899285160E+03  0.36700076930E+03  0.73055630419E+03  0.86713260032E+03  0.00000000000E+00 0.  1.
<mgrwt>
<rscale>  0 0.10384033E+04</rscale>
<asrwt>0</asrwt>
<pdfrwt beam="1">  1        2 0.17428420E+00 0.10384033E+04</pdfrwt>
<pdfrwt beam="2">  1       -2 0.36608962E-01 0.10384033E+04</pdfrwt>
<totfact> 0.14543695E+02</totfact>
</mgrwt>
</event>
<event>
 6    1  0.2047711E-005  0.2939024E+04  0.7818608E-02  0.8261361E-01
         -2   -1    0    0    0  501 -0.00000000000E+00  0.00000000000E+00  0.64504202144E+03  0.64504202144E+03  0.00000000000E+00 0.  1.
          2   -1    0    0  501    0  0.00000000000E+00 -0.00000000000E+00 -0.33477893211E+04  0.33477893211E+04  0.00000000000E+00 0. -1.
         23    2    1    2    0    0 -0.10764565001E+04 -0.83437098624E+03 -0.20974614196E+04  0.25024271907E+04  0.88678624124E+02 0.  0.
         11    1    3    3    0    0 -0.36507164857E+03 -0.24392092768E+03 -0.62539268583E+03  0.76412743639E+03  0.00000000000E+00 0.  1.
        -11    1    3    3    0    0 -0.71138485157E+03 -0.59045005856E+03 -0.14720687338E+04  0.17382997543E+04  0.00000000000E+00 0. -1.
         22    1    1    2    0    0  0.10764565001E+04  0.83437098624E+03 -0.60528588004E+03  0.14904041519E+04  0.00000000000E+00 0.  1.
<mgrwt>
<rscale>  0 0.29390235E+04</rscale>
<asrwt>0</asrwt>
<pdfrwt beam="1">  1        2 0.51504451E+00 0.29390235E+04</pdfrwt>
<pdfrwt beam="2">  1       -2 0.99237234E-01 0.29390235E+04</pdfrwt>
<totfact> 0.74812914E-01</totfact>
</mgrwt>
</event>
<event>
 6    1  0.2047711E-005  0.2707474E+04  0.7818608E-02  0.8332584E-01
         -2   -1    0    0    0  501 -0.00000000000E+00  0.00000000000E+00  0.21688195273E+04  0.21688195273E+04  0.00000000000E+00 0.  1.
          2   -1    0    0  501    0  0.00000000000E+00 -0.00000000000E+00 -0.84497782255E+03  0.84497782255E+03  0.00000000000E+00 0. -1.
         23    2    1    2    0    0 -0.12795921273E+04  0.27411269152E+03  0.28349343789E+03  0.13420263439E+04  0.90401319853E+02 0.  0.
         13    1    3    3    0    0 -0.79562836092E+03  0.21121305611E+03  0.15965927976E+03  0.83852640351E+03  0.00000000000E+00 0.  1.
        -13    1    3    3    0    0 -0.48396376636E+03  0.62899635412E+02  0.12383415813E+03  0.50349994042E+03  0.00000000000E+00 0. -1.
         22    1    1    2    0    0  0.12795921273E+04 -0.27411269152E+03  0.10403482669E+04  0.16717710059E+04  0.00000000000E+00 0. -1.
<mgrwt>
<rscale>  0 0.27074744E+04</rscale>
<asrwt>0</asrwt>
<pdfrwt beam="1">  1        2 0.12999659E+00 0.27074744E+04</pdfrwt>
<pdfrwt beam="2">  1       -2 0.33366454E+00 0.27074744E+04</pdfrwt>
<totfact> 0.55259757E-01</totfact>
</mgrwt>
</event>
<event>
 6    1  0.2047711E-005  0.1414269E+04  0.7818608E-02  0.8943554E-01
          2   -1    0    0  501    0  0.00000000000E+00  0.00000000000E+00  0.10477945961E+04  0.10477945961E+04  0.00000000000E+00 0. -1.
         -2   -1    0    0    0  501 -0.00000000000E+00 -0.00000000000E+00 -0.47723013697E+03  0.47723013697E+03  0.00000000000E+00 0.  1.
         23    2    1    2    0    0  0.95660542873E+02  0.56319208787E+02  0.10363088211E+04  0.10462339610E+04  0.91360471501E+02 0.  0.
         13    1    3    3    0    0 -0.17663153253E+02  0.10801149356E+01  0.12978545066E+03  0.13098632308E+03  0.00000000000E+00 0. -1.
        -13    1    3    3    0    0  0.11332369613E+03  0.55239093852E+02  0.90652337044E+03  0.91524763794E+03  0.00000000000E+00 0.  1.
         22    1    1    2    0    0 -0.95660542873E+02 -0.56319208787E+02 -0.46574436195E+03  0.47879077208E+03  0.00000000000E+00 0.  1.
<mgrwt>
<rscale>  0 0.14142689E+04</rscale>
<asrwt>0</asrwt>
<pdfrwt beam="1">  1        2 0.16119917E+00 0.14142689E+04</pdfrwt>
<pdfrwt beam="2">  1       -2 0.73420021E-01 0.14142689E+04</pdfrwt>
<totfact> 0.38228290E+01</totfact>
</mgrwt>
</event>
<event>
 6    1  0.2047711E-005  0.7520345E+03  0.7818608E-02  0.9632164E-01
         -1   -1    0    0    0  501 -0.00000000000E+00  0.00000000000E+00  0.14172273259E+03  0.14172273259E+03  0.00000000000E+00 0.  1.
          1   -1    0    0  501    0  0.00000000000E+00 -0.00000000000E+00 -0.99764497617E+03  0.99764497617E+03  0.00000000000E+00 0. -1.
         23    2    1    2    0    0 -0.65194458079E+02  0.24930496447E+03 -0.31368441722E+02  0.27548562488E+03  0.92222923980E+02 0.  0.
         11    1    3    3    0    0  0.16608693938E+02  0.73708164698E+02  0.13219969800E+02  0.76704040695E+02  0.00000000000E+00 0.  1.
        -11    1    3    3    0    0 -0.81803152017E+02  0.17559679977E+03 -0.44588411522E+02  0.19878158419E+03  0.00000000000E+00 0. -1.
         22    1    1    2    0    0  0.65194458079E+02 -0.24930496447E+03 -0.82455380187E+03  0.86388208388E+03  0.00000000000E+00 0. -1.
<mgrwt>
<rscale>  0 0.75203450E+03</rscale>
<asrwt>0</asrwt>
<pdfrwt beam="1">  1        1 0.15348385E+00 0.75203450E+03</pdfrwt>
<pdfrwt beam="2">  1       -1 0.21803496E-01 0.75203450E+03</pdfrwt>
<totfact> 0.27174675E+02</totfact>
</mgrwt>
</event>
<event>
 6    1  0.2047711E-005  0.1355316E+04  0.7818608E-02  0.8986814E-01
          2   -1    0    0  501    0  0.00000000000E+00  0.00000000000E+00  0.12158117203E+04  0.12158117203E+04  0.00000000000E+00 0. -1.
         -2   -1    0    0    0  501 -0.00000000000E+00 -0.00000000000E+00 -0.37770690189E+03  0.37770690189E+03  0.00000000000E+00 0.  1.
         23    2    1    2    0    0 -0.28756170041E+03 -0.36774323975E+03  0.99360782639E+03  0.11014739013E+04  0.89785414027E+02 0.  0.
         13    1    3    3    0    0 -0.23695536588E+03 -0.30231410844E+03  0.72567956760E+03  0.82106790243E+03  0.00000000000E+00 0. -1.
        -13    1    3    3    0    0 -0.50606334532E+02 -0.65429131316E+02  0.26792825879E+03  0.28040599883E+03  0.00000000000E+00 0.  1.
         22    1    1    2    0    0  0.28756170041E+03  0.36774323975E+03 -0.15550300796E+03  0.49204472095E+03  0.00000000000E+00 0.  1.
<mgrwt>
<rscale>  0 0.13553162E+04</rscale>
<asrwt>0</asrwt>
<pdfrwt beam="1">  1        2 0.18704795E+00 0.13553162E+04</pdfrwt>
<pdfrwt beam="2">  1       -2 0.58108755E-01 0.13553162E+04</pdfrwt>
<totfact> 0.50142767E+01</totfact>
</mgrwt>
</event>
<event>
 6    1  0.2047711E-005  0.1641538E+04  0.7818608E-02  0.8795429E-01
          2   -1    0    0  501    0  0.00000000000E+00  0.00000000000E+00  0.25974243876E+04  0.25974243876E+04  0.00000000000E+00 0. -1.
         -2   -1    0    0    0  501 -0.00000000000E+00 -0.00000000000E+00 -0.25935744207E+03  0.25935744207E+03  0.00000000000E+00 0.  1.
         23    2    1    2    0    0 -0.47592827470E+02 -0.81540555859E+03  0.12579378064E+04  0.15025919392E+04  0.90684667083E+02 0.  0.
         13    1    3    3    0    0 -0.36576115913E+02 -0.58328445961E+03  0.97153577829E+03  0.11337726146E+04  0.00000000000E+00 0.  1.
        -13    1    3    3    0    0 -0.11016711557E+02 -0.23212109897E+03  0.28640202813E+03  0.36881932465E+03  0.00000000000E+00 0. -1.
         22    1    1    2    0    0  0.47592827470E+02  0.81540555859E+03  0.10801291392E+04  0.13541898905E+04  0.00000000000E+00 0.  1.
<mgrwt>
<rscale>  0 0.16415375E+04</rscale>
<asrwt>0</asrwt>
<pdfrwt beam="1">  1        2 0.39960373E+00 0.16415375E+04</pdfrwt>
<pdfrwt beam="2">  1       -2 0.39901147E-01 0.16415375E+04</pdfrwt>
<totfact> 0.17391412E+01</totfact>
</mgrwt>
</event>
<event>
 6    1  0.2047711E-005  0.1445513E+04  0.7818608E-02  0.8921517E-01
         -2   -1    0    0    0  501 -0.00000000000E+00  0.00000000000E+00  0.32658413498E+03  0.32658413498E+03  0.00000000000E+00 0.  1.
          2   -1    0    0  501    0  0.00000000000E+00 -0.00000000000E+00 -0.15995167989E+04  0.15995167989E+04  0.00000000000E+00 0. -1.
         23    2    1    2    0    0 -0.26479235280E+03  0.46806202880E+03 -0.12762093571E+04  0.13883205050E+04  0.97603527464E+02 0.  0.
         13    1    3    3    0    0 -0.43545077213E+02  0.16562335205E+03 -0.37117671290E+03  0.40877796013E+03  0.00000000000E+00 0.  1.
        -13    1    3    3    0    0 -0.22124727558E+03  0.30243867675E+03 -0.90503264424E+03  0.97954254491E+03  0.00000000000E+00 0. -1.
         22    1    1    2    0    0  0.26479235280E+03 -0.46806202880E+03  0.32766932372E+01  0.53778042882E+03  0.00000000000E+00 0.  1.
<mgrwt>
<rscale>  0 0.14455128E+04</rscale>
<asrwt>0</asrwt>
<pdfrwt beam="1">  1        2 0.24607951E+00 0.14455128E+04</pdfrwt>
<pdfrwt beam="2">  1       -2 0.50243713E-01 0.14455128E+04</pdfrwt>
<totfact> 0.40552528E+01</totfact>
</mgrwt>
</event>
<event>
 6    1  0.2047711E-005  0.3422062E+04  0.7818608E-02  0.8132513E-01
         -2   -1    0    0    0  501 -0.00000000000E+00  0.00000000000E+00  0.15895456788E+04  0.15895456788E+04  0.00000000000E+00 0.  1.
          2   -1    0    0  501    0  0.00000000000E+00 -0.00000000000E+00 -0.18418014543E+04  0.18418014543E+04  0.00000000000E+00 0. -1.
         23    2    1    2    0    0  0.15701350346E+04 -0.28321608137E+02 -0.80427964745E+03  0.17667581461E+04  0.91882834394E+02 0.  0.
         11    1    3    3    0    0  0.97826021505E+03 -0.35567215566E+02 -0.54671075322E+03  0.11212273288E+04  0.00000000000E+00 0. -1.
        -11    1    3    3    0    0  0.59187481954E+03  0.72456074293E+01 -0.25756889423E+03  0.64553081732E+03  0.00000000000E+00 0.  1.
         22    1    1    2    0    0 -0.15701350346E+04  0.28321608137E+02  0.55202387196E+03  0.16645889870E+04  0.00000000000E+00 0.  1.
<mgrwt>
<rscale>  0 0.34220623E+04</rscale>
<asrwt>0</asrwt>
<pdfrwt beam="1">  1        2 0.28335407E+00 0.34220623E+04</pdfrwt>
<pdfrwt beam="2">  1       -2 0.24454549E+00 0.34220623E+04</pdfrwt>
<totfact> 0.46969907E-01</totfact>
</mgrwt>
</event>
<event>
 6    1  0.2047711E-005  0.1475115E+04  0.7818608E-02  0.8901172E-01
          2   -1    0    0  501    0  0.00000000000E+00  0.00000000000E+00  0.15469917407E+04  0.15469917407E+04  0.00000000000E+00 0. -1.
         -2   -1    0    0    0  501 -0.00000000000E+00 -0.00000000000E+00 -0.35164450704E+03  0.35164450704E+03  0.00000000000E+00 0.  1.
         23    2    1    2    0    0 -0.65818617542E+02  0.26011102417E+03 -0.28064835668E+03  0.39845198638E+03  0.89502234801E+02 0.  0.
         13    1    3    3    0    0 -0.27222731991E+02  0.22596060214E+03 -0.20133954545E+03  0.30386984618E+03  0.00000000000E+00 0.  1.
        -13    1    3    3    0    0 -0.38595885551E+02  0.34150422033E+02 -0.79308811232E+02  0.94582140204E+02  0.00000000000E+00 0. -1.
         22    1    1    2    0    0  0.65818617542E+02 -0.26011102417E+03  0.14759955903E+04  0.15001842614E+04  0.00000000000E+00 0. -1.
<mgrwt>
<rscale>  0 0.14751151E+04</rscale>
<asrwt>0</asrwt>
<pdfrwt beam="1">  1        2 0.23799873E+00 0.14751151E+04</pdfrwt>
<pdfrwt beam="2">  1       -2 0.54099156E-01 0.14751151E+04</pdfrwt>
<totfact> 0.37188813E+01</totfact>
</mgrwt>
</event>
<event>
 6    1  0.2047711E-005  0.3527905E+04  0.7818608E-02  0.8107209E-01
         -2   -1    0    0    0  501 -0.00000000000E+00  0.00000000000E+00  0.10452849274E+04  0.10452849274E+04  0.00000000000E+00 0.  1.
          2   -1    0    0  501    0  0.00000000000E+00 -0.00000000000E+00 -0.29767272981E+04  0.29767272981E+04  0.00000000000E+00 0. -1.
         23    2    1    2    0    0  0.82172565552E+03  0.11400718529E+04 -0.21794870851E+04  0.25949442302E+04  0.92599788031E+02 0.  0.
         11    1    3    3    0    0  0.23602204938E+03  0.26799827597E+03 -0.59099714665E+03  0.69051220921E+03  0.00000000000E+00 0.  1.
        -11    1    3    3    0    0  0.58570360614E+03  0.87207357694E+03 -0.15884899385E+04  0.19044320210E+04  0.00000000000E+00 0. -1.
         22    1    1    2    0    0 -0.82172565552E+03 -0.11400718529E+04  0.24804471449E+03  0.14270679953E+04  0.00000000000E+00 0.  1.
<mgrwt>
<rscale>  0 0.35279049E+04</rscale>
<asrwt>0</asrwt>
<pdfrwt beam="1">  1        2 0.45795804E+00 0.35279049E+04</pdfrwt>
<pdfrwt beam="2">  1       -2 0.16081307E+00 0.35279049E+04</pdfrwt>
<totfact> 0.36648170E-01</totfact>
</mgrwt>
</event>
<event>
 6    1  0.2047711E-005  0.2325490E+04  0.7818608E-02  0.8467938E-01
          2   -1    0    0  501    0  0.00000000000E+00  0.00000000000E+00  0.11697934137E+04  0.11697934137E+04  0.00000000000E+00 0. -1.
         -2   -1    0    0    0  501 -0.00000000000E+00 -0.00000000000E+00 -0.11557389400E+04  0.11557389400E+04  0.00000000000E+00 0.  1.
         23    2    1    2    0    0  0.95679493232E+03  0.10424696168E+03 -0.64222495578E+03  0.11606174808E+04  0.90862926135E+02 0.  0.
         13    1    3    3    0    0  0.34106142414E+03  0.48541576412E+02 -0.28107325802E+03  0.44461371554E+03  0.00000000000E+00 0. -1.
        -13    1    3    3    0    0  0.61573350819E+03  0.55705385266E+02 -0.36115169776E+03  0.71600376525E+03  0.00000000000E+00 0.  1.
         22    1    1    2    0    0 -0.95679493232E+03 -0.10424696168E+03  0.65627942954E+03  0.11649148729E+04  0.00000000000E+00 0. -1.
<mgrwt>
<rscale>  0 0.23254899E+04</rscale>
<asrwt>0</asrwt>
<pdfrwt beam="1">  1        2 0.17996822E+00 0.23254899E+04</pdfrwt>
<pdfrwt beam="2">  1       -2 0.17780599E+00 0.23254899E+04</pdfrwt>
<totfact> 0.33555058E+00</totfact>
</mgrwt>
</event>
<event>
 6    1  0.2047711E-005  0.1734382E+04  0.7818608E-02  0.8741994E-01
          2   -1    0    0  501    0  0.00000000000E+00  0.00000000000E+00  0.45431656356E+04  0.45431656356E+04  0.00000000000E+00 0.  1.
         -2   -1    0    0    0  501 -0.00000000000E+00 -0.00000000000E+00 -0.16552783756E+03  0.16552783756E+03  0.00000000000E+00 0. -1.
         23    2    1    2    0    0 -0.58093866954E+03 -0.30985177743E+03  0.67314482433E+03  0.94614565898E+03  0.92573169699E+02 0.  0.
         11    1    3    3    0    0 -0.76967068034E+02 -0.34276897581E+02  0.47117124876E+02  0.96534236031E+02  0.00000000000E+00 0. -1.
        -11    1    3    3    0    0 -0.50397160151E+03 -0.27557487984E+03  0.62602769945E+03  0.84961142295E+03  0.00000000000E+00 0.  1.
         22    1    1    2    0    0  0.58093866954E+03  0.30985177743E+03  0.37044929737E+04  0.37625478142E+04  0.00000000000E+00 0.  1.
<mgrwt>
<rscale>  0 0.17343822E+04</rscale>
<asrwt>0</asrwt>
<pdfrwt beam="1">  1        2 0.69894847E+00 0.17343822E+04</pdfrwt>
<pdfrwt beam="2">  1       -2 0.25465825E-01 0.17343822E+04</pdfrwt>
<totfact> 0.15072496E+00</totfact>
</mgrwt>
</event>
<event>
 6    1  0.2047711E-005  0.1839311E+04  0.7818608E-02  0.8685669E-01
          2   -1    0    0  501    0  0.00000000000E+00  0.00000000000E+00  0.18334815801E+04  0.18334815801E+04  0.00000000000E+00 0. -1.
         -2   -1    0    0    0  501 -0.00000000000E+00 -0.00000000000E+00 -0.46128989987E+03  0.46128989987E+03  0.00000000000E+00 0.  1.
         23    2    1    2    0    0  0.13059531813E+03  0.61990314075E+03 -0.14001858274E+03  0.65522431063E+03  0.91534980744E+02 0.  0.
         11    1    3    3    0    0  0.62589817591E+02  0.26205787575E+03 -0.14003446194E+02  0.26979234981E+03  0.00000000000E+00 0. -1.
        -11    1    3    3    0    0  0.68005500541E+02  0.35784526500E+03 -0.12601513654E+03  0.38543196082E+03  0.00000000000E+00 0.  1.
         22    1    1    2    0    0 -0.13059531813E+03 -0.61990314075E+03  0.15122102630E+04  0.16395471693E+04  0.00000000000E+00 0. -1.
<mgrwt>
<rscale>  0 0.18393113E+04</rscale>
<asrwt>0</asrwt>
<pdfrwt beam="1">  1        2 0.28207408E+00 0.18393113E+04</pdfrwt>
<pdfrwt beam="2">  1       -2 0.70967678E-01 0.18393113E+04</pdfrwt>
<totfact> 0.14033282E+01</totfact>
</mgrwt>
</event>
<event>
 6    1  0.2047711E-005  0.2610938E+04  0.7818608E-02  0.8364495E-01
          2   -1    0    0  501    0  0.00000000000E+00  0.00000000000E+00  0.15795995603E+04  0.15795995603E+04  0.00000000000E+00 0. -1.
         -2   -1    0    0    0  501 -0.00000000000E+00 -0.00000000000E+00 -0.10789126141E+04  0.10789126141E+04  0.00000000000E+00 0.  1.
         23    2    1    2    0    0  0.57350908618E+03 -0.31448614065E+03  0.13991321167E+04  0.15471985693E+04  0.91861463494E+02 0.  0.
         13    1    3    3    0    0  0.21221798221E+03 -0.16007328309E+03  0.62085647776E+03  0.67536856154E+03  0.00000000000E+00 0. -1.
        -13    1    3    3    0    0  0.36129110397E+03 -0.15441285756E+03  0.77827563891E+03  0.87183000780E+03  0.00000000000E+00 0.  1.
         22    1    1    2    0    0 -0.57350908618E+03  0.31448614065E+03 -0.89844517045E+03  0.11113136051E+04  0.00000000000E+00 0.  1.
<mgrwt>
<rscale>  0 0.26109384E+04</rscale>
<asrwt>0</asrwt>
<pdfrwt beam="1">  1        2 0.24301532E+00 0.26109384E+04</pdfrwt>
<pdfrwt beam="2">  1       -2 0.16598656E+00 0.26109384E+04</pdfrwt>
<totfact> 0.23047845E+00</totfact>
</mgrwt>
</event>
<event>
 6    1  0.2047711E-005  0.8361808E+03  0.7818608E-02  0.9509075E-01
         -1   -1    0    0    0  501 -0.00000000000E+00  0.00000000000E+00  0.21857231940E+03  0.21857231940E+03  0.00000000000E+00 0.  1.
          1   -1    0    0  501    0  0.00000000000E+00 -0.00000000000E+00 -0.79973342335E+03  0.79973342335E+03  0.00000000000E+00 0. -1.
         23    2    1    2    0    0  0.36780742411E+02  0.15351734515E+03 -0.75892810000E+03  0.78056322834E+03  0.91578896001E+02 0.  0.
         11    1    3    3    0    0  0.67584876896E+02  0.10238037127E+03 -0.49661159122E+03  0.51153937145E+03  0.00000000000E+00 0.  1.
        -11    1    3    3    0    0 -0.30804134485E+02  0.51136973872E+02 -0.26231650877E+03  0.26902385689E+03  0.00000000000E+00 0. -1.
         22    1    1    2    0    0 -0.36780742411E+02 -0.15351734515E+03  0.17776699605E+03  0.23774251441E+03  0.00000000000E+00 0.  1.
<mgrwt>
<rscale>  0 0.83618082E+03</rscale>
<asrwt>0</asrwt>
<pdfrwt beam="1">  1        1 0.12303591E+00 0.83618082E+03</pdfrwt>
<pdfrwt beam="2">  1       -1 0.33626511E-01 0.83618082E+03</pdfrwt>
<totfact> 0.18603383E+02</totfact>
</mgrwt>
</event>
<event>
 6    1  0.2047711E-005  0.2640602E+04  0.7818608E-02  0.8354539E-01
         -2   -1    0    0    0  501 -0.00000000000E+00  0.00000000000E+00  0.54147660284E+03  0.54147660284E+03  0.00000000000E+00 0.  1.
          2   -1    0    0  501    0  0.00000000000E+00 -0.00000000000E+00 -0.32193344619E+04  0.32193344619E+04  0.00000000000E+00 0. -1.
         23    2    1    2    0    0  0.81090603079E+03 -0.59699584583E+03 -0.25539074723E+04  0.27462489281E+04  0.73940293933E+02 0.  0.
         11    1    3    3    0    0  0.58460472095E+03 -0.38967998861E+03 -0.17527873039E+04  0.18883528553E+04  0.00000000000E+00 0.  1.
        -11    1    3    3    0    0  0.22630130984E+03 -0.20731585721E+03 -0.80112016841E+03  0.85789607280E+03  0.00000000000E+00 0. -1.
         22    1    1    2    0    0 -0.81090603079E+03  0.59699584583E+03 -0.12395038670E+03  0.10145621366E+04  0.00000000000E+00 0.  1.
<mgrwt>
<rscale>  0 0.26406017E+04</rscale>
<asrwt>0</asrwt>
<pdfrwt beam="1">  1        2 0.49528222E+00 0.26406017E+04</pdfrwt>
<pdfrwt beam="2">  1       -2 0.83304093E-01 0.26406017E+04</pdfrwt>
<totfact> 0.14007268E+00</totfact>
</mgrwt>
</event>
<event>
 6    1  0.2047711E-005  0.8225865E+03  0.7818608E-02  0.9527887E-01
         -2   -1    0    0    0  501 -0.00000000000E+00  0.00000000000E+00  0.42268646060E+03  0.42268646060E+03  0.00000000000E+00 0.  1.
          2   -1    0    0  501    0  0.00000000000E+00 -0.00000000000E+00 -0.40020718198E+03  0.40020718198E+03  0.00000000000E+00 0. -1.
         23    2    1    2    0    0 -0.61514062917E+02 -0.38798011547E+03  0.11504871483E+03  0.41930765365E+03  0.90940374336E+02 0.  0.
         11    1    3    3    0    0 -0.37067226083E+02 -0.42097650785E+02  0.97969059913E+01  0.56940063384E+02  0.00000000000E+00 0. -1.
        -11    1    3    3    0    0 -0.24446836833E+02 -0.34588246469E+03  0.10525180884E+03  0.36236759027E+03  0.00000000000E+00 0.  1.
         22    1    1    2    0    0  0.61514062917E+02  0.38798011547E+03 -0.92569436211E+02  0.40358598893E+03  0.00000000000E+00 0. -1.
<mgrwt>
<rscale>  0 0.82258655E+03</rscale>
<asrwt>0</asrwt>
<pdfrwt beam="1">  1        2 0.61570335E-01 0.82258655E+03</pdfrwt>
<pdfrwt beam="2">  1       -2 0.65028687E-01 0.82258655E+03</pdfrwt>
<totfact> 0.17455158E+02</totfact>
</mgrwt>
</event>
<event>
 6    1  0.2047711E-005  0.2012775E+04  0.7818608E-02  0.8600671E-01
         -2   -1    0    0    0  501 -0.00000000000E+00  0.00000000000E+00  0.25660923025E+04  0.25660923025E+04  0.00000000000E+00 0. -1.
          2   -1    0    0  501    0  0.00000000000E+00 -0.00000000000E+00 -0.39469177370E+03  0.39469177370E+03  0.00000000000E+00 0.  1.
         23    2    1    2    0    0 -0.78265521250E+03 -0.26756293723E+03  0.24996582056E+03  0.86888292053E+03  0.91299020304E+02 0.  0.
         13    1    3    3    0    0 -0.20574629056E+03 -0.79301267105E+02  0.26017416935E+02  0.22202957692E+03  0.00000000000E+00 0. -1.
        -13    1    3    3    0    0 -0.57690892194E+03 -0.18826167013E+03  0.22394840363E+03  0.64685334361E+03  0.00000000000E+00 0.  1.
         22    1    1    2    0    0  0.78265521250E+03  0.26756293723E+03  0.19214347082E+04  0.20919011557E+04  0.00000000000E+00 0. -1.
<mgrwt>
<rscale>  0 0.20127747E+04</rscale>
<asrwt>0</asrwt>
<pdfrwt beam="1">  1        2 0.60721813E-01 0.20127747E+04</pdfrwt>
<pdfrwt beam="2">  1       -2 0.39478342E+00 0.20127747E+04</pdfrwt>
<totfact> 0.60322629E-01</totfact>
</mgrwt>
</event>
<event>
 6    1  0.2047711E-005  0.2650385E+04  0.7818608E-02  0.8351285E-01
          2   -1    0    0  501    0  0.00000000000E+00  0.00000000000E+00  0.37367859070E+04  0.37367859070E+04  0.00000000000E+00 0. -1.
         -2   -1    0    0    0  501 -0.00000000000E+00 -0.00000000000E+00 -0.46995878569E+03  0.46995878569E+03  0.00000000000E+00 0.  1.
         23    2    1    2    0    0  0.10621855074E+04  0.41241266144E+03  0.56573092521E+03  0.12751507720E+04  0.87382814021E+02 0.  0.
         13    1    3    3    0    0  0.68607999089E+03  0.30678569967E+03  0.39144640939E+03  0.84738038144E+03  0.00000000000E+00 0. -1.
        -13    1    3    3    0    0  0.37610551647E+03  0.10562696177E+03  0.17428451582E+03  0.42777039055E+03  0.00000000000E+00 0.  1.
         22    1    1    2    0    0 -0.10621855074E+04 -0.41241266144E+03  0.27010961961E+04  0.29315939207E+04  0.00000000000E+00 0. -1.
<mgrwt>
<rscale>  0 0.26503852E+04</rscale>
<asrwt>0</asrwt>
<pdfrwt beam="1">  1        2 0.57489012E+00 0.26503852E+04</pdfrwt>
<pdfrwt beam="2">  1       -2 0.72301354E-01 0.26503852E+04</pdfrwt>
<totfact> 0.83686814E-01</totfact>
</mgrwt>
</event>
<event>
 6    1  0.2047711E-005  0.1247376E+04  0.7818608E-02  0.9072370E-01
         -2   -1    0    0    0  501 -0.00000000000E+00  0.00000000000E+00  0.25881951324E+03  0.25881951324E+03  0.00000000000E+00 0.  1.
          2   -1    0    0  501    0  0.00000000000E+00 -0.00000000000E+00 -0.15029277433E+04  0.15029277433E+04  0.00000000000E+00 0. -1.
         23    2    1    2    0    0  0.19733549322E+03  0.28956569180E+03 -0.13483870590E+04  0.13961468450E+04  0.91042656887E+02 0.  0.
         13    1    3    3    0    0  0.56674793719E+02  0.15628609917E+03 -0.69676908251E+03  0.71632711199E+03  0.00000000000E+00 0.  1.
        -13    1    3    3    0    0  0.14066069950E+03  0.13327959263E+03 -0.65161797646E+03  0.67981973305E+03  0.00000000000E+00 0. -1.
         22    1    1    2    0    0 -0.19733549322E+03 -0.28956569180E+03  0.10427882888E+03  0.36560041152E+03  0.00000000000E+00 0.  1.
<mgrwt>
<rscale>  0 0.12473765E+04</rscale>
<asrwt>0</asrwt>
<pdfrwt beam="1">  1        2 0.23121966E+00 0.12473765E+04</pdfrwt>
<pdfrwt beam="2">  1       -2 0.39818385E-01 0.12473765E+04</pdfrwt>
<totfact> 0.74191859E+01</totfact>
</mgrwt>
</event>
<event>
 6    1  0.3717566E-005  0.4228923E+04  0.7818608E-02  0.7959893E-01
         -2   -1    0    0    0  501 -0.00000000000E+00  0.00000000000E+00  0.14887605138E+04  0.14887605138E+04  0.00000000000E+00 0.  1.
          2   -1    0    0  501    0  0.00000000000E+00 -0.00000000000E+00 -0.30031347884E+04  0.30031347884E+04  0.00000000000E+00 0. -1.
         23    2    1    2    0    0 -0.18084099059E+04 -0.87963084345E+03 -0.14481366594E+04  0.24798107537E+04  0.90910845060E+02 0.  0.
         11    1    3    3    0    0 -0.10663242946E+04 -0.56121386079E+03 -0.83885351300E+03  0.14682246814E+04  0.00000000000E+00 0.  1.
        -11    1    3    3    0    0 -0.74208561128E+03 -0.31841698266E+03 -0.60928314638E+03  0.10115860724E+04  0.00000000000E+00 0. -1.
         22    1    1    2    0    0  0.18084099059E+04  0.87963084345E+03 -0.66237615271E+02  0.20120845484E+04  0.00000000000E+00 0.  1.
<mgrwt>
<rscale>  0 0.42289235E+04</rscale>
<asrwt>0</asrwt>
<pdfrwt beam="1">  1        2 0.46202073E+00 0.42289235E+04</pdfrwt>
<pdfrwt beam="2">  1       -2 0.22904008E+00 0.42289235E+04</pdfrwt>
<totfact> 0.11630447E-01</totfact>
</mgrwt>
</event>
<event>
 6    1  0.2047711E-005  0.4994705E+04  0.7818608E-02  0.7829324E-01
          2   -1    0    0  501    0  0.00000000000E+00  0.00000000000E+00  0.27886467068E+04  0.27886467068E+04  0.00000000000E+00 0. -1.
         -2   -1    0    0    0  501 -0.00000000000E+00 -0.00000000000E+00 -0.22364864159E+04  0.22364864159E+04  0.00000000000E+00 0.  1.
         23    2    1    2    0    0 -0.85495878522E+03 -0.23403535244E+04  0.11868319059E+03  0.24960796357E+04  0.90103852113E+02 0.  0.
         11    1    3    3    0    0 -0.57074110429E+03 -0.15860618249E+04  0.38854052468E+02  0.16860744817E+04  0.00000000000E+00 0. -1.
        -11    1    3    3    0    0 -0.28421768093E+03 -0.75429169959E+03  0.79829138120E+02  0.81000515401E+03  0.00000000000E+00 0.  1.
         22    1    1    2    0    0  0.85495878522E+03  0.23403535244E+04  0.43347710034E+03  0.25290534870E+04  0.00000000000E+00 0.  1.
<mgrwt>
<rscale>  0 0.49947054E+04</rscale>
<asrwt>0</asrwt>
<pdfrwt beam="1">  1        2 0.42902257E+00 0.49947054E+04</pdfrwt>
<pdfrwt beam="2">  1       -2 0.34407483E+00 0.49947054E+04</pdfrwt>
<totfact> 0.29004654E-02</totfact>
</mgrwt>
</event>
<event>
 6    1  0.2047711E-005  0.3097459E+04  0.7818608E-02  0.8216436E-01
         -2   -1    0    0    0  501 -0.00000000000E+00  0.00000000000E+00  0.12831868611E+04  0.12831868611E+04  0.00000000000E+00 0.  1.
          2   -1    0    0  501    0  0.00000000000E+00 -0.00000000000E+00 -0.18692229227E+04  0.18692229227E+04  0.00000000000E+00 0. -1.
         23    2    1    2    0    0  0.14557840335E+04 -0.51328049920E+03 -0.40154453145E+03  0.15978033553E+04  0.94728709533E+02 0.  0.
         11    1    3    3    0    0  0.79652284944E+03 -0.23737959096E+03 -0.24013380843E+03  0.86513696363E+03  0.00000000000E+00 0.  1.
        -11    1    3    3    0    0  0.65926118404E+03 -0.27590090824E+03 -0.16141072302E+03  0.73266639165E+03  0.00000000000E+00 0. -1.
         22    1    1    2    0    0 -0.14557840335E+04  0.51328049920E+03 -0.18449153013E+03  0.15546064285E+04  0.00000000000E+00 0.  1.
<mgrwt>
<rscale>  0 0.30974585E+04</rscale>
<asrwt>0</asrwt>
<pdfrwt beam="1">  1        2 0.28757276E+00 0.30974585E+04</pdfrwt>
<pdfrwt beam="2">  1       -2 0.19741336E+00 0.30974585E+04</pdfrwt>
<totfact> 0.92785357E-01</totfact>
</mgrwt>
</event>
<event>
 6    1  0.2047711E-005  0.1024128E+04  0.7818608E-02  0.9282471E-01
          2   -1    0    0  501    0  0.00000000000E+00  0.00000000000E+00  0.20153629107E+04  0.20153629107E+04  0.00000000000E+00 0. -1.
         -2   -1    0    0    0  501 -0.00000000000E+00 -0.00000000000E+00 -0.13010526068E+03  0.13010526068E+03  0.00000000000E+00 0.  1.
         23    2    1    2    0    0 -0.15400531226E+02 -0.49437919319E+03  0.11794759843E+04  0.12836237988E+04  0.10898851360E+03 0.  0.
         11    1    3    3    0    0  0.32898557735E+02 -0.95894760600E+02  0.30536569489E+03  0.32175507428E+03  0.00000000000E+00 0.  1.
        -11    1    3    3    0    0 -0.48299088960E+02 -0.39848443259E+03  0.87411028944E+03  0.96186872447E+03  0.00000000000E+00 0. -1.
         22    1    1    2    0    0  0.15400531226E+02  0.49437919319E+03  0.70578166568E+03  0.86184437262E+03  0.00000000000E+00 0.  1.
<mgrwt>
<rscale>  0 0.10241276E+04</rscale>
<asrwt>0</asrwt>
<pdfrwt beam="1">  1        2 0.31005581E+00 0.10241276E+04</pdfrwt>
<pdfrwt beam="2">  1       -2 0.20016195E-01 0.10241276E+04</pdfrwt>
<totfact> 0.13990221E+02</totfact>
</mgrwt>
</event>
<event>
 6    1  0.2047711E-005  0.3149597E+04  0.7818608E-02  0.8202257E-01
         -1   -1    0    0    0  501 -0.00000000000E+00  0.00000000000E+00  0.16198325751E+04  0.16198325751E+04  0.00000000000E+00 0.  1.
          1   -1    0    0  501    0  0.00000000000E+00 -0.00000000000E+00 -0.15310167507E+04  0.15310167507E+04  0.00000000000E+00 0. -1.
         23    2    1    2    0    0 -0.12845972737E+04  0.90411481791E+03 -0.48339603782E+02  0.15740090134E+04  0.86913159376E+02 0.  0.
         11    1    3    3    0    0 -0.35287314776E+03  0.23915537659E+03 -0.51089025319E+02  0.42933068964E+03  0.00000000000E+00 0. -1.
        -11    1    3    3    0    0 -0.93172412593E+03  0.66495944133E+03  0.27494215374E+01  0.11446783237E+04  0.00000000000E+00 0.  1.
         22    1    1    2    0    0  0.12845972737E+04 -0.90411481791E+03  0.13715542810E+03  0.15768403125E+04  0.00000000000E+00 0. -1.
<mgrwt>
<rscale>  0 0.31495973E+04</rscale>
<asrwt>0</asrwt>
<pdfrwt beam="1">  1        1 0.23554104E+00 0.31495973E+04</pdfrwt>
<pdfrwt beam="2">  1       -1 0.24920501E+00 0.31495973E+04</pdfrwt>
<totfact> 0.36911788E-01</totfact>
</mgrwt>
</event>
<event>
 6    1  0.2047711E-005  0.2343672E+04  0.7818608E-02  0.8460898E-01
         -2   -1    0    0    0  501 -0.00000000000E+00  0.00000000000E+00  0.87112380733E+03  0.87112380733E+03  0.00000000000E+00 0.  1.
          2   -1    0    0  501    0  0.00000000000E+00 -0.00000000000E+00 -0.15763536632E+04  0.15763536632E+04  0.00000000000E+00 0. -1.
         23    2    1    2    0    0 -0.40264605990E+03 -0.28327442989E+02  0.79373789702E+03  0.89511455620E+03  0.91016075391E+02 0.  0.
         11    1    3    3    0    0 -0.20233577153E+03 -0.45506057869E+02  0.47453932938E+03  0.51787850010E+03  0.00000000000E+00 0. -1.
        -11    1    3    3    0    0 -0.20031028837E+03  0.17178614880E+02  0.31919856765E+03  0.37723605610E+03  0.00000000000E+00 0.  1.
         22    1    1    2    0    0  0.40264605990E+03  0.28327442989E+02 -0.14989677529E+04  0.15523629144E+04  0.00000000000E+00 0. -1.
<mgrwt>
<rscale>  0 0.23436717E+04</rscale>
<asrwt>0</asrwt>
<pdfrwt beam="1">  1        2 0.24251594E+00 0.23436717E+04</pdfrwt>
<pdfrwt beam="2">  1       -2 0.13401905E+00 0.23436717E+04</pdfrwt>
<totfact> 0.41754650E+00</totfact>
</mgrwt>
</event>
<event>
 6    1  0.2047711E-005  0.1310821E+04  0.7818608E-02  0.9021028E-01
         -2   -1    0    0    0  501 -0.00000000000E+00  0.00000000000E+00  0.43933647564E+03  0.43933647564E+03  0.00000000000E+00 0.  1.
          2   -1    0    0  501    0  0.00000000000E+00 -0.00000000000E+00 -0.97775401004E+03  0.97775401004E+03  0.00000000000E+00 0. -1.
         23    2    1    2    0    0 -0.24273637084E+03  0.52451197889E+03 -0.59700595450E+03  0.83617193314E+03  0.93453894149E+02 0.  0.
         11    1    3    3    0    0 -0.18148561288E+03  0.46776604982E+03 -0.50351298206E+03  0.71082165706E+03  0.00000000000E+00 0. -1.
        -11    1    3    3    0    0 -0.61250757953E+02  0.56745929068E+02 -0.93492972441E+02  0.12535027607E+03  0.00000000000E+00 0.  1.
         22    1    1    2    0    0  0.24273637084E+03 -0.52451197889E+03  0.58588420097E+02  0.58091855255E+03  0.00000000000E+00 0.  1.
<mgrwt>
<rscale>  0 0.13108211E+04</rscale>
<asrwt>0</asrwt>
<pdfrwt beam="1">  1        2 0.15042369E+00 0.13108211E+04</pdfrwt>
<pdfrwt beam="2">  1       -2 0.67590227E-01 0.13108211E+04</pdfrwt>
<totfact> 0.51177970E+01</totfact>
</mgrwt>
</event>
<event>
 6    1  0.2047711E-005  0.2312170E+04  0.7818608E-02  0.8473138E-01
         -2   -1    0    0    0  501 -0.00000000000E+00  0.00000000000E+00  0.10634201328E+04  0.10634201328E+04  0.00000000000E+00 0.  1.
          2   -1    0    0  501    0  0.00000000000E+00 -0.00000000000E+00 -0.12568248148E+04  0.12568248148E+04  0.00000000000E+00 0. -1.
         23    2    1    2    0    0  0.59766311661E+03 -0.33955670185E+03 -0.10273196758E+04  0.12395441695E+04  0.92650294339E+02 0.  0.
         11    1    3    3    0    0  0.29223202156E+03 -0.14564461759E+03 -0.41136450446E+03  0.52519773856E+03  0.00000000000E+00 0. -1.
        -11    1    3    3    0    0  0.30543109505E+03 -0.19391208426E+03 -0.61595517137E+03  0.71434643093E+03  0.00000000000E+00 0.  1.
         22    1    1    2    0    0 -0.59766311661E+03  0.33955670185E+03  0.83391499382E+03  0.10807007780E+04  0.00000000000E+00 0.  1.
<mgrwt>
<rscale>  0 0.23121702E+04</rscale>
<asrwt>0</asrwt>
<pdfrwt beam="1">  1        2 0.19335766E+00 0.23121702E+04</pdfrwt>
<pdfrwt beam="2">  1       -2 0.16360310E+00 0.23121702E+04</pdfrwt>
<totfact> 0.37619626E+00</totfact>
</mgrwt>
</event>
<event>
 6    1  0.2047711E-005  0.9395426E+03  0.7818608E-02  0.9377458E-01
         -2   -1    0    0    0  501 -0.00000000000E+00  0.00000000000E+00  0.30132363866E+03  0.30132363866E+03  0.00000000000E+00 0.  1.
          2   -1    0    0  501    0  0.00000000000E+00 -0.00000000000E+00 -0.73238556475E+03  0.73238556475E+03  0.00000000000E+00 0. -1.
         23    2    1    2    0    0 -0.18448894781E+02  0.21215288806E+03  0.23478585328E+03  0.33463662140E+03  0.10727563493E+03 0.  0.
         13    1    3    3    0    0  0.23200484432E+02  0.47173906412E+02  0.11530066016E+03  0.12671969917E+03  0.00000000000E+00 0.  1.
        -13    1    3    3    0    0 -0.41649379212E+02  0.16497898165E+03  0.11948519312E+03  0.20791692223E+03  0.00000000000E+00 0. -1.
         22    1    1    2    0    0  0.18448894781E+02 -0.21215288806E+03 -0.66584777937E+03  0.69907258201E+03  0.00000000000E+00 0. -1.
<mgrwt>
<rscale>  0 0.93954262E+03</rscale>
<asrwt>0</asrwt>
<pdfrwt beam="1">  1        2 0.11267470E+00 0.93954262E+03</pdfrwt>
<pdfrwt beam="2">  1       -2 0.46357483E-01 0.93954262E+03</pdfrwt>
<totfact> 0.17081041E+02</totfact>
</mgrwt>
</event>
<event>
 6    1  0.2047711E-005  0.3833990E+04  0.7818608E-02  0.8038900E-01
         -2   -1    0    0    0  501 -0.00000000000E+00  0.00000000000E+00  0.24558109935E+04  0.24558109935E+04  0.00000000000E+00 0.  1.
          2   -1    0    0  501    0  0.00000000000E+00 -0.00000000000E+00 -0.14963975486E+04  0.14963975486E+04  0.00000000000E+00 0. -1.
         23    2    1    2    0    0 -0.82737752191E+03  0.42869989071E+03 -0.12456775219E+04  0.15583072633E+04  0.90949866156E+02 0.  0.
         11    1    3    3    0    0 -0.20936992437E+03  0.14135947944E+03 -0.38462787192E+03  0.46017047658E+03  0.00000000000E+00 0. -1.
        -11    1    3    3    0    0 -0.61800759753E+03  0.28734041128E+03 -0.86104965002E+03  0.10981367867E+04  0.00000000000E+00 0.  1.
         22    1    1    2    0    0  0.82737752191E+03 -0.42869989071E+03  0.22050909669E+04  0.23939012787E+04  0.00000000000E+00 0.  1.
<mgrwt>
<rscale>  0 0.38339899E+04</rscale>
<asrwt>0</asrwt>
<pdfrwt beam="1">  1        2 0.23021501E+00 0.38339899E+04</pdfrwt>
<pdfrwt beam="2">  1       -2 0.37781708E+00 0.38339899E+04</pdfrwt>
<totfact> 0.10540766E-01</totfact>
</mgrwt>
</event>
<event>
 6    1  0.2047711E-005  0.2849621E+04  0.7818608E-02  0.8288027E-01
         -1   -1    0    0    0  501 -0.00000000000E+00  0.00000000000E+00  0.72488056144E+03  0.72488056144E+03  0.00000000000E+00 0.  1.
          1   -1    0    0  501    0  0.00000000000E+00 -0.00000000000E+00 -0.28005778392E+04  0.28005778392E+04  0.00000000000E+00 0. -1.
         23    2    1    2    0    0  0.86559673985E+03 -0.10682421911E+04 -0.58357296659E+03  0.14964601121E+04  0.91849687432E+02 0.  0.
         11    1    3    3    0    0  0.54983232011E+03 -0.71646865694E+03 -0.34313262447E+03  0.96611744348E+03  0.00000000000E+00 0. -1.
        -11    1    3    3    0    0  0.31576441974E+03 -0.35177353411E+03 -0.24044034212E+03  0.53034266865E+03  0.00000000000E+00 0.  1.
         22    1    1    2    0    0 -0.86559673985E+03  0.10682421911E+04 -0.14921243111E+04  0.20289982885E+04  0.00000000000E+00 0. -1.
<mgrwt>
<rscale>  0 0.28496206E+04</rscale>
<asrwt>0</asrwt>
<pdfrwt beam="1">  1        1 0.43085813E+00 0.28496206E+04</pdfrwt>
<pdfrwt beam="2">  1       -1 0.11152009E+00 0.28496206E+04</pdfrwt>
<totfact> 0.52990647E-01</totfact>
</mgrwt>
</event>
<event>
 6    1  0.2047711E-005  0.3028634E+04  0.7818608E-02  0.8235601E-01
         -2   -1    0    0    0  501 -0.00000000000E+00  0.00000000000E+00  0.74498049895E+03  0.74498049895E+03  0.00000000000E+00 0.  1.
          2   -1    0    0  501    0  0.00000000000E+00 -0.00000000000E+00 -0.30781424908E+04  0.30781424908E+04  0.00000000000E+00 0. -1.
         23    2    1    2    0    0  0.12576756989E+04 -0.44605198362E+03 -0.20675900246E+04  0.24625205476E+04  0.91478970756E+02 0.  0.
         13    1    3    3    0    0  0.65659901041E+03 -0.22744857176E+03 -0.11600333209E+04  0.13522323834E+04  0.00000000000E+00 0.  1.
        -13    1    3    3    0    0  0.60107668852E+03 -0.21860341186E+03 -0.90755670368E+03  0.11102881642E+04  0.00000000000E+00 0. -1.
         22    1    1    2    0    0 -0.12576756989E+04  0.44605198362E+03 -0.26557196731E+03  0.13606024421E+04  0.00000000000E+00 0.  1.
<mgrwt>
<rscale>  0 0.30286341E+04</rscale>
<asrwt>0</asrwt>
<pdfrwt beam="1">  1        2 0.47356039E+00 0.30286341E+04</pdfrwt>
<pdfrwt beam="2">  1       -2 0.11461238E+00 0.30286341E+04</pdfrwt>
<totfact> 0.78847587E-01</totfact>
</mgrwt>
</event>
<event>
 6    1  0.2047711E-005  0.1657514E+04  0.7818608E-02  0.8785974E-01
         -2   -1    0    0    0  501 -0.00000000000E+00  0.00000000000E+00  0.34524907434E+03  0.34524907434E+03  0.00000000000E+00 0.  1.
          2   -1    0    0  501    0  0.00000000000E+00 -0.00000000000E+00 -0.19893992247E+04  0.19893992247E+04  0.00000000000E+00 0. -1.
         23    2    1    2    0    0  0.30089500318E+03 -0.76855554362E+03 -0.77162833874E+03  0.11336030300E+04  0.91815629644E+02 0.  0.
         13    1    3    3    0    0  0.13041207086E+03 -0.45763197288E+03 -0.44079024234E+03  0.64863731667E+03  0.00000000000E+00 0. -1.
        -13    1    3    3    0    0  0.17048293232E+03 -0.31092357074E+03 -0.33083809639E+03  0.48496571330E+03  0.00000000000E+00 0.  1.
         22    1    1    2    0    0 -0.30089500318E+03  0.76855554362E+03 -0.87252181160E+03  0.12010452690E+04  0.00000000000E+00 0.  1.
<mgrwt>
<rscale>  0 0.16575141E+04</rscale>
<asrwt>0</asrwt>
<pdfrwt beam="1">  1        2 0.30606141E+00 0.16575141E+04</pdfrwt>
<pdfrwt beam="2">  1       -2 0.53115243E-01 0.16575141E+04</pdfrwt>
<totfact> 0.21612949E+01</totfact>
</mgrwt>
</event>
<event>
 6    1  0.2047711E-005  0.1128584E+04  0.7818608E-02  0.9177772E-01
          2   -1    0    0  501    0  0.00000000000E+00  0.00000000000E+00  0.12781005436E+04  0.12781005436E+04  0.00000000000E+00 0. -1.
         -2   -1    0    0    0  501 -0.00000000000E+00 -0.00000000000E+00 -0.24913940057E+03  0.24913940057E+03  0.00000000000E+00 0.  1.
         23    2    1    2    0    0  0.50939348723E+03  0.88185066446E+02  0.22546494579E+03  0.57180053230E+03  0.94143912091E+02 0.  0.
         13    1    3    3    0    0  0.25132924710E+03 -0.42056297493E+01  0.10677098913E+03  0.27310093718E+03  0.00000000000E+00 0.  1.
        -13    1    3    3    0    0  0.25806424012E+03  0.92390696195E+02  0.11869395666E+03  0.29869959512E+03  0.00000000000E+00 0. -1.
         22    1    1    2    0    0 -0.50939348723E+03 -0.88185066446E+02  0.80349619719E+03  0.95543941183E+03  0.00000000000E+00 0.  1.
<mgrwt>
<rscale>  0 0.11285835E+04</rscale>
<asrwt>0</asrwt>
<pdfrwt beam="1">  1        2 0.19663085E+00 0.11285835E+04</pdfrwt>
<pdfrwt beam="2">  1       -2 0.38329139E-01 0.11285835E+04</pdfrwt>
<totfact> 0.10839706E+02</totfact>
</mgrwt>
</event>
<event>
 6    1  0.2047711E-005  0.3331110E+04  0.7818608E-02  0.8155024E-01
          1   -1    0    0  501    0  0.00000000000E+00  0.00000000000E+00  0.24576953596E+04  0.24576953596E+04  0.00000000000E+00 0. -1.
         -1   -1    0    0    0  501 -0.00000000000E+00 -0.00000000000E+00 -0.11287296123E+04  0.11287296123E+04  0.00000000000E+00 0.  1.
         23    2    1    2    0    0  0.10078448065E+04  0.11958213858E+03 -0.75515925981E+03  0.12683162413E+04  0.91156668661E+02 0.  0.
         13    1    3    3    0    0  0.83838038316E+03  0.10226004938E+03 -0.58402433394E+03  0.10268511125E+04  0.00000000000E+00 0. -1.
        -13    1    3    3    0    0  0.16946442337E+03  0.17322089198E+02 -0.17113492587E+03  0.24146512877E+03  0.00000000000E+00 0.  1.
         22    1    1    2    0    0 -0.10078448065E+04 -0.11958213858E+03  0.20841250071E+04  0.23181087306E+04  0.00000000000E+00 0. -1.
<mgrwt>
<rscale>  0 0.33311100E+04</rscale>
<asrwt>0</asrwt>
<pdfrwt beam="1">  1        1 0.37810698E+00 0.33311100E+04</pdfrwt>
<pdfrwt beam="2">  1       -1 0.17365071E+00 0.33311100E+04</pdfrwt>
<totfact> 0.27742667E-01</totfact>
</mgrwt>
</event>
<event>
 6    1  0.2047711E-005  0.1384760E+04  0.7818608E-02  0.8964924E-01
          2   -1    0    0  501    0  0.00000000000E+00  0.00000000000E+00  0.14326350598E+04  0.14326350598E+04  0.00000000000E+00 0. -1.
         -2   -1    0    0    0  501 -0.00000000000E+00 -0.00000000000E+00 -0.33462142497E+03  0.33462142497E+03  0.00000000000E+00 0.  1.
         23    2    1    2    0    0  0.49141040599E+02 -0.67808370001E+03  0.40520190269E+03  0.79658638517E+03  0.90271485066E+02 0.  0.
         13    1    3    3    0    0  0.30147349865E+02 -0.50459853501E+03  0.34485294755E+03  0.61192491343E+03  0.00000000000E+00 0.  1.
        -13    1    3    3    0    0  0.18993690735E+02 -0.17348516500E+03  0.60348955139E+02  0.18466147175E+03  0.00000000000E+00 0. -1.
         22    1    1    2    0    0 -0.49141040599E+02  0.67808370001E+03  0.69281173217E+03  0.97067009963E+03  0.00000000000E+00 0.  1.
<mgrwt>
<rscale>  0 0.13847605E+04</rscale>
<asrwt>0</asrwt>
<pdfrwt beam="1">  1        2 0.22040539E+00 0.13847605E+04</pdfrwt>
<pdfrwt beam="2">  1       -2 0.51480220E-01 0.13847605E+04</pdfrwt>
<totfact> 0.48137045E+01</totfact>
</mgrwt>
</event>
<event>
 6    1  0.2047711E-005  0.3804823E+04  0.7818608E-02  0.8045121E-01
          2   -1    0    0  501    0  0.00000000000E+00  0.00000000000E+00  0.43720490222E+04  0.43720490222E+04  0.00000000000E+00 0. -1.
         -2   -1    0    0    0  501 -0.00000000000E+00 -0.00000000000E+00 -0.82779718035E+03  0.82779718035E+03  0.00000000000E+00 0.  1.
         23    2    1    2    0    0 -0.38791509519E+03 -0.18024852033E+04  0.11388099323E+04  0.21690737252E+04  0.92529640547E+02 0.  0.
         13    1    3    3    0    0 -0.28174375382E+03 -0.12005117952E+04  0.71747075216E+03  0.14266647796E+04  0.00000000000E+00 0. -1.
        -13    1    3    3    0    0 -0.10617134137E+03 -0.60197340812E+03  0.42133918010E+03  0.74240894560E+03  0.00000000000E+00 0.  1.
         22    1    1    2    0    0  0.38791509519E+03  0.18024852033E+04  0.24054419096E+04  0.30307724774E+04  0.00000000000E+00 0. -1.
<mgrwt>
<rscale>  0 0.38048232E+04</rscale>
<asrwt>0</asrwt>
<pdfrwt beam="1">  1        2 0.67262291E+00 0.38048232E+04</pdfrwt>
<pdfrwt beam="2">  1       -2 0.12735341E+00 0.38048232E+04</pdfrwt>
<totfact> 0.59434156E-02</totfact>
</mgrwt>
</event>
<event>
 6    1  0.2047711E-005  0.5164831E+04  0.7818608E-02  0.7803572E-01
         -2   -1    0    0    0  501 -0.00000000000E+00  0.00000000000E+00  0.30443067635E+04  0.30443067635E+04  0.00000000000E+00 0. -1.
          2   -1    0    0  501    0  0.00000000000E+00 -0.00000000000E+00 -0.21906034448E+04  0.21906034448E+04  0.00000000000E+00 0.  1.
         23    2    1    2    0    0  0.20772576533E+04  0.15136778673E+04  0.67238030067E+03  0.26582654751E+04  0.89777631377E+02 0.  0.
         11    1    3    3    0    0  0.12349581667E+04  0.95412080682E+03  0.40974941566E+03  0.16134939638E+04  0.00000000000E+00 0.  1.
        -11    1    3    3    0    0  0.84229948658E+03  0.55955706044E+03  0.26263088501E+03  0.10447715113E+04  0.00000000000E+00 0. -1.
         22    1    1    2    0    0 -0.20772576533E+04 -0.15136778673E+04  0.18132301806E+03  0.25766447332E+04  0.00000000000E+00 0. -1.
<mgrwt>
<rscale>  0 0.51648306E+04</rscale>
<asrwt>0</asrwt>
<pdfrwt beam="1">  1        2 0.33701591E+00 0.51648306E+04</pdfrwt>
<pdfrwt beam="2">  1       -2 0.46835489E+00 0.51648306E+04</pdfrwt>
<totfact> 0.99176488E-03</totfact>
</mgrwt>
</event>
<event>
 6    1  0.2047711E-005  0.2000344E+04  0.7818608E-02  0.8606460E-01
          2   -1    0    0  501    0  0.00000000000E+00  0.00000000000E+00  0.10751046488E+04  0.10751046488E+04  0.00000000000E+00 0. -1.
         -2   -1    0    0    0  501 -0.00000000000E+00 -0.00000000000E+00 -0.93046236920E+03  0.93046236920E+03  0.00000000000E+00 0.  1.
         23    2    1    2    0    0  0.28647156318E+03 -0.93561416407E+03  0.27102942334E+03  0.10189498022E+04  0.85801692862E+02 0.  0.
         11    1    3    3    0    0  0.17634955771E+03 -0.43250901893E+03  0.12008044407E+03  0.48226811113E+03  0.00000000000E+00 0. -1.
        -11    1    3    3    0    0  0.11012200547E+03 -0.50310514514E+03  0.15094897927E+03  0.53668169104E+03  0.00000000000E+00 0.  1.
         22    1    1    2    0    0 -0.28647156318E+03  0.93561416407E+03 -0.12638714372E+03  0.98661721585E+03  0.00000000000E+00 0. -1.
<mgrwt>
<rscale>  0 0.20003444E+04</rscale>
<asrwt>0</asrwt>
<pdfrwt beam="1">  1        2 0.16540072E+00 0.20003444E+04</pdfrwt>
<pdfrwt beam="2">  1       -2 0.14314806E+00 0.20003444E+04</pdfrwt>
<totfact> 0.71081750E+00</totfact>
</mgrwt>
</event>
<event>
 6    1  0.2047711E-005  0.2710859E+04  0.7818608E-02  0.8331490E-01
          2   -1    0    0  501    0  0.00000000000E+00  0.00000000000E+00  0.38861449772E+04  0.38861449772E+04  0.00000000000E+00 0. -1.
         -2   -1    0    0    0  501 -0.00000000000E+00 -0.00000000000E+00 -0.47275379808E+03  0.47275379808E+03  0.00000000000E+00 0.  1.
         23    2    1    2    0    0  0.28005524173E+03  0.11259200486E+04  0.28305019061E+04  0.30604817395E+04  0.93169430863E+02 0.  0.
         11    1    3    3    0    0  0.16359006063E+03  0.47608844962E+03  0.12627059584E+04  0.13593558243E+04  0.00000000000E+00 0. -1.
        -11    1    3    3    0    0  0.11646518110E+03  0.64983159898E+03  0.15677959477E+04  0.17011259151E+04  0.00000000000E+00 0.  1.
         22    1    1    2    0    0 -0.28005524173E+03 -0.11259200486E+04  0.58288927299E+03  0.12984170358E+04  0.00000000000E+00 0.  1.
<mgrwt>
<rscale>  0 0.27108595E+04</rscale>
<asrwt>0</asrwt>
<pdfrwt beam="1">  1        2 0.59786844E+00 0.27108595E+04</pdfrwt>
<pdfrwt beam="2">  1       -2 0.72731356E-01 0.27108595E+04</pdfrwt>
<totfact> 0.63203412E-01</totfact>
</mgrwt>
</event>
<event>
 6    1  0.2047711E-005  0.7951688E+03  0.7818608E-02  0.9567037E-01
          2   -1    0    0  501    0  0.00000000000E+00  0.00000000000E+00  0.80227609710E+03  0.80227609710E+03  0.00000000000E+00 0. -1.
         -2   -1    0    0    0  501 -0.00000000000E+00 -0.00000000000E+00 -0.19703110907E+03  0.19703110907E+03  0.00000000000E+00 0.  1.
         23    2    1    2    0    0 -0.28521482657E+03  0.18901822617E+03  0.54776329076E+03  0.65234966894E+03  0.91869912058E+02 0.  0.
         11    1    3    3    0    0 -0.16245847416E+03  0.64851611470E+02  0.32737884853E+03  0.37118108492E+03  0.00000000000E+00 0.  1.
        -11    1    3    3    0    0 -0.12275635242E+03  0.12416661470E+03  0.22038444223E+03  0.28116858402E+03  0.00000000000E+00 0. -1.
         22    1    1    2    0    0  0.28521482657E+03 -0.18901822617E+03  0.57481697269E+02  0.34695753723E+03  0.00000000000E+00 0.  1.
<mgrwt>
<rscale>  0 0.79516879E+03</rscale>
<asrwt>0</asrwt>
<pdfrwt beam="1">  1        2 0.12342709E+00 0.79516879E+03</pdfrwt>
<pdfrwt beam="2">  1       -2 0.30312479E-01 0.79516879E+03</pdfrwt>
<totfact> 0.34667928E+02</totfact>
</mgrwt>
</event>
<event>
 6    1  0.2047711E-005  0.5615424E+04  0.7818608E-02  0.7740004E-01
         -2   -1    0    0    0  501 -0.00000000000E+00  0.00000000000E+00  0.19565422315E+04  0.19565422315E+04  0.00000000000E+00 0.  1.
          2   -1    0    0  501    0  0.00000000000E+00 -0.00000000000E+00 -0.40291722934E+04  0.40291722934E+04  0.00000000000E+00 0. -1.
         23    2    1    2    0    0  0.46555097423E+03  0.18129111139E+04 -0.32664324620E+04  0.37656810595E+04  0.85955781850E+02 0.  0.
         11    1    3    3    0    0  0.39497692401E+03  0.13993213548E+04 -0.25540590587E+04  0.29389325783E+04  0.00000000000E+00 0.  1.
        -11    1    3    3    0    0  0.70574050222E+02  0.41358975917E+03 -0.71237340327E+03  0.82674848118E+03  0.00000000000E+00 0. -1.
         22    1    1    2    0    0 -0.46555097423E+03 -0.18129111139E+04  0.11938024001E+04  0.22200334653E+04  0.00000000000E+00 0.  1.
<mgrwt>
<rscale>  0 0.56154237E+04</rscale>
<asrwt>0</asrwt>
<pdfrwt beam="1">  1        2 0.61987266E+00 0.56154237E+04</pdfrwt>
<pdfrwt beam="2">  1       -2 0.30100650E+00 0.56154237E+04</pdfrwt>
<totfact> 0.70005140E-03</totfact>
</mgrwt>
</event>
<event>
 6    1  0.2047711E-005  0.2035296E+04  0.7818608E-02  0.8590294E-01
         -2   -1    0    0    0  501 -0.00000000000E+00  0.00000000000E+00  0.56272338859E+03  0.56272338859E+03  0.00000000000E+00 0.  1.
          2   -1    0    0  501    0  0.00000000000E+00 -0.00000000000E+00 -0.18403488448E+04  0.18403488448E+04  0.00000000000E+00 0. -1.
         23    2    1    2    0    0 -0.10505988889E+03 -0.17923038197E+03 -0.18139300399E+04  0.18279342356E+04  0.88545298018E+02 0.  0.
         13    1    3    3    0    0 -0.61847264267E+02 -0.42075596893E+02 -0.85719341703E+03  0.86045104111E+03  0.00000000000E+00 0. -1.
        -13    1    3    3    0    0 -0.43212624628E+02 -0.13715478507E+03 -0.95673662287E+03  0.96748319445E+03  0.00000000000E+00 0.  1.
         22    1    1    2    0    0  0.10505988889E+03  0.17923038197E+03  0.53630458369E+03  0.57513799784E+03  0.00000000000E+00 0.  1.
<mgrwt>
<rscale>  0 0.20352959E+04</rscale>
<asrwt>0</asrwt>
<pdfrwt beam="1">  1        2 0.28313059E+00 0.20352959E+04</pdfrwt>
<pdfrwt beam="2">  1       -2 0.86572830E-01 0.20352959E+04</pdfrwt>
<totfact> 0.87719092E+00</totfact>
</mgrwt>
</event>
<event>
 6    1  0.2047711E-005  0.3053511E+04  0.7818608E-02  0.8228613E-01
          2   -1    0    0  501    0  0.00000000000E+00  0.00000000000E+00  0.27116257513E+04  0.27116257513E+04  0.00000000000E+00 0. -1.
         -2   -1    0    0    0  501 -0.00000000000E+00 -0.00000000000E+00 -0.85962535727E+03  0.85962535727E+03  0.00000000000E+00 0.  1.
         23    2    1    2    0    0  0.97251691667E+03 -0.12692170467E+02  0.23008385457E+04  0.25000807530E+04  0.10293451222E+03 0.  0.
         13    1    3    3    0    0  0.26091545500E+03  0.16329483008E+02  0.72785306011E+03  0.77337804713E+03  0.00000000000E+00 0. -1.
        -13    1    3    3    0    0  0.71160146167E+03 -0.29021653476E+02  0.15729854856E+04  0.17267027059E+04  0.00000000000E+00 0.  1.
         22    1    1    2    0    0 -0.97251691667E+03  0.12692170467E+02 -0.44883815162E+03  0.10711703556E+04  0.00000000000E+00 0.  1.
<mgrwt>
<rscale>  0 0.30535109E+04</rscale>
<asrwt>0</asrwt>
<pdfrwt beam="1">  1        2 0.41717319E+00 0.30535109E+04</pdfrwt>
<pdfrwt beam="2">  1       -2 0.13225006E+00 0.30535109E+04</pdfrwt>
<totfact> 0.92572758E-01</totfact>
</mgrwt>
</event>
<event>
 6    1  0.2047711E-005  0.2374502E+04  0.7818608E-02  0.8449112E-01
         -2   -1    0    0    0  501 -0.00000000000E+00  0.00000000000E+00  0.82903588504E+03  0.82903588504E+03  0.00000000000E+00 0.  1.
          2   -1    0    0  501    0  0.00000000000E+00 -0.00000000000E+00 -0.17002453980E+04  0.17002453980E+04  0.00000000000E+00 0. -1.
         23    2    1    2    0    0  0.48164915263E+03 -0.52215296542E+03  0.57511995158E+03  0.91791585413E+03  0.84716769380E+02 0.  0.
         11    1    3    3    0    0  0.23590847362E+03 -0.31664927299E+03  0.30681969553E+03  0.50005789222E+03  0.00000000000E+00 0.  1.
        -11    1    3    3    0    0  0.24574067902E+03 -0.20550369243E+03  0.26830025605E+03  0.41785796190E+03  0.00000000000E+00 0. -1.
         22    1    1    2    0    0 -0.48164915263E+03  0.52215296542E+03 -0.14463294646E+04  0.16113654289E+04  0.00000000000E+00 0. -1.
<mgrwt>
<rscale>  0 0.23745016E+04</rscale>
<asrwt>0</asrwt>
<pdfrwt beam="1">  1        2 0.26157621E+00 0.23745016E+04</pdfrwt>
<pdfrwt beam="2">  1       -2 0.12754398E+00 0.23745016E+04</pdfrwt>
<totfact> 0.40269020E+00</totfact>
</mgrwt>
</event>
<event>
 6    1  0.2047711E-005  0.2495482E+04  0.7818608E-02  0.8404597E-01
         -2   -1    0    0    0  501 -0.00000000000E+00  0.00000000000E+00  0.10896414834E+04  0.10896414834E+04  0.00000000000E+00 0.  1.
          2   -1    0    0  501    0  0.00000000000E+00 -0.00000000000E+00 -0.14287801656E+04  0.14287801656E+04  0.00000000000E+00 0. -1.
         23    2    1    2    0    0 -0.74432077182E+03  0.91518788140E+03 -0.57491141613E+03  0.13154374215E+04  0.90940660676E+02 0.  0.
         11    1    3    3    0    0 -0.24053949447E+03  0.32858391503E+03 -0.15653449429E+03  0.43626790567E+03  0.00000000000E+00 0.  1.
        -11    1    3    3    0    0 -0.50378127734E+03  0.58660396637E+03 -0.41837692184E+03  0.87916951579E+03  0.00000000000E+00 0. -1.
         22    1    1    2    0    0  0.74432077182E+03 -0.91518788140E+03  0.23577273396E+03  0.12029842275E+04  0.00000000000E+00 0. -1.
<mgrwt>
<rscale>  0 0.24954824E+04</rscale>
<asrwt>0</asrwt>
<pdfrwt beam="1">  1        2 0.21981233E+00 0.24954824E+04</pdfrwt>
<pdfrwt beam="2">  1       -2 0.16763715E+00 0.24954824E+04</pdfrwt>
<totfact> 0.27549126E+00</totfact>
</mgrwt>
</event>
<event>
 6    1  0.2047711E-005  0.2100645E+04  0.7818608E-02  0.8560959E-01
         -2   -1    0    0    0  501 -0.00000000000E+00  0.00000000000E+00  0.15649840060E+04  0.15649840060E+04  0.00000000000E+00 0.  1.
          2   -1    0    0  501    0  0.00000000000E+00 -0.00000000000E+00 -0.70491291522E+03  0.70491291522E+03  0.00000000000E+00 0. -1.
         23    2    1    2    0    0  0.86575588533E+03  0.20412029043E+03 -0.16892147000E+03  0.90974103454E+03  0.88859107314E+02 0.  0.
         13    1    3    3    0    0  0.45984339124E+03  0.13868945528E+03 -0.57315172720E+02  0.48371038700E+03  0.00000000000E+00 0. -1.
        -13    1    3    3    0    0  0.40591249409E+03  0.65430835143E+02 -0.11160629728E+03  0.42603064753E+03  0.00000000000E+00 0.  1.
         22    1    1    2    0    0 -0.86575588533E+03 -0.20412029043E+03  0.10289925608E+04  0.13601558867E+04  0.00000000000E+00 0.  1.
<mgrwt>
<rscale>  0 0.21006451E+04</rscale>
<asrwt>0</asrwt>
<pdfrwt beam="1">  1        2 0.10844814E+00 0.21006451E+04</pdfrwt>
<pdfrwt beam="2">  1       -2 0.24076677E+00 0.21006451E+04</pdfrwt>
<totfact> 0.27411056E+00</totfact>
</mgrwt>
</event>
<event>
 6    1  0.2047711E-005  0.2722414E+04  0.7818608E-02  0.8327769E-01
         -2   -1    0    0    0  501 -0.00000000000E+00  0.00000000000E+00  0.60389224691E+03  0.60389224691E+03  0.00000000000E+00 0. -1.
          2   -1    0    0  501    0  0.00000000000E+00 -0.00000000000E+00 -0.30682375684E+04  0.30682375684E+04  0.00000000000E+00 0.  1.
         23    2    1    2    0    0 -0.10658423007E+04  0.50046845487E+03 -0.31644966852E+03  0.12226514585E+04  0.90816915902E+02 0.  0.
         11    1    3    3    0    0 -0.59907694301E+03  0.29849054880E+03 -0.22339965253E+03  0.70561830767E+03  0.00000000000E+00 0. -1.
        -11    1    3    3    0    0 -0.46676535764E+03  0.20197790606E+03 -0.93050015992E+02  0.51703315088E+03  0.00000000000E+00 0.  1.
         22    1    1    2    0    0  0.10658423007E+04 -0.50046845487E+03 -0.21478956530E+04  0.24494783568E+04  0.00000000000E+00 0.  1.
<mgrwt>
<rscale>  0 0.27224143E+04</rscale>
<asrwt>0</asrwt>
<pdfrwt beam="1">  1        2 0.47203656E+00 0.27224143E+04</pdfrwt>
<pdfrwt beam="2">  1       -2 0.92906498E-01 0.27224143E+04</pdfrwt>
<totfact> 0.13550946E+00</totfact>
</mgrwt>
</event>
<event>
 6    1  0.2047711E-005  0.2774299E+04  0.7818608E-02  0.8311292E-01
          2   -1    0    0  501    0  0.00000000000E+00  0.00000000000E+00  0.43310693020E+04  0.43310693020E+04  0.00000000000E+00 0. -1.
         -2   -1    0    0    0  501 -0.00000000000E+00 -0.00000000000E+00 -0.44427448837E+03  0.44427448837E+03  0.00000000000E+00 0.  1.
         23    2    1    2    0    0  0.15062743109E+03 -0.81071019530E+03  0.38622644944E+04  0.39503944705E+04  0.92681195561E+02 0.  0.
         11    1    3    3    0    0  0.81858171833E+02 -0.38129603209E+03  0.20414268755E+04  0.20783433577E+04  0.00000000000E+00 0. -1.
        -11    1    3    3    0    0  0.68769259260E+02 -0.42941416320E+03  0.18208376189E+04  0.18720511128E+04  0.00000000000E+00 0.  1.
         22    1    1    2    0    0 -0.15062743109E+03  0.81071019530E+03  0.24530319191E+02  0.82494931985E+03  0.00000000000E+00 0.  1.
<mgrwt>
<rscale>  0 0.27742989E+04</rscale>
<asrwt>0</asrwt>
<pdfrwt beam="1">  1        2 0.66631832E+00 0.27742989E+04</pdfrwt>
<pdfrwt beam="2">  1       -2 0.68349924E-01 0.27742989E+04</pdfrwt>
<totfact> 0.30398771E-01</totfact>
</mgrwt>
</event>
<event>
 6    1  0.2047711E-005  0.1749771E+04  0.7818608E-02  0.8733476E-01
          2   -1    0    0  501    0  0.00000000000E+00  0.00000000000E+00  0.94781816714E+03  0.94781816714E+03  0.00000000000E+00 0. -1.
         -2   -1    0    0    0  501 -0.00000000000E+00 -0.00000000000E+00 -0.80756500872E+03  0.80756500872E+03  0.00000000000E+00 0.  1.
         23    2    1    2    0    0 -0.18694298815E+03  0.22584635613E+03  0.89490683516E+03  0.94578053924E+03  0.87683107766E+02 0.  0.
         13    1    3    3    0    0 -0.19542731121E+03  0.22398373505E+03  0.86595651725E+03  0.91555515251E+03  0.00000000000E+00 0.  1.
        -13    1    3    3    0    0  0.84843230654E+01  0.18626210790E+01  0.28950317914E+02  0.30225386722E+02  0.00000000000E+00 0. -1.
         22    1    1    2    0    0  0.18694298815E+03 -0.22584635613E+03 -0.75465367674E+03  0.80960263661E+03  0.00000000000E+00 0.  1.
<mgrwt>
<rscale>  0 0.17497712E+04</rscale>
<asrwt>0</asrwt>
<pdfrwt beam="1">  1        2 0.14581818E+00 0.17497712E+04</pdfrwt>
<pdfrwt beam="2">  1       -2 0.12424077E+00 0.17497712E+04</pdfrwt>
<totfact> 0.12570602E+01</totfact>
</mgrwt>
</event>
<event>
 6    1  0.2047711E-005  0.3378100E+04  0.7818608E-02  0.8143302E-01
         -2   -1    0    0    0  501 -0.00000000000E+00  0.00000000000E+00  0.14064049609E+04  0.14064049609E+04  0.00000000000E+00 0.  1.
          2   -1    0    0  501    0  0.00000000000E+00 -0.00000000000E+00 -0.20284985965E+04  0.20284985965E+04  0.00000000000E+00 0. -1.
         23    2    1    2    0    0  0.58888478264E+03 -0.14331709381E+04  0.36913402481E+03  0.15955296151E+04  0.93223384551E+02 0.  0.
         11    1    3    3    0    0  0.39371615213E+03 -0.99160592962E+03  0.21148294632E+03  0.10876671204E+04  0.00000000000E+00 0. -1.
        -11    1    3    3    0    0  0.19516863051E+03 -0.44156500843E+03  0.15765107848E+03  0.50786249473E+03  0.00000000000E+00 0.  1.
         22    1    1    2    0    0 -0.58888478264E+03  0.14331709381E+04 -0.99122766040E+03  0.18393739423E+04  0.00000000000E+00 0. -1.
<mgrwt>
<rscale>  0 0.33781003E+04</rscale>
<asrwt>0</asrwt>
<pdfrwt beam="1">  1        2 0.31207671E+00 0.33781003E+04</pdfrwt>
<pdfrwt beam="2">  1       -2 0.21636999E+00 0.33781003E+04</pdfrwt>
<totfact> 0.55723692E-01</totfact>
</mgrwt>
</event>
<event>
 6    1  0.2047711E-005  0.4662111E+04  0.7818608E-02  0.7882855E-01
         -2   -1    0    0    0  501 -0.00000000000E+00  0.00000000000E+00  0.13011186008E+04  0.13011186008E+04  0.00000000000E+00 0.  1.
          2   -1    0    0  501    0  0.00000000000E+00 -0.00000000000E+00 -0.41762670874E+04  0.41762670874E+04  0.00000000000E+00 0. -1.
         23    2    1    2    0    0 -0.64175066758E+03 -0.90568193480E+03  0.96867987909E+03  0.14764957632E+04  0.97955827918E+02 0.  0.
         13    1    3    3    0    0 -0.28574658606E+03 -0.32127693266E+03  0.36704126997E+03  0.56532227337E+03  0.00000000000E+00 0.  1.
        -13    1    3    3    0    0 -0.35600408152E+03 -0.58440500214E+03  0.60163860911E+03  0.91117348982E+03  0.00000000000E+00 0. -1.
         22    1    1    2    0    0  0.64175066758E+03  0.90568193480E+03 -0.38438283657E+04  0.40008899249E+04  0.00000000000E+00 0. -1.
<mgrwt>
<rscale>  0 0.46621106E+04</rscale>
<asrwt>0</asrwt>
<pdfrwt beam="1">  1        2 0.64250264E+00 0.46621106E+04</pdfrwt>
<pdfrwt beam="2">  1       -2 0.20017209E+00 0.46621106E+04</pdfrwt>
<totfact> 0.24046832E-02</totfact>
</mgrwt>
</event>
<event>
 6    1  0.2047711E-005  0.1893659E+04  0.7818608E-02  0.8658019E-01
         -2   -1    0    0    0  501 -0.00000000000E+00  0.00000000000E+00  0.40565107496E+03  0.40565107496E+03  0.00000000000E+00 0.  1.
          2   -1    0    0  501    0  0.00000000000E+00 -0.00000000000E+00 -0.22099938786E+04  0.22099938786E+04  0.00000000000E+00 0. -1.
         23    2    1    2    0    0  0.36942449127E+03 -0.21370455062E+03  0.25975819091E+03  0.50788381780E+03  0.91255492595E+02 0.  0.
         13    1    3    3    0    0  0.25716050698E+02 -0.10375428336E+01  0.40704599082E+02  0.48158655972E+02  0.00000000000E+00 0.  1.
        -13    1    3    3    0    0  0.34370844057E+03 -0.21266700779E+03  0.21905359183E+03  0.45972516182E+03  0.00000000000E+00 0. -1.
         22    1    1    2    0    0 -0.36942449127E+03  0.21370455062E+03 -0.20641009945E+04  0.21077611357E+04  0.00000000000E+00 0. -1.
<mgrwt>
<rscale>  0 0.18936593E+04</rscale>
<asrwt>0</asrwt>
<pdfrwt beam="1">  1        2 0.33999907E+00 0.18936593E+04</pdfrwt>
<pdfrwt beam="2">  1       -2 0.62407856E-01 0.18936593E+04</pdfrwt>
<totfact> 0.11379805E+01</totfact>
</mgrwt>
</event>
<event>
 6    1  0.2047711E-005  0.2310974E+04  0.7818608E-02  0.8473607E-01
          2   -1    0    0  501    0  0.00000000000E+00  0.00000000000E+00  0.11297759518E+04  0.11297759518E+04  0.00000000000E+00 0. -1.
         -2   -1    0    0    0  501 -0.00000000000E+00 -0.00000000000E+00 -0.11817829018E+04  0.11817829018E+04  0.00000000000E+00 0.  1.
         23    2    1    2    0    0  0.29005600080E+03 -0.11163495634E+04  0.41394142159E+01  0.11567769497E+04  0.88016733900E+02 0.  0.
         11    1    3    3    0    0  0.12375785540E+03 -0.32713086229E+03 -0.13774638162E+02  0.35002906807E+03  0.00000000000E+00 0.  1.
        -11    1    3    3    0    0  0.16629814540E+03 -0.78921870110E+03  0.17914052378E+02  0.80674788168E+03  0.00000000000E+00 0. -1.
         22    1    1    2    0    0 -0.29005600080E+03  0.11163495634E+04 -0.56146364251E+02  0.11547819039E+04  0.00000000000E+00 0.  1.
<mgrwt>
<rscale>  0 0.23109737E+04</rscale>
<asrwt>0</asrwt>
<pdfrwt beam="1">  1        2 0.17381169E+00 0.23109737E+04</pdfrwt>
<pdfrwt beam="2">  1       -2 0.18181275E+00 0.23109737E+04</pdfrwt>
<totfact> 0.33330679E+00</totfact>
</mgrwt>
</event>
<event>
 6    1  0.2047711E-005  0.2586158E+04  0.7818608E-02  0.8372918E-01
         -2   -1    0    0    0  501 -0.00000000000E+00  0.00000000000E+00  0.10204466555E+04  0.10204466555E+04  0.00000000000E+00 0.  1.
          2   -1    0    0  501    0  0.00000000000E+00 -0.00000000000E+00 -0.16385508826E+04  0.16385508826E+04  0.00000000000E+00 0. -1.
         23    2    1    2    0    0  0.64782341938E+03 -0.34593905841E+03  0.78287387729E+03  0.10771983523E+04  0.90087555845E+02 0.  0.
         11    1    3    3    0    0  0.20628504021E+03 -0.13856055470E+03  0.21527170418E+03  0.32877720687E+03  0.00000000000E+00 0. -1.
        -11    1    3    3    0    0  0.44153837917E+03 -0.20737850371E+03  0.56760217310E+03  0.74842114547E+03  0.00000000000E+00 0.  1.
         22    1    1    2    0    0 -0.64782341938E+03  0.34593905841E+03 -0.14009781045E+04  0.15817991857E+04  0.00000000000E+00 0. -1.
<mgrwt>
<rscale>  0 0.25861584E+04</rscale>
<asrwt>0</asrwt>
<pdfrwt beam="1">  1        2 0.25208475E+00 0.25861584E+04</pdfrwt>
<pdfrwt beam="2">  1       -2 0.15699179E+00 0.25861584E+04</pdfrwt>
<totfact> 0.24928455E+00</totfact>
</mgrwt>
</event>
<event>
 6    1  0.2047711E-005  0.7886004E+03  0.7818608E-02  0.9576666E-01
          2   -1    0    0  501    0  0.00000000000E+00  0.00000000000E+00  0.26565901197E+04  0.26565901197E+04  0.00000000000E+00 0. -1.
         -2   -1    0    0    0  501 -0.00000000000E+00 -0.00000000000E+00 -0.58523380625E+02  0.58523380625E+02  0.00000000000E+00 0.  1.
         23    2    1    2    0    0 -0.48867862050E+02  0.33620221452E+03  0.19692384462E+04  0.20003792707E+04  0.90538234645E+02 0.  0.
         13    1    3    3    0    0 -0.52409900196E+02  0.14707100663E+03  0.10813894261E+04  0.10926022925E+04  0.00000000000E+00 0. -1.
        -13    1    3    3    0    0  0.35420381460E+01  0.18913120789E+03  0.88784902001E+03  0.90777697821E+03  0.00000000000E+00 0.  1.
         22    1    1    2    0    0  0.48867862050E+02 -0.33620221452E+03  0.62882829295E+03  0.71473422963E+03  0.00000000000E+00 0.  1.
<mgrwt>
<rscale>  0 0.78860037E+03</rscale>
<asrwt>0</asrwt>
<pdfrwt beam="1">  1        2 0.40870608E+00 0.78860037E+03</pdfrwt>
<pdfrwt beam="2">  1       -2 0.90035991E-02 0.78860037E+03</pdfrwt>
<totfact> 0.23826953E+02</totfact>
</mgrwt>
</event>
<event>
 6    1  0.2047711E-005  0.2627291E+04  0.7818608E-02  0.8358990E-01
          2   -1    0    0  501    0  0.00000000000E+00  0.00000000000E+00  0.17453692221E+04  0.17453692221E+04  0.00000000000E+00 0. -1.
         -2   -1    0    0    0  501 -0.00000000000E+00 -0.00000000000E+00 -0.98871057844E+03  0.98871057844E+03  0.00000000000E+00 0.  1.
         23    2    1    2    0    0  0.28439485124E+03  0.99786328523E+03  0.12145809945E+04  0.15999261749E+04  0.89135881860E+02 0.  0.
         11    1    3    3    0    0  0.80648207695E+02  0.30152473704E+03  0.30473133689E+03  0.43621381012E+03  0.00000000000E+00 0. -1.
        -11    1    3    3    0    0  0.20374664355E+03  0.69633854818E+03  0.90984965758E+03  0.11637123647E+04  0.00000000000E+00 0.  1.
         22    1    1    2    0    0 -0.28439485124E+03 -0.99786328523E+03 -0.45792235077E+03  0.11341536257E+04  0.00000000000E+00 0.  1.
<mgrwt>
<rscale>  0 0.26272914E+04</rscale>
<asrwt>0</asrwt>
<pdfrwt beam="1">  1        2 0.26851834E+00 0.26272914E+04</pdfrwt>
<pdfrwt beam="2">  1       -2 0.15210932E+00 0.26272914E+04</pdfrwt>
<totfact> 0.23580384E+00</totfact>
</mgrwt>
</event>
<event>
 6    1  0.2047711E-005  0.1551680E+04  0.7818608E-02  0.8850795E-01
         -2   -1    0    0    0  501 -0.00000000000E+00  0.00000000000E+00  0.13857632729E+04  0.13857632729E+04  0.00000000000E+00 0.  1.
          2   -1    0    0  501    0  0.00000000000E+00 -0.00000000000E+00 -0.43436541935E+03  0.43436541935E+03  0.00000000000E+00 0. -1.
         23    2    1    2    0    0  0.25439451583E+03  0.10298046603E+03 -0.37052032770E+03  0.47002157651E+03  0.91177974752E+02 0.  0.
         13    1    3    3    0    0  0.10380675750E+03  0.59446319003E+02 -0.23115103833E+03  0.26027007179E+03  0.00000000000E+00 0. -1.
        -13    1    3    3    0    0  0.15058775832E+03  0.43534147024E+02 -0.13936928936E+03  0.20975150472E+03  0.00000000000E+00 0.  1.
         22    1    1    2    0    0 -0.25439451583E+03 -0.10298046603E+03  0.13219181813E+04  0.13501071158E+04  0.00000000000E+00 0.  1.
<mgrwt>
<rscale>  0 0.15516799E+04</rscale>
<asrwt>0</asrwt>
<pdfrwt beam="1">  1        2 0.66825450E-01 0.15516799E+04</pdfrwt>
<pdfrwt beam="2">  1       -2 0.21319435E+00 0.15516799E+04</pdfrwt>
<totfact> 0.76062541E+00</totfact>
</mgrwt>
</event>
<event>
 6    1  0.2047711E-005  0.2877571E+04  0.7818608E-02  0.8279582E-01
          2   -1    0    0  501    0  0.00000000000E+00  0.00000000000E+00  0.12987908714E+04  0.12987908714E+04  0.00000000000E+00 0. -1.
         -2   -1    0    0    0  501 -0.00000000000E+00 -0.00000000000E+00 -0.15938701134E+04  0.15938701134E+04  0.00000000000E+00 0.  1.
         23    2    1    2    0    0  0.13722335372E+04 -0.25877880964E+03  0.19440773186E+03  0.14129350471E+04  0.92734720543E+02 0.  0.
         11    1    3    3    0    0  0.84206662065E+03 -0.11295618683E+03  0.11334177350E+03  0.85713572518E+03  0.00000000000E+00 0. -1.
        -11    1    3    3    0    0  0.53016691651E+03 -0.14582262281E+03  0.81065958355E+02  0.55579932196E+03  0.00000000000E+00 0.  1.
         22    1    1    2    0    0 -0.13722335372E+04  0.25877880964E+03 -0.48948697392E+03  0.14797259376E+04  0.00000000000E+00 0. -1.
<mgrwt>
<rscale>  0 0.28775712E+04</rscale>
<asrwt>0</asrwt>
<pdfrwt beam="1">  1        2 0.19981398E+00 0.28775712E+04</pdfrwt>
<pdfrwt beam="2">  1       -2 0.24521079E+00 0.28775712E+04</pdfrwt>
<totfact> 0.98474776E-01</totfact>
</mgrwt>
</event>
<event>
 6    1  0.2047711E-005  0.4646274E+04  0.7818608E-02  0.7885517E-01
         -2   -1    0    0    0  501 -0.00000000000E+00  0.00000000000E+00  0.19611237921E+04  0.19611237921E+04  0.00000000000E+00 0.  1.
          2   -1    0    0  501    0  0.00000000000E+00 -0.00000000000E+00 -0.27519763025E+04  0.27519763025E+04  0.00000000000E+00 0. -1.
         23    2    1    2    0    0 -0.40909462949E+03  0.17918942268E+04 -0.18352452395E+04  0.25990992648E+04  0.94596847388E+02 0.  0.
         11    1    3    3    0    0 -0.77783522050E+02  0.20533403231E+03 -0.21138442681E+03  0.30478798701E+03  0.00000000000E+00 0.  1.
        -11    1    3    3    0    0 -0.33131110744E+03  0.15865601944E+04 -0.16238608127E+04  0.22943112778E+04  0.00000000000E+00 0. -1.
         22    1    1    2    0    0  0.40909462949E+03 -0.17918942268E+04  0.10443927291E+04  0.21140008298E+04  0.00000000000E+00 0.  1.
<mgrwt>
<rscale>  0 0.46462743E+04</rscale>
<asrwt>0</asrwt>
<pdfrwt beam="1">  1        2 0.42338097E+00 0.46462743E+04</pdfrwt>
<pdfrwt beam="2">  1       -2 0.30171136E+00 0.46462743E+04</pdfrwt>
<totfact> 0.57420811E-02</totfact>
</mgrwt>
</event>
<event>
 6    1  0.2047711E-005  0.7548012E+03  0.7818608E-02  0.9627848E-01
         -2   -1    0    0    0  501 -0.00000000000E+00  0.00000000000E+00  0.31277216656E+03  0.31277216656E+03  0.00000000000E+00 0.  1.
          2   -1    0    0  501    0  0.00000000000E+00 -0.00000000000E+00 -0.45538330072E+03  0.45538330072E+03  0.00000000000E+00 0. -1.
         23    2    1    2    0    0 -0.11428048357E+03 -0.15962714018E+03  0.24946410099E+03  0.32967645657E+03  0.88957155547E+02 0.  0.
         11    1    3    3    0    0 -0.18346052122E+02 -0.11907873512E+02  0.88181125949E+02  0.90853101508E+02  0.00000000000E+00 0. -1.
        -11    1    3    3    0    0 -0.95934431451E+02 -0.14771926667E+03  0.16128297505E+03  0.23882335506E+03  0.00000000000E+00 0.  1.
         22    1    1    2    0    0  0.11428048357E+03  0.15962714018E+03 -0.39207523515E+03  0.43847901071E+03  0.00000000000E+00 0. -1.
<mgrwt>
<rscale>  0 0.75480122E+03</rscale>
<asrwt>0</asrwt>
<pdfrwt beam="1">  1        2 0.70058969E-01 0.75480122E+03</pdfrwt>
<pdfrwt beam="2">  1       -2 0.48118795E-01 0.75480122E+03</pdfrwt>
<totfact> 0.28298151E+02</totfact>
</mgrwt>
</event>
<event>
 6    1  0.2047711E-005  0.8504094E+03  0.7818608E-02  0.9489788E-01
          2   -1    0    0  501    0  0.00000000000E+00  0.00000000000E+00  0.79804770707E+03  0.79804770707E+03  0.00000000000E+00 0.  1.
         -2   -1    0    0    0  501 -0.00000000000E+00 -0.00000000000E+00 -0.22655166337E+03  0.22655166337E+03  0.00000000000E+00 0. -1.
         23    2    1    2    0    0 -0.39371741904E+03 -0.14392919278E+03  0.25550398306E+03  0.49964222840E+03  0.92903457695E+02 0.  0.
         13    1    3    3    0    0 -0.49231261312E+02 -0.18642548395E+02  0.73434201382E+02  0.90353990690E+02  0.00000000000E+00 0.  1.
        -13    1    3    3    0    0 -0.34448615773E+03 -0.12528664439E+03  0.18206978168E+03  0.40928823771E+03  0.00000000000E+00 0. -1.
         22    1    1    2    0    0  0.39371741904E+03  0.14392919278E+03  0.31599206064E+03  0.52495714204E+03  0.00000000000E+00 0.  1.
<mgrwt>
<rscale>  0 0.85040940E+03</rscale>
<asrwt>0</asrwt>
<pdfrwt beam="1">  1        2 0.12277657E+00 0.85040940E+03</pdfrwt>
<pdfrwt beam="2">  1       -2 0.34854102E-01 0.85040940E+03</pdfrwt>
<totfact> 0.26780754E+02</totfact>
</mgrwt>
</event>
<event>
 6    1  0.2047711E-005  0.1976190E+04  0.7818608E-02  0.8617834E-01
         -2   -1    0    0    0  501 -0.00000000000E+00  0.00000000000E+00  0.55939955001E+03  0.55939955001E+03  0.00000000000E+00 0.  1.
          2   -1    0    0  501    0  0.00000000000E+00 -0.00000000000E+00 -0.17453215743E+04  0.17453215743E+04  0.00000000000E+00 0. -1.
         23    2    1    2    0    0 -0.92932387842E+03  0.22356475494E+03 -0.31394159433E+03  0.10108996757E+04  0.98664882391E+02 0.  0.
         13    1    3    3    0    0 -0.33288318795E+03  0.11173943460E+03 -0.15345188447E+03  0.38320281695E+03  0.00000000000E+00 0. -1.
        -13    1    3    3    0    0 -0.59644069047E+03  0.11182532034E+03 -0.16048970985E+03  0.62769685875E+03  0.00000000000E+00 0.  1.
         22    1    1    2    0    0  0.92932387842E+03 -0.22356475494E+03 -0.87198042999E+03  0.12938214486E+04  0.00000000000E+00 0.  1.
<mgrwt>
<rscale>  0 0.19761904E+04</rscale>
<asrwt>0</asrwt>
<pdfrwt beam="1">  1        2 0.26851100E+00 0.19761904E+04</pdfrwt>
<pdfrwt beam="2">  1       -2 0.86061471E-01 0.19761904E+04</pdfrwt>
<totfact> 0.10088687E+01</totfact>
</mgrwt>
</event>
<event>
 6    1  0.2047711E-005  0.2757294E+04  0.7818608E-02  0.8316651E-01
          2   -1    0    0  501    0  0.00000000000E+00  0.00000000000E+00  0.16557040272E+04  0.16557040272E+04  0.00000000000E+00 0. -1.
         -2   -1    0    0    0  501 -0.00000000000E+00 -0.00000000000E+00 -0.11479512334E+04  0.11479512334E+04  0.00000000000E+00 0.  1.
         23    2    1    2    0    0  0.13223873719E+04 -0.33420119110E+03  0.44733496891E+03  0.14383534218E+04  0.91395810422E+02 0.  0.
         13    1    3    3    0    0  0.89453316485E+03 -0.22430943024E+03  0.34708589927E+03  0.98537958421E+03  0.00000000000E+00 0. -1.
        -13    1    3    3    0    0  0.42785420703E+03 -0.10989176086E+03  0.10024906964E+03  0.45297383759E+03  0.00000000000E+00 0.  1.
         22    1    1    2    0    0 -0.13223873719E+04  0.33420119110E+03  0.60417824952E+02  0.13653018388E+04  0.00000000000E+00 0. -1.
<mgrwt>
<rscale>  0 0.27572939E+04</rscale>
<asrwt>0</asrwt>
<pdfrwt beam="1">  1        2 0.25472370E+00 0.27572939E+04</pdfrwt>
<pdfrwt beam="2">  1       -2 0.17660788E+00 0.27572939E+04</pdfrwt>
<totfact> 0.17355885E+00</totfact>
</mgrwt>
</event>
<event>
 6    1  0.2047711E-005  0.2209563E+04  0.7818608E-02  0.8514458E-01
          2   -1    0    0  501    0  0.00000000000E+00  0.00000000000E+00  0.11965877907E+04  0.11965877907E+04  0.00000000000E+00 0. -1.
         -2   -1    0    0    0  501 -0.00000000000E+00 -0.00000000000E+00 -0.10200186900E+04  0.10200186900E+04  0.00000000000E+00 0.  1.
         23    2    1    2    0    0  0.28935999775E+03 -0.10139468981E+04 -0.23409095685E+03  0.10850327078E+04  0.10334350728E+03 0.  0.
         13    1    3    3    0    0  0.22682744742E+03 -0.71390621074E+03 -0.20810766460E+03  0.77744554066E+03  0.00000000000E+00 0.  1.
        -13    1    3    3    0    0  0.62532550340E+02 -0.30004068738E+03 -0.25983292254E+02  0.30758716718E+03  0.00000000000E+00 0. -1.
         22    1    1    2    0    0 -0.28935999775E+03  0.10139468981E+04  0.41066005758E+03  0.11315737728E+04  0.00000000000E+00 0. -1.
<mgrwt>
<rscale>  0 0.22095628E+04</rscale>
<asrwt>0</asrwt>
<pdfrwt beam="1">  1        2 0.18409043E+00 0.22095628E+04</pdfrwt>
<pdfrwt beam="2">  1       -2 0.15692595E+00 0.22095628E+04</pdfrwt>
<totfact> 0.46152331E+00</totfact>
</mgrwt>
</event>
<event>
 6    1  0.2047711E-005  0.3924165E+04  0.7818608E-02  0.8020022E-01
          1   -1    0    0  501    0  0.00000000000E+00  0.00000000000E+00  0.20005872876E+04  0.20005872876E+04  0.00000000000E+00 0. -1.
         -1   -1    0    0    0  501 -0.00000000000E+00 -0.00000000000E+00 -0.19243186202E+04  0.19243186202E+04  0.00000000000E+00 0.  1.
         23    2    1    2    0    0  0.11536616613E+04  0.15574652259E+04  0.33755739862E+03  0.19691694839E+04  0.83966066263E+02 0.  0.
         11    1    3    3    0    0  0.76910701167E+03  0.10836734563E+04  0.25982383816E+03  0.13540244393E+04  0.00000000000E+00 0.  1.
        -11    1    3    3    0    0  0.38455464958E+03  0.47379176965E+03  0.77733560465E+02  0.61514504463E+03  0.00000000000E+00 0. -1.
         22    1    1    2    0    0 -0.11536616613E+04 -0.15574652259E+04 -0.26128873123E+03  0.19557364239E+04  0.00000000000E+00 0.  1.
<mgrwt>
<rscale>  0 0.39241648E+04</rscale>
<asrwt>0</asrwt>
<pdfrwt beam="1">  1        1 0.30778266E+00 0.39241648E+04</pdfrwt>
<pdfrwt beam="2">  1       -1 0.29604902E+00 0.39241648E+04</pdfrwt>
<totfact> 0.82134411E-02</totfact>
</mgrwt>
</event>
<event>
 6    1  0.2047711E-005  0.2052822E+04  0.7818608E-02  0.8582315E-01
          2   -1    0    0  501    0  0.00000000000E+00  0.00000000000E+00  0.47220766203E+03  0.47220766203E+03  0.00000000000E+00 0. -1.
         -2   -1    0    0    0  501 -0.00000000000E+00 -0.00000000000E+00 -0.22310522866E+04  0.22310522866E+04  0.00000000000E+00 0.  1.
         23    2    1    2    0    0  0.28804212617E+03 -0.90571965491E+03 -0.13845620419E+04  0.16817983432E+04  0.90206759528E+02 0.  0.
         13    1    3    3    0    0  0.15165202421E+03 -0.47188098596E+03 -0.80112850484E+03  0.94205991456E+03  0.00000000000E+00 0. -1.
        -13    1    3    3    0    0  0.13639010196E+03 -0.43383866895E+03 -0.58343353711E+03  0.73973842865E+03  0.00000000000E+00 0.  1.
         22    1    1    2    0    0 -0.28804212617E+03  0.90571965491E+03 -0.37428258263E+03  0.10214616054E+04  0.00000000000E+00 0. -1.
<mgrwt>
<rscale>  0 0.20528224E+04</rscale>
<asrwt>0</asrwt>
<pdfrwt beam="1">  1        2 0.72647332E-01 0.20528224E+04</pdfrwt>
<pdfrwt beam="2">  1       -2 0.34323881E+00 0.20528224E+04</pdfrwt>
<totfact> 0.10465838E+00</totfact>
</mgrwt>
</event>
<event>
 6    1  0.2047711E-005  0.4643634E+04  0.7818608E-02  0.7885962E-01
          2   -1    0    0  501    0  0.00000000000E+00  0.00000000000E+00  0.27318117869E+04  0.27318117869E+04  0.00000000000E+00 0. -1.
         -2   -1    0    0    0  501 -0.00000000000E+00 -0.00000000000E+00 -0.19733546656E+04  0.19733546656E+04  0.00000000000E+00 0.  1.
         23    2    1    2    0    0 -0.11217775598E+04  0.97617805128E+03 -0.14262323295E+04  0.20624071979E+04  0.89868296158E+02 0.  0.
         11    1    3    3    0    0 -0.74356291904E+03  0.64773022278E+03 -0.10037586701E+04  0.14071146804E+04  0.00000000000E+00 0.  1.
        -11    1    3    3    0    0 -0.37821464079E+03  0.32844782851E+03 -0.42247365939E+03  0.65529251746E+03  0.00000000000E+00 0. -1.
         22    1    1    2    0    0  0.11217775598E+04 -0.97617805128E+03  0.21846894507E+04  0.26427592546E+04  0.00000000000E+00 0. -1.
<mgrwt>
<rscale>  0 0.46436337E+04</rscale>
<asrwt>0</asrwt>
<pdfrwt beam="1">  1        2 0.42027873E+00 0.46436337E+04</pdfrwt>
<pdfrwt beam="2">  1       -2 0.30359303E+00 0.46436337E+04</pdfrwt>
<totfact> 0.57508444E-02</totfact>
</mgrwt>
</event>
<event>
 6    1  0.2047711E-005  0.2334118E+04  0.7818608E-02  0.8464589E-01
         -2   -1    0    0    0  501 -0.00000000000E+00  0.00000000000E+00  0.76457818956E+03  0.76457818956E+03  0.00000000000E+00 0.  1.
          2   -1    0    0  501    0  0.00000000000E+00 -0.00000000000E+00 -0.17814088943E+04  0.17814088943E+04  0.00000000000E+00 0. -1.
         23    2    1    2    0    0 -0.89791500405E+03 -0.65462281400E+03 -0.12678111356E+03  0.11222698866E+04  0.92918590159E+02 0.  0.
         11    1    3    3    0    0 -0.67780641307E+03 -0.49444282541E+03 -0.13576565065E+03  0.84989855459E+03  0.00000000000E+00 0.  1.
        -11    1    3    3    0    0 -0.22010859099E+03 -0.16017998859E+03  0.89845370861E+01  0.27237133197E+03  0.00000000000E+00 0. -1.
         22    1    1    2    0    0  0.89791500405E+03  0.65462281400E+03 -0.89004959116E+03  0.14237171973E+04  0.00000000000E+00 0. -1.
<mgrwt>
<rscale>  0 0.23341177E+04</rscale>
<asrwt>0</asrwt>
<pdfrwt beam="1">  1        2 0.27406290E+00 0.23341177E+04</pdfrwt>
<pdfrwt beam="2">  1       -2 0.11762742E+00 0.23341177E+04</pdfrwt>
<totfact> 0.44574275E+00</totfact>
</mgrwt>
</event>
<event>
 6    1  0.2047711E-005  0.1441525E+04  0.7818608E-02  0.8924297E-01
          1   -1    0    0  501    0  0.00000000000E+00  0.00000000000E+00  0.59071525242E+03  0.59071525242E+03  0.00000000000E+00 0. -1.
         -1   -1    0    0    0  501 -0.00000000000E+00 -0.00000000000E+00 -0.87943959503E+03  0.87943959503E+03  0.00000000000E+00 0.  1.
         23    2    1    2    0    0 -0.37991400825E+03 -0.29200502237E+01  0.47605663259E+03  0.61620337319E+03  0.93453193326E+02 0.  0.
         11    1    3    3    0    0 -0.10793785719E+03 -0.13759543080E+02  0.77583436298E+02  0.13363792736E+03  0.00000000000E+00 0. -1.
        -11    1    3    3    0    0 -0.27197615106E+03  0.10839492856E+02  0.39847319629E+03  0.48256544583E+03  0.00000000000E+00 0.  1.
         22    1    1    2    0    0  0.37991400825E+03  0.29200502237E+01 -0.76478097520E+03  0.85395147426E+03  0.00000000000E+00 0.  1.
<mgrwt>
<rscale>  0 0.14415247E+04</rscale>
<asrwt>0</asrwt>
<pdfrwt beam="1">  1        1 0.90879270E-01 0.14415247E+04</pdfrwt>
<pdfrwt beam="2">  1       -1 0.13529840E+00 0.14415247E+04</pdfrwt>
<totfact> 0.15596823E+01</totfact>
</mgrwt>
</event>
<event>
 6    1  0.2047711E-005  0.1042126E+04  0.7818608E-02  0.9263511E-01
          2   -1    0    0  501    0  0.00000000000E+00  0.00000000000E+00  0.67199593372E+03  0.67199593372E+03  0.00000000000E+00 0. -1.
         -2   -1    0    0    0  501 -0.00000000000E+00 -0.00000000000E+00 -0.40403035021E+03  0.40403035021E+03  0.00000000000E+00 0.  1.
         23    2    1    2    0    0  0.49534942891E+03  0.98347031802E+02  0.24978656651E+03  0.57068118199E+03  0.90777129756E+02 0.  0.
         11    1    3    3    0    0  0.20225114860E+03  0.54141262170E+02  0.15135936399E+03  0.25835336353E+03  0.00000000000E+00 0.  1.
        -11    1    3    3    0    0  0.29309828031E+03  0.44205769632E+02  0.98427202512E+02  0.31232781846E+03  0.00000000000E+00 0. -1.
         22    1    1    2    0    0 -0.49534942891E+03 -0.98347031802E+02  0.18179017010E+02  0.50534510193E+03  0.00000000000E+00 0.  1.
<mgrwt>
<rscale>  0 0.10421262E+04</rscale>
<asrwt>0</asrwt>
<pdfrwt beam="1">  1        2 0.10338399E+00 0.10421262E+04</pdfrwt>
<pdfrwt beam="2">  1       -2 0.62158516E-01 0.10421262E+04</pdfrwt>
<totfact> 0.10329726E+02</totfact>
</mgrwt>
</event>
<event>
 6    1  0.2047711E-005  0.1685201E+04  0.7818608E-02  0.8769850E-01
         -2   -1    0    0    0  501 -0.00000000000E+00  0.00000000000E+00  0.55117531287E+03  0.55117531287E+03  0.00000000000E+00 0.  1.
          2   -1    0    0  501    0  0.00000000000E+00 -0.00000000000E+00 -0.12881125636E+04  0.12881125636E+04  0.00000000000E+00 0. -1.
         23    2    1    2    0    0 -0.71825045838E+03  0.27258452583E+03 -0.74083995884E+03  0.10710422934E+04  0.90009472018E+02 0.  0.
         11    1    3    3    0    0 -0.65605752079E+03  0.27409257366E+03 -0.68868395291E+03  0.98986049346E+03  0.00000000000E+00 0. -1.
        -11    1    3    3    0    0 -0.62192937594E+02 -0.15080478269E+01 -0.52156005928E+02  0.81181799987E+02  0.00000000000E+00 0.  1.
         22    1    1    2    0    0  0.71825045838E+03 -0.27258452583E+03  0.39027081164E+01  0.76824558301E+03  0.00000000000E+00 0.  1.
<mgrwt>
<rscale>  0 0.16852013E+04</rscale>
<asrwt>0</asrwt>
<pdfrwt beam="1">  1        2 0.19817116E+00 0.16852013E+04</pdfrwt>
<pdfrwt beam="2">  1       -2 0.84796202E-01 0.16852013E+04</pdfrwt>
<totfact> 0.19389635E+01</totfact>
</mgrwt>
</event>
<event>
 6    1  0.2047711E-005  0.2547081E+04  0.7818608E-02  0.8386402E-01
          2   -1    0    0  501    0  0.00000000000E+00  0.00000000000E+00  0.10967669896E+04  0.10967669896E+04  0.00000000000E+00 0. -1.
         -2   -1    0    0    0  501 -0.00000000000E+00 -0.00000000000E+00 -0.14788063068E+04  0.14788063068E+04  0.00000000000E+00 0.  1.
         23    2    1    2    0    0  0.10143681916E+04 -0.76365153898E+03 -0.26741712771E+03  0.13007224238E+04  0.90886755940E+02 0.  0.
         13    1    3    3    0    0  0.58746316050E+03 -0.47195806606E+03 -0.19715963865E+03  0.77892830490E+03  0.00000000000E+00 0.  1.
        -13    1    3    3    0    0  0.42690503113E+03 -0.29169347292E+03 -0.70257489061E+02  0.52179411890E+03  0.00000000000E+00 0. -1.
         22    1    1    2    0    0 -0.10143681916E+04  0.76365153898E+03 -0.11462218950E+03  0.12748508727E+04  0.00000000000E+00 0.  1.
<mgrwt>
<rscale>  0 0.25470814E+04</rscale>
<asrwt>0</asrwt>
<pdfrwt beam="1">  1        2 0.16873338E+00 0.25470814E+04</pdfrwt>
<pdfrwt beam="2">  1       -2 0.22750866E+00 0.25470814E+04</pdfrwt>
<totfact> 0.17231967E+00</totfact>
</mgrwt>
</event>
<event>
 6    1  0.2047711E-005  0.1718086E+04  0.7818608E-02  0.8751116E-01
         -1   -1    0    0    0  501 -0.00000000000E+00  0.00000000000E+00  0.13969905600E+04  0.13969905600E+04  0.00000000000E+00 0.  1.
          1   -1    0    0  501    0  0.00000000000E+00 -0.00000000000E+00 -0.52824638745E+03  0.52824638745E+03  0.00000000000E+00 0. -1.
         23    2    1    2    0    0  0.71381973005E+03 -0.44332972325E+03  0.24835417556E+03  0.88074491834E+03  0.89173786103E+02 0.  0.
         13    1    3    3    0    0  0.40984183509E+03 -0.20223439971E+03  0.13374721377E+03  0.47619050748E+03  0.00000000000E+00 0. -1.
        -13    1    3    3    0    0  0.30397789496E+03 -0.24109532353E+03  0.11460696179E+03  0.40455441086E+03  0.00000000000E+00 0.  1.
         22    1    1    2    0    0 -0.71381973005E+03  0.44332972325E+03  0.62038999698E+03  0.10444920291E+04  0.00000000000E+00 0.  1.
<mgrwt>
<rscale>  0 0.17180864E+04</rscale>
<asrwt>0</asrwt>
<pdfrwt beam="1">  1        1 0.81268676E-01 0.17180864E+04</pdfrwt>
<pdfrwt beam="2">  1       -1 0.21492162E+00 0.17180864E+04</pdfrwt>
<totfact> 0.46440308E+00</totfact>
</mgrwt>
</event>
<event>
 6    1  0.2047711E-005  0.2124008E+04  0.7818608E-02  0.8550741E-01
          2   -1    0    0  501    0  0.00000000000E+00  0.00000000000E+00  0.16813211187E+04  0.16813211187E+04  0.00000000000E+00 0. -1.
         -2   -1    0    0    0  501 -0.00000000000E+00 -0.00000000000E+00 -0.67081294290E+03  0.67081294290E+03  0.00000000000E+00 0.  1.
         23    2    1    2    0    0 -0.63619793334E+03 -0.23684859189E+03  0.14077883380E+04  0.15655740874E+04  0.91154552988E+02 0.  0.
         13    1    3    3    0    0 -0.45621834645E+03 -0.21222162402E+03  0.10208441887E+04  0.11381107393E+04  0.00000000000E+00 0.  1.
        -13    1    3    3    0    0 -0.17997958689E+03 -0.24626967876E+02  0.38694414935E+03  0.42746334809E+03  0.00000000000E+00 0. -1.
         22    1    1    2    0    0  0.63619793334E+03  0.23684859189E+03 -0.39728016217E+03  0.78655997427E+03  0.00000000000E+00 0.  1.
<mgrwt>
<rscale>  0 0.21240075E+04</rscale>
<asrwt>0</asrwt>
<pdfrwt beam="1">  1        2 0.25866479E+00 0.21240075E+04</pdfrwt>
<pdfrwt beam="2">  1       -2 0.10320199E+00 0.21240075E+04</pdfrwt>
<totfact> 0.70787833E+00</totfact>
</mgrwt>
</event>
<event>
 6    1  0.2047711E-005  0.4604534E+03  0.7818608E-02  0.1024650E+00
          4   -1    0    0  501    0  0.00000000000E+00  0.00000000000E+00  0.33953722896E+03  0.33953722896E+03  0.00000000000E+00 0. -1.
         -4   -1    0    0    0  501 -0.00000000000E+00 -0.00000000000E+00 -0.15610760451E+03  0.15610760451E+03  0.00000000000E+00 0.  1.
         23    2    1    2    0    0  0.39593746871E+02 -0.17315031216E+03 -0.47223448045E+02  0.20452709914E+03  0.89736195835E+02 0.  0.
         11    1    3    3    0    0  0.42705765811E+02 -0.10489643219E+03  0.12284683600E+02  0.11392083818E+03  0.00000000000E+00 0.  1.
        -11    1    3    3    0    0 -0.31120189398E+01 -0.68253879969E+02 -0.59508131646E+02  0.90606260957E+02  0.00000000000E+00 0. -1.
         22    1    1    2    0    0 -0.39593746871E+02  0.17315031216E+03  0.23065307249E+03  0.29111773433E+03  0.00000000000E+00 0. -1.
<mgrwt>
<rscale>  0 0.46045344E+03</rscale>
<asrwt>0</asrwt>
<pdfrwt beam="1">  1        4 0.52236497E-01 0.46045344E+03</pdfrwt>
<pdfrwt beam="2">  1       -4 0.24016555E-01 0.46045344E+03</pdfrwt>
<totfact> 0.11180456E+02</totfact>
</mgrwt>
</event>
<event>
 6    1  0.2175801E-005  0.4751054E+04  0.7818608E-02  0.7868101E-01
         -2   -1    0    0    0  501 -0.00000000000E+00  0.00000000000E+00  0.24101617229E+04  0.24101617229E+04  0.00000000000E+00 0.  1.
          2   -1    0    0  501    0  0.00000000000E+00 -0.00000000000E+00 -0.23413895526E+04  0.23413895526E+04  0.00000000000E+00 0. -1.
         23    2    1    2    0    0 -0.47255675191E+03 -0.12167338694E+04  0.20183321427E+04  0.24053766703E+04  0.91766526568E+02 0.  0.
         11    1    3    3    0    0 -0.32110504208E+03 -0.71981037153E+03  0.11744861638E+04  0.14144444733E+04  0.00000000000E+00 0. -1.
        -11    1    3    3    0    0 -0.15145170983E+03 -0.49692349783E+03  0.84384597888E+03  0.99093219707E+03  0.00000000000E+00 0.  1.
         22    1    1    2    0    0  0.47255675191E+03  0.12167338694E+04 -0.19495599724E+04  0.23461746053E+04  0.00000000000E+00 0. -1.
<mgrwt>
<rscale>  0 0.47510536E+04</rscale>
<asrwt>0</asrwt>
<pdfrwt beam="1">  1        2 0.36021378E+00 0.47510536E+04</pdfrwt>
<pdfrwt beam="2">  1       -2 0.37079411E+00 0.47510536E+04</pdfrwt>
<totfact> 0.36595289E-02</totfact>
</mgrwt>
</event>
<event>
 6    1  0.2047711E-005  0.1356149E+04  0.7818608E-02  0.8986187E-01
          2   -1    0    0  501    0  0.00000000000E+00  0.00000000000E+00  0.24619653821E+04  0.24619653821E+04  0.00000000000E+00 0.  1.
         -2   -1    0    0    0  501 -0.00000000000E+00 -0.00000000000E+00 -0.18675518920E+03  0.18675518920E+03  0.00000000000E+00 0. -1.
         23    2    1    2    0    0 -0.19018852317E+03  0.63132777423E+03  0.14253301799E+04  0.15730614852E+04  0.90608398291E+02 0.  0.
         11    1    3    3    0    0 -0.49296763927E+02  0.30441211468E+03  0.70863662644E+03  0.77282777825E+03  0.00000000000E+00 0. -1.
        -11    1    3    3    0    0 -0.14089175924E+03  0.32691565955E+03  0.71669355341E+03  0.80023370698E+03  0.00000000000E+00 0.  1.
         22    1    1    2    0    0  0.19018852317E+03 -0.63132777423E+03  0.84988001305E+03  0.10756590861E+04  0.00000000000E+00 0. -1.
<mgrwt>
<rscale>  0 0.13561487E+04</rscale>
<asrwt>0</asrwt>
<pdfrwt beam="1">  1        2 0.37876388E+00 0.13561487E+04</pdfrwt>
<pdfrwt beam="2">  1       -2 0.28731569E-01 0.13561487E+04</pdfrwt>
<totfact> 0.39886474E+01</totfact>
</mgrwt>
</event>
<event>
 6    1  0.2047711E-005  0.3262388E+04  0.7818608E-02  0.8172532E-01
         -2   -1    0    0    0  501 -0.00000000000E+00  0.00000000000E+00  0.13199709576E+04  0.13199709576E+04  0.00000000000E+00 0.  1.
          2   -1    0    0  501    0  0.00000000000E+00 -0.00000000000E+00 -0.20157978504E+04  0.20157978504E+04  0.00000000000E+00 0. -1.
         23    2    1    2    0    0  0.51760700469E+03 -0.76559661967E+03  0.10246223776E+04  0.13828220889E+04  0.91053377699E+02 0.  0.
         13    1    3    3    0    0  0.46138130576E+01 -0.38179469265E+02  0.45560858938E+02  0.59621732711E+02  0.00000000000E+00 0. -1.
        -13    1    3    3    0    0  0.51299319164E+03 -0.72741715040E+03  0.97906151869E+03  0.13232003562E+04  0.00000000000E+00 0.  1.
         22    1    1    2    0    0 -0.51760700469E+03  0.76559661967E+03 -0.17204492704E+04  0.19529467190E+04  0.00000000000E+00 0. -1.
<mgrwt>
<rscale>  0 0.32623885E+04</rscale>
<asrwt>0</asrwt>
<pdfrwt beam="1">  1        2 0.31012274E+00 0.32623885E+04</pdfrwt>
<pdfrwt beam="2">  1       -2 0.20307246E+00 0.32623885E+04</pdfrwt>
<totfact> 0.69653422E-01</totfact>
</mgrwt>
</event>
<event>
 6    1  0.2047711E-005  0.2395878E+04  0.7818608E-02  0.8441048E-01
          2   -1    0    0  501    0  0.00000000000E+00  0.00000000000E+00  0.27709360450E+04  0.27709360450E+04  0.00000000000E+00 0.  1.
         -2   -1    0    0    0  501 -0.00000000000E+00 -0.00000000000E+00 -0.51789661421E+03  0.51789661421E+03  0.00000000000E+00 0. -1.
         23    2    1    2    0    0 -0.31295581237E+03 -0.82463024315E+03  0.22371311397E+04  0.24066708532E+04  0.96708224371E+02 0.  0.
         11    1    3    3    0    0 -0.11044253839E+03 -0.17909409768E+03  0.50288386020E+03  0.54512789963E+03  0.00000000000E+00 0.  1.
        -11    1    3    3    0    0 -0.20251327398E+03 -0.64553614547E+03  0.17342472795E+04  0.18615429535E+04  0.00000000000E+00 0. -1.
         22    1    1    2    0    0  0.31295581237E+03  0.82463024315E+03  0.15908291099E+02  0.88216180610E+03  0.00000000000E+00 0. -1.
<mgrwt>
<rscale>  0 0.23958785E+04</rscale>
<asrwt>0</asrwt>
<pdfrwt beam="1">  1        2 0.42629784E+00 0.23958785E+04</pdfrwt>
<pdfrwt beam="2">  1       -2 0.79676404E-01 0.23958785E+04</pdfrwt>
<totfact> 0.30217193E+00</totfact>
</mgrwt>
</event>
<event>
 6    1  0.2047711E-005  0.3613630E+04  0.7818608E-02  0.8087377E-01
         -2   -1    0    0    0  501 -0.00000000000E+00  0.00000000000E+00  0.13504420125E+04  0.13504420125E+04  0.00000000000E+00 0.  1.
          2   -1    0    0  501    0  0.00000000000E+00 -0.00000000000E+00 -0.24174158120E+04  0.24174158120E+04  0.00000000000E+00 0. -1.
         23    2    1    2    0    0 -0.70727908555E+03  0.65340009760E+03  0.10587638628E+04  0.14342048937E+04  0.93740960079E+02 0.  0.
         11    1    3    3    0    0 -0.26505294292E+03  0.22734384663E+03  0.44911493153E+03  0.56889586822E+03  0.00000000000E+00 0. -1.
        -11    1    3    3    0    0 -0.44222614262E+03  0.42605625096E+03  0.60964893123E+03  0.86530902547E+03  0.00000000000E+00 0.  1.
         22    1    1    2    0    0  0.70727908555E+03 -0.65340009760E+03 -0.21257376623E+04  0.23336529308E+04  0.00000000000E+00 0. -1.
<mgrwt>
<rscale>  0 0.36136297E+04</rscale>
<asrwt>0</asrwt>
<pdfrwt beam="1">  1        2 0.37191012E+00 0.36136297E+04</pdfrwt>
<pdfrwt beam="2">  1       -2 0.20776031E+00 0.36136297E+04</pdfrwt>
<totfact> 0.37441685E-01</totfact>
</mgrwt>
</event>
<event>
 6    1  0.2709887E-005  0.3304399E+04  0.7818608E-02  0.8161777E-01
          2   -1    0    0  501    0  0.00000000000E+00  0.00000000000E+00  0.14416895488E+04  0.14416895488E+04  0.00000000000E+00 0. -1.
         -2   -1    0    0    0  501 -0.00000000000E+00 -0.00000000000E+00 -0.18934475185E+04  0.18934475185E+04  0.00000000000E+00 0.  1.
         23    2    1    2    0    0 -0.12120123112E+04  0.14092411416E+03 -0.13485614627E+04  0.18208418671E+04  0.89518924421E+02 0.  0.
         11    1    3    3    0    0 -0.70420480365E+03  0.41606573321E+02 -0.74978004407E+03  0.10294686139E+04  0.00000000000E+00 0.  1.
        -11    1    3    3    0    0 -0.50780750751E+03  0.99317540836E+02 -0.59878141868E+03  0.79137325325E+03  0.00000000000E+00 0. -1.
         22    1    1    2    0    0  0.12120123112E+04 -0.14092411416E+03  0.89680349307E+03  0.15142952003E+04  0.00000000000E+00 0. -1.
<mgrwt>
<rscale>  0 0.33043992E+04</rscale>
<asrwt>0</asrwt>
<pdfrwt beam="1">  1        2 0.22179839E+00 0.33043992E+04</pdfrwt>
<pdfrwt beam="2">  1       -2 0.29129962E+00 0.33043992E+04</pdfrwt>
<totfact> 0.41086207E-01</totfact>
</mgrwt>
</event>
<event>
 6    1  0.2047711E-005  0.1678396E+04  0.7818608E-02  0.8773783E-01
          1   -1    0    0  501    0  0.00000000000E+00  0.00000000000E+00  0.18645986431E+04  0.18645986431E+04  0.00000000000E+00 0. -1.
         -1   -1    0    0    0  501 -0.00000000000E+00 -0.00000000000E+00 -0.37769698047E+03  0.37769698047E+03  0.00000000000E+00 0.  1.
         23    2    1    2    0    0  0.49238478387E+03 -0.31185491838E+01  0.16494295043E+04  0.17237709857E+04  0.91193316284E+02 0.  0.
         11    1    3    3    0    0  0.31693448761E+03  0.22690658583E+02  0.11776228038E+04  0.12197367763E+04  0.00000000000E+00 0.  1.
        -11    1    3    3    0    0  0.17545029626E+03 -0.25809207767E+02  0.47180670043E+03  0.50403420939E+03  0.00000000000E+00 0. -1.
         22    1    1    2    0    0 -0.49238478387E+03  0.31185491838E+01 -0.16252784164E+03  0.51852463784E+03  0.00000000000E+00 0.  1.
<mgrwt>
<rscale>  0 0.16783960E+04</rscale>
<asrwt>0</asrwt>
<pdfrwt beam="1">  1        1 0.28686132E+00 0.16783960E+04</pdfrwt>
<pdfrwt beam="2">  1       -1 0.58107229E-01 0.16783960E+04</pdfrwt>
<totfact> 0.10535034E+01</totfact>
</mgrwt>
</event>
<event>
 6    1  0.2047711E-005  0.1621077E+04  0.7818608E-02  0.8807703E-01
          2   -1    0    0  501    0  0.00000000000E+00  0.00000000000E+00  0.28468527102E+04  0.28468527102E+04  0.00000000000E+00 0.  1.
         -2   -1    0    0    0  501 -0.00000000000E+00 -0.00000000000E+00 -0.23077158475E+03  0.23077158475E+03  0.00000000000E+00 0. -1.
         23    2    1    2    0    0  0.75939719148E+03  0.25817889723E+03  0.14973535089E+04  0.17010735631E+04  0.90792615247E+02 0.  0.
         13    1    3    3    0    0  0.60385481353E+02  0.44684745083E+02  0.16838091524E+03  0.18437805026E+03  0.00000000000E+00 0. -1.
        -13    1    3    3    0    0  0.69901171013E+03  0.21349415214E+03  0.13289725937E+04  0.15166955128E+04  0.00000000000E+00 0.  1.
         22    1    1    2    0    0 -0.75939719148E+03 -0.25817889723E+03  0.11187276166E+04  0.13765507319E+04  0.00000000000E+00 0.  1.
<mgrwt>
<rscale>  0 0.16210771E+04</rscale>
<asrwt>0</asrwt>
<pdfrwt beam="1">  1        2 0.43797732E+00 0.16210771E+04</pdfrwt>
<pdfrwt beam="2">  1       -2 0.35503323E-01 0.16210771E+04</pdfrwt>
<totfact> 0.15522282E+01</totfact>
</mgrwt>
</event>
<event>
 6    1  0.2047711E-005  0.3772071E+04  0.7818608E-02  0.8052175E-01
         -2   -1    0    0    0  501 -0.00000000000E+00  0.00000000000E+00  0.13266538427E+04  0.13266538427E+04  0.00000000000E+00 0. -1.
          2   -1    0    0  501    0  0.00000000000E+00 -0.00000000000E+00 -0.26812798043E+04  0.26812798043E+04  0.00000000000E+00 0.  1.
         23    2    1    2    0    0  0.13161565683E+04 -0.65146405509E+03  0.57767822691E+03  0.15809039801E+04  0.94189878214E+02 0.  0.
         13    1    3    3    0    0  0.74986884463E+03 -0.41222049194E+03  0.30562536175E+03  0.90864507915E+03  0.00000000000E+00 0.  1.
        -13    1    3    3    0    0  0.56628772368E+03 -0.23924356315E+03  0.27205286516E+03  0.67225890098E+03  0.00000000000E+00 0. -1.
         22    1    1    2    0    0 -0.13161565683E+04  0.65146405509E+03 -0.19323041885E+04  0.24270296670E+04  0.00000000000E+00 0.  1.
<mgrwt>
<rscale>  0 0.37720711E+04</rscale>
<asrwt>0</asrwt>
<pdfrwt beam="1">  1        2 0.41250458E+00 0.37720711E+04</pdfrwt>
<pdfrwt beam="2">  1       -2 0.20410059E+00 0.37720711E+04</pdfrwt>
<totfact> 0.27371431E-01</totfact>
</mgrwt>
</event>
<event>
 6    1  0.2047711E-005  0.2529061E+04  0.7818608E-02  0.8392705E-01
         -2   -1    0    0    0  501 -0.00000000000E+00  0.00000000000E+00  0.54346527533E+03  0.54346527533E+03  0.00000000000E+00 0.  1.
          2   -1    0    0  501    0  0.00000000000E+00 -0.00000000000E+00 -0.29422992848E+04  0.29422992848E+04  0.00000000000E+00 0. -1.
         23    2    1    2    0    0  0.65697675287E+03  0.89785829834E+02  0.28056986976E+03  0.72553176250E+03  0.89425597740E+02 0.  0.
         13    1    3    3    0    0  0.21626661855E+03  0.33957409389E+02  0.13886993258E+03  0.25924739946E+03  0.00000000000E+00 0.  1.
        -13    1    3    3    0    0  0.44071013432E+03  0.55828420445E+02  0.14169993718E+03  0.46628436304E+03  0.00000000000E+00 0. -1.
         22    1    1    2    0    0 -0.65697675287E+03 -0.89785829834E+02 -0.26794038792E+04  0.27602327976E+04  0.00000000000E+00 0. -1.
<mgrwt>
<rscale>  0 0.25290611E+04</rscale>
<asrwt>0</asrwt>
<pdfrwt beam="1">  1        2 0.45266143E+00 0.25290611E+04</pdfrwt>
<pdfrwt beam="2">  1       -2 0.83610042E-01 0.25290611E+04</pdfrwt>
<totfact> 0.21055475E+00</totfact>
</mgrwt>
</event>
<event>
 6    1  0.2047711E-005  0.2718013E+04  0.7818608E-02  0.8329184E-01
         -2   -1    0    0    0  501 -0.00000000000E+00  0.00000000000E+00  0.19662563332E+04  0.19662563332E+04  0.00000000000E+00 0.  1.
          2   -1    0    0  501    0  0.00000000000E+00 -0.00000000000E+00 -0.93929717463E+03  0.93929717463E+03  0.00000000000E+00 0. -1.
         23    2    1    2    0    0 -0.48909302721E+03 -0.71820989574E+03 -0.60086240758E+03  0.10603325198E+04  0.90730237519E+02 0.  0.
         13    1    3    3    0    0 -0.18839972992E+03 -0.22654976729E+03 -0.24315133742E+03  0.38202333460E+03  0.00000000000E+00 0.  1.
        -13    1    3    3    0    0 -0.30069329729E+03 -0.49166012845E+03 -0.35771107016E+03  0.67830918515E+03  0.00000000000E+00 0. -1.
         22    1    1    2    0    0  0.48909302721E+03  0.71820989574E+03  0.16278215661E+04  0.18452209880E+04  0.00000000000E+00 0.  1.
<mgrwt>
<rscale>  0 0.27180133E+04</rscale>
<asrwt>0</asrwt>
<pdfrwt beam="1">  1        2 0.14450726E+00 0.27180133E+04</pdfrwt>
<pdfrwt beam="2">  1       -2 0.30250097E+00 0.27180133E+04</pdfrwt>
<totfact> 0.74173455E-01</totfact>
</mgrwt>
</event>
<event>
 6    1  0.2047711E-005  0.2951431E+04  0.7818608E-02  0.8257737E-01
          2   -1    0    0  501    0  0.00000000000E+00  0.00000000000E+00  0.24938108837E+04  0.24938108837E+04  0.00000000000E+00 0. -1.
         -2   -1    0    0    0  501 -0.00000000000E+00 -0.00000000000E+00 -0.87325664370E+03  0.87325664370E+03  0.00000000000E+00 0.  1.
         23    2    1    2    0    0  0.22545839476E+03 -0.13370857054E+04  0.14714055357E+04  0.20029286021E+04  0.89772286243E+02 0.  0.
         11    1    3    3    0    0  0.42510647747E+02 -0.38839502385E+03  0.47438291220E+03  0.61457057944E+03  0.00000000000E+00 0. -1.
        -11    1    3    3    0    0  0.18294774702E+03 -0.94869068154E+03  0.99702262353E+03  0.13883580227E+04  0.00000000000E+00 0.  1.
         22    1    1    2    0    0 -0.22545839476E+03  0.13370857054E+04  0.14914870423E+03  0.13641389252E+04  0.00000000000E+00 0.  1.
<mgrwt>
<rscale>  0 0.29514315E+04</rscale>
<asrwt>0</asrwt>
<pdfrwt beam="1">  1        2 0.38366321E+00 0.29514315E+04</pdfrwt>
<pdfrwt beam="2">  1       -2 0.13434718E+00 0.29514315E+04</pdfrwt>
<totfact> 0.12046806E+00</totfact>
</mgrwt>
</event>
<event>
 6    1  0.2047711E-005  0.1290533E+04  0.7818608E-02  0.9037106E-01
         -2   -1    0    0    0  501 -0.00000000000E+00  0.00000000000E+00  0.49828326131E+03  0.49828326131E+03  0.00000000000E+00 0. -1.
          2   -1    0    0  501    0  0.00000000000E+00 -0.00000000000E+00 -0.83560710773E+03  0.83560710773E+03  0.00000000000E+00 0.  1.
         23    2    1    2    0    0 -0.79531277312E+02  0.59821663409E+03  0.56994779464E+02  0.61300511874E+03  0.91315416773E+02 0.  0.
         13    1    3    3    0    0 -0.19158419168E+02  0.30317798003E+03  0.69355477080E+02  0.31159928562E+03  0.00000000000E+00 0.  1.
        -13    1    3    3    0    0 -0.60372858144E+02  0.29503865406E+03 -0.12360697616E+02  0.30140583312E+03  0.00000000000E+00 0. -1.
         22    1    1    2    0    0  0.79531277312E+02 -0.59821663409E+03 -0.39431862588E+03  0.72088525029E+03  0.00000000000E+00 0.  1.
<mgrwt>
<rscale>  0 0.12905333E+04</rscale>
<asrwt>0</asrwt>
<pdfrwt beam="1">  1        2 0.12855494E+00 0.12905333E+04</pdfrwt>
<pdfrwt beam="2">  1       -2 0.76658964E-01 0.12905333E+04</pdfrwt>
<totfact> 0.48480969E+01</totfact>
</mgrwt>
</event>
<event>
 6    1  0.2047711E-005  0.3035277E+04  0.7818608E-02  0.8233728E-01
          1   -1    0    0  501    0  0.00000000000E+00  0.00000000000E+00  0.27167024212E+04  0.27167024212E+04  0.00000000000E+00 0. -1.
         -1   -1    0    0    0  501 -0.00000000000E+00 -0.00000000000E+00 -0.84780238838E+03  0.84780238838E+03  0.00000000000E+00 0.  1.
         23    2    1    2    0    0 -0.66145662111E+03  0.85661114242E+03 -0.31184912048E+03  0.11299669930E+04  0.90928655147E+02 0.  0.
         13    1    3    3    0    0 -0.50643624373E+03  0.69789284947E+03 -0.27494667735E+03  0.90505677926E+03  0.00000000000E+00 0. -1.
        -13    1    3    3    0    0 -0.15502037738E+03  0.15871829296E+03 -0.36902443127E+02  0.22491021371E+03  0.00000000000E+00 0.  1.
         22    1    1    2    0    0  0.66145662111E+03 -0.85661114242E+03  0.21807491533E+04  0.24345378167E+04  0.00000000000E+00 0. -1.
<mgrwt>
<rscale>  0 0.30352771E+04</rscale>
<asrwt>0</asrwt>
<pdfrwt beam="1">  1        1 0.41795421E+00 0.30352771E+04</pdfrwt>
<pdfrwt beam="2">  1       -1 0.13043114E+00 0.30352771E+04</pdfrwt>
<totfact> 0.40731054E-01</totfact>
</mgrwt>
</event>
<event>
 6    1  0.2047711E-005  0.1413436E+04  0.7818608E-02  0.8944150E-01
         -2   -1    0    0    0  501 -0.00000000000E+00  0.00000000000E+00  0.57650054429E+03  0.57650054429E+03  0.00000000000E+00 0.  1.
          2   -1    0    0  501    0  0.00000000000E+00 -0.00000000000E+00 -0.86634814310E+03  0.86634814310E+03  0.00000000000E+00 0. -1.
         23    2    1    2    0    0 -0.23992825680E+02  0.14271484742E+03 -0.84859333564E+03  0.86566588985E+03  0.91233766783E+02 0.  0.
         11    1    3    3    0    0 -0.18211541299E+02  0.14347915878E+03 -0.60664939181E+03  0.62365167668E+03  0.00000000000E+00 0.  1.
        -11    1    3    3    0    0 -0.57812843805E+01 -0.76431136577E+00 -0.24194394383E+03  0.24201421317E+03  0.00000000000E+00 0. -1.
         22    1    1    2    0    0  0.23992825680E+02 -0.14271484742E+03  0.55874573683E+03  0.57718279754E+03  0.00000000000E+00 0.  1.
<mgrwt>
<rscale>  0 0.14134358E+04</rscale>
<asrwt>0</asrwt>
<pdfrwt beam="1">  1        2 0.13328433E+00 0.14134358E+04</pdfrwt>
<pdfrwt beam="2">  1       -2 0.88692392E-01 0.14134358E+04</pdfrwt>
<totfact> 0.32873067E+01</totfact>
</mgrwt>
</event>
<event>
 6    1  0.2047711E-005  0.2639342E+04  0.7818608E-02  0.8354959E-01
         -2   -1    0    0    0  501 -0.00000000000E+00  0.00000000000E+00  0.98162066063E+03  0.98162066063E+03  0.00000000000E+00 0.  1.
          2   -1    0    0  501    0  0.00000000000E+00 -0.00000000000E+00 -0.17741391431E+04  0.17741391431E+04  0.00000000000E+00 0. -1.
         23    2    1    2    0    0 -0.29573009017E+03 -0.86623957175E+03 -0.13870924561E+04  0.16642720612E+04  0.89155650477E+02 0.  0.
         13    1    3    3    0    0 -0.19850350556E+03 -0.65114457633E+03 -0.10854706228E+04  0.12812647556E+04  0.00000000000E+00 0. -1.
        -13    1    3    3    0    0 -0.97226584617E+02 -0.21509499541E+03 -0.30162183330E+03  0.38300730558E+03  0.00000000000E+00 0.  1.
         22    1    1    2    0    0  0.29573009017E+03  0.86623957175E+03  0.59457397366E+03  0.10914877425E+04  0.00000000000E+00 0.  1.
<mgrwt>
<rscale>  0 0.26393421E+04</rscale>
<asrwt>0</asrwt>
<pdfrwt beam="1">  1        2 0.27294448E+00 0.26393421E+04</pdfrwt>
<pdfrwt beam="2">  1       -2 0.15101857E+00 0.26393421E+04</pdfrwt>
<totfact> 0.23144720E+00</totfact>
</mgrwt>
</event>
<event>
 6    1  0.2047711E-005  0.2664452E+04  0.7818608E-02  0.8346632E-01
         -2   -1    0    0    0  501 -0.00000000000E+00  0.00000000000E+00  0.29669440080E+04  0.29669440080E+04  0.00000000000E+00 0.  1.
          2   -1    0    0  501    0  0.00000000000E+00 -0.00000000000E+00 -0.59820006551E+03  0.59820006551E+03  0.00000000000E+00 0. -1.
         23    2    1    2    0    0 -0.11509562198E+04  0.10958990042E+03  0.30425476412E+03  0.11989602823E+04  0.90689751040E+02 0.  0.
         13    1    3    3    0    0 -0.82579523826E+03  0.38118002806E+02  0.20923545208E+03  0.85274277017E+03  0.00000000000E+00 0. -1.
        -13    1    3    3    0    0 -0.32516098152E+03  0.71471897616E+02  0.95019312040E+02  0.34621751214E+03  0.00000000000E+00 0.  1.
         22    1    1    2    0    0  0.11509562198E+04 -0.10958990042E+03  0.20644891784E+04  0.23661837912E+04  0.00000000000E+00 0.  1.
<mgrwt>
<rscale>  0 0.26644520E+04</rscale>
<asrwt>0</asrwt>
<pdfrwt beam="1">  1        2 0.92030781E-01 0.26644520E+04</pdfrwt>
<pdfrwt beam="2">  1       -2 0.45645291E+00 0.26644520E+04</pdfrwt>
<totfact> 0.13759964E-01</totfact>
</mgrwt>
</event>
<event>
 6    1  0.2047711E-005  0.9061424E+03  0.7818608E-02  0.9417936E-01
          2   -1    0    0  501    0  0.00000000000E+00  0.00000000000E+00  0.86975748377E+03  0.86975748377E+03  0.00000000000E+00 0. -1.
         -2   -1    0    0    0  501 -0.00000000000E+00 -0.00000000000E+00 -0.23601234240E+03  0.23601234240E+03  0.00000000000E+00 0.  1.
         23    2    1    2    0    0 -0.27667529953E+03  0.28395714671E+03  0.63977892797E+02  0.41164044337E+03  0.90409077624E+02 0.  0.
         11    1    3    3    0    0 -0.14978243235E+03  0.11183887873E+03  0.64674751495E+02  0.19780175762E+03  0.00000000000E+00 0. -1.
        -11    1    3    3    0    0 -0.12689286718E+03  0.17211826797E+03 -0.69685869844E+00  0.21383868575E+03  0.00000000000E+00 0.  1.
         22    1    1    2    0    0  0.27667529953E+03 -0.28395714671E+03  0.56976724857E+03  0.69412938281E+03  0.00000000000E+00 0. -1.
<mgrwt>
<rscale>  0 0.90614238E+03</rscale>
<asrwt>0</asrwt>
<pdfrwt beam="1">  1        2 0.13380884E+00 0.90614238E+03</pdfrwt>
<pdfrwt beam="2">  1       -2 0.36309592E-01 0.90614238E+03</pdfrwt>
<totfact> 0.21986408E+02</totfact>
</mgrwt>
</event>
<event>
 6    1  0.2047711E-005  0.1771826E+04  0.7818608E-02  0.8721427E-01
         -2   -1    0    0    0  501 -0.00000000000E+00  0.00000000000E+00  0.42176072661E+03  0.42176072661E+03  0.00000000000E+00 0.  1.
          2   -1    0    0  501    0  0.00000000000E+00 -0.00000000000E+00 -0.18608694537E+04  0.18608694537E+04  0.00000000000E+00 0. -1.
         23    2    1    2    0    0  0.19901841685E+03  0.83452320961E+03 -0.44906673630E+03  0.97258420356E+03  0.90674041081E+02 0.  0.
         13    1    3    3    0    0  0.13555322572E+03  0.46039581540E+03 -0.29275922557E+03  0.56218052972E+03  0.00000000000E+00 0. -1.
        -13    1    3    3    0    0  0.63465191135E+02  0.37412739422E+03 -0.15630751073E+03  0.41040367384E+03  0.00000000000E+00 0.  1.
         22    1    1    2    0    0 -0.19901841685E+03 -0.83452320961E+03 -0.99004199074E+03  0.13100459767E+04  0.00000000000E+00 0. -1.
<mgrwt>
<rscale>  0 0.17718258E+04</rscale>
<asrwt>0</asrwt>
<pdfrwt beam="1">  1        2 0.28628762E+00 0.17718258E+04</pdfrwt>
<pdfrwt beam="2">  1       -2 0.64886264E-01 0.17718258E+04</pdfrwt>
<totfact> 0.16550912E+01</totfact>
</mgrwt>
</event>
<event>
 6    1  0.2047711E-005  0.2667615E+04  0.7818608E-02  0.8345590E-01
          2   -1    0    0  501    0  0.00000000000E+00  0.00000000000E+00  0.15284171976E+04  0.15284171976E+04  0.00000000000E+00 0. -1.
         -2   -1    0    0    0  501 -0.00000000000E+00 -0.00000000000E+00 -0.11639768783E+04  0.11639768783E+04  0.00000000000E+00 0.  1.
         23    2    1    2    0    0  0.77752440708E+03 -0.80224768875E+03  0.91491963871E+03  0.14469331015E+04  0.91607299233E+02 0.  0.
         11    1    3    3    0    0  0.48928010049E+03 -0.54772647975E+03  0.55914388928E+03  0.92306077929E+03  0.00000000000E+00 0. -1.
        -11    1    3    3    0    0  0.28824430659E+03 -0.25452120900E+03  0.35577574943E+03  0.52387232223E+03  0.00000000000E+00 0.  1.
         22    1    1    2    0    0 -0.77752440708E+03  0.80224768875E+03 -0.55047931942E+03  0.12454609744E+04  0.00000000000E+00 0.  1.
<mgrwt>
<rscale>  0 0.26676149E+04</rscale>
<asrwt>0</asrwt>
<pdfrwt beam="1">  1        2 0.23514111E+00 0.26676149E+04</pdfrwt>
<pdfrwt beam="2">  1       -2 0.17907337E+00 0.26676149E+04</pdfrwt>
<totfact> 0.19806258E+00</totfact>
</mgrwt>
</event>
<event>
 6    1  0.2047711E-005  0.2098186E+04  0.7818608E-02  0.8562043E-01
         -2   -1    0    0    0  501 -0.00000000000E+00  0.00000000000E+00  0.76493583692E+03  0.76493583692E+03  0.00000000000E+00 0.  1.
          2   -1    0    0  501    0  0.00000000000E+00 -0.00000000000E+00 -0.14388086135E+04  0.14388086135E+04  0.00000000000E+00 0. -1.
         23    2    1    2    0    0 -0.92041422657E+03  0.13995468126E+03  0.16565851968E+03  0.95012470795E+03  0.92436758101E+02 0.  0.
         11    1    3    3    0    0 -0.62967768099E+03  0.10963218799E+03  0.15470064068E+03  0.65760587498E+03  0.00000000000E+00 0. -1.
        -11    1    3    3    0    0 -0.29073654557E+03  0.30322493261E+02  0.10957878997E+02  0.29251883297E+03  0.00000000000E+00 0.  1.
         22    1    1    2    0    0  0.92041422657E+03 -0.13995468126E+03 -0.83953129623E+03  0.12536197424E+04  0.00000000000E+00 0. -1.
<mgrwt>
<rscale>  0 0.20981861E+04</rscale>
<asrwt>0</asrwt>
<pdfrwt beam="1">  1        2 0.22135517E+00 0.20981861E+04</pdfrwt>
<pdfrwt beam="2">  1       -2 0.11768244E+00 0.20981861E+04</pdfrwt>
<totfact> 0.70637610E+00</totfact>
</mgrwt>
</event>
<event>
 6    1  0.2047711E-005  0.3429336E+03  0.7818608E-02  0.1065553E+00
          1   -1    0    0  501    0  0.00000000000E+00  0.00000000000E+00  0.67496750916E+02  0.67496750916E+02  0.00000000000E+00 0. -1.
         -1   -1    0    0    0  501 -0.00000000000E+00 -0.00000000000E+00 -0.43558943094E+03  0.43558943094E+03  0.00000000000E+00 0.  1.
         23    2    1    2    0    0 -0.14226072093E+03 -0.49490863968E+02 -0.27335961226E+03  0.32514851731E+03  0.91151644852E+02 0.  0.
         11    1    3    3    0    0 -0.98214176694E+02 -0.32400876646E+02 -0.25371045820E+03  0.27397963047E+03  0.00000000000E+00 0. -1.
        -11    1    3    3    0    0 -0.44046544234E+02 -0.17089987322E+02 -0.19649154063E+02  0.51168886846E+02  0.00000000000E+00 0.  1.
         22    1    1    2    0    0  0.14226072093E+03  0.49490863968E+02 -0.94733067760E+02  0.17793766454E+03  0.00000000000E+00 0. -1.
<mgrwt>
<rscale>  0 0.34293365E+03</rscale>
<asrwt>0</asrwt>
<pdfrwt beam="1">  1        1 0.10384116E-01 0.34293365E+03</pdfrwt>
<pdfrwt beam="2">  1       -1 0.67013758E-01 0.34293365E+03</pdfrwt>
<totfact> 0.14307595E+03</totfact>
</mgrwt>
</event>
<event>
 6    1  0.2047711E-005  0.1077736E+04  0.7818608E-02  0.9227168E-01
          2   -1    0    0  501    0  0.00000000000E+00  0.00000000000E+00  0.63734788519E+03  0.63734788519E+03  0.00000000000E+00 0. -1.
         -2   -1    0    0    0  501 -0.00000000000E+00 -0.00000000000E+00 -0.45560487972E+03  0.45560487972E+03  0.00000000000E+00 0.  1.
         23    2    1    2    0    0  0.35475492285E+02  0.48458225683E+03 -0.13557149250E+03  0.51263650216E+03  0.91313085500E+02 0.  0.
         13    1    3    3    0    0  0.25860280542E+00  0.13623240830E+03 -0.80407532570E+02  0.15819199487E+03  0.00000000000E+00 0. -1.
        -13    1    3    3    0    0  0.35216889480E+02  0.34834984853E+03 -0.55163959926E+02  0.35444450729E+03  0.00000000000E+00 0.  1.
         22    1    1    2    0    0 -0.35475492285E+02 -0.48458225683E+03  0.31731449797E+03  0.58031626275E+03  0.00000000000E+00 0. -1.
<mgrwt>
<rscale>  0 0.10777362E+04</rscale>
<asrwt>0</asrwt>
<pdfrwt beam="1">  1        2 0.98053521E-01 0.10777362E+04</pdfrwt>
<pdfrwt beam="2">  1       -2 0.70093058E-01 0.10777362E+04</pdfrwt>
<totfact> 0.84944862E+01</totfact>
</mgrwt>
</event>
<event>
 6    1  0.2047711E-005  0.2261377E+04  0.7818608E-02  0.8493307E-01
         -2   -1    0    0    0  501 -0.00000000000E+00  0.00000000000E+00  0.14558128625E+04  0.14558128625E+04  0.00000000000E+00 0.  1.
          2   -1    0    0  501    0  0.00000000000E+00 -0.00000000000E+00 -0.87817354214E+03  0.87817354214E+03  0.00000000000E+00 0. -1.
         23    2    1    2    0    0 -0.91454311879E+03 -0.28750917417E+01 -0.39206998239E+03  0.10010447277E+04  0.10942711498E+03 0.  0.
         11    1    3    3    0    0 -0.27409433502E+03 -0.49690412156E+02 -0.10597921336E+03  0.29804099586E+03  0.00000000000E+00 0. -1.
        -11    1    3    3    0    0 -0.64044878377E+03  0.46815320414E+02 -0.28609076903E+03  0.70300373184E+03  0.00000000000E+00 0.  1.
         22    1    1    2    0    0  0.91454311879E+03  0.28750917417E+01  0.96970930278E+03  0.13329416770E+04  0.00000000000E+00 0.  1.
<mgrwt>
<rscale>  0 0.22613769E+04</rscale>
<asrwt>0</asrwt>
<pdfrwt beam="1">  1        2 0.13510362E+00 0.22613769E+04</pdfrwt>
<pdfrwt beam="2">  1       -2 0.22397121E+00 0.22613769E+04</pdfrwt>
<totfact> 0.25736131E+00</totfact>
</mgrwt>
</event>
<event>
 6    1  0.2047711E-005  0.2261933E+04  0.7818608E-02  0.8493084E-01
          1   -1    0    0  501    0  0.00000000000E+00  0.00000000000E+00  0.18933224790E+04  0.18933224790E+04  0.00000000000E+00 0. -1.
         -1   -1    0    0    0  501 -0.00000000000E+00 -0.00000000000E+00 -0.67557683445E+03  0.67557683445E+03  0.00000000000E+00 0.  1.
         23    2    1    2    0    0 -0.16927350839E+03 -0.10955114246E+04  0.36588161019E+03  0.11708753026E+04  0.90999007854E+02 0.  0.
         11    1    3    3    0    0 -0.24720052270E+02 -0.99028496156E+02  0.85000692903E+01  0.10242058003E+03  0.00000000000E+00 0. -1.
        -11    1    3    3    0    0 -0.14455345612E+03 -0.99648292842E+03  0.35738154090E+03  0.10684547225E+04  0.00000000000E+00 0.  1.
         22    1    1    2    0    0  0.16927350839E+03  0.10955114246E+04  0.85186403436E+03  0.13980240109E+04  0.00000000000E+00 0.  1.
<mgrwt>
<rscale>  0 0.22619326E+04</rscale>
<asrwt>0</asrwt>
<pdfrwt beam="1">  1        1 0.29128038E+00 0.22619326E+04</pdfrwt>
<pdfrwt beam="2">  1       -1 0.10393490E+00 0.22619326E+04</pdfrwt>
<totfact> 0.27830301E+00</totfact>
</mgrwt>
</event>
<event>
 6    1  0.2047711E-005  0.2756509E+04  0.7818608E-02  0.8316899E-01
         -2   -1    0    0    0  501 -0.00000000000E+00  0.00000000000E+00  0.13554345731E+04  0.13554345731E+04  0.00000000000E+00 0.  1.
          2   -1    0    0  501    0  0.00000000000E+00 -0.00000000000E+00 -0.14014584658E+04  0.14014584658E+04  0.00000000000E+00 0. -1.
         23    2    1    2    0    0  0.21985005009E+03  0.76940784123E+03 -0.11435240994E+04  0.13986481515E+04  0.90811976877E+02 0.  0.
         13    1    3    3    0    0  0.15544289898E+03  0.50760291596E+03 -0.68358907250E+03  0.86551558922E+03  0.00000000000E+00 0.  1.
        -13    1    3    3    0    0  0.64407151111E+02  0.26180492527E+03 -0.45993502688E+03  0.53313256228E+03  0.00000000000E+00 0. -1.
         22    1    1    2    0    0 -0.21985005009E+03 -0.76940784123E+03  0.10975002067E+04  0.13582448875E+04  0.00000000000E+00 0.  1.
<mgrwt>
<rscale>  0 0.27565088E+04</rscale>
<asrwt>0</asrwt>
<pdfrwt beam="1">  1        2 0.21560899E+00 0.27565088E+04</pdfrwt>
<pdfrwt beam="2">  1       -2 0.20852840E+00 0.27565088E+04</pdfrwt>
<totfact> 0.14762114E+00</totfact>
</mgrwt>
</event>
<event>
 6    1  0.2047711E-005  0.1200883E+04  0.7818608E-02  0.9112084E-01
         -2   -1    0    0    0  501 -0.00000000000E+00  0.00000000000E+00  0.51298209195E+03  0.51298209195E+03  0.00000000000E+00 0.  1.
          2   -1    0    0  501    0  0.00000000000E+00 -0.00000000000E+00 -0.70281207557E+03  0.70281207557E+03  0.00000000000E+00 0. -1.
         23    2    1    2    0    0 -0.33882513982E+03 -0.14527961253E+03 -0.57083063873E+03  0.68563368201E+03  0.91308743272E+02 0.  0.
         13    1    3    3    0    0 -0.61564624260E+02  0.63317311021E+01 -0.69936059714E+02  0.93388148217E+02  0.00000000000E+00 0. -1.
        -13    1    3    3    0    0 -0.27726051556E+03 -0.15161134363E+03 -0.50089457902E+03  0.59224553379E+03  0.00000000000E+00 0.  1.
         22    1    1    2    0    0  0.33882513982E+03  0.14527961253E+03  0.38100065512E+03  0.53016048551E+03  0.00000000000E+00 0.  1.
<mgrwt>
<rscale>  0 0.12008830E+04</rscale>
<asrwt>0</asrwt>
<pdfrwt beam="1">  1        2 0.10812493E+00 0.12008830E+04</pdfrwt>
<pdfrwt beam="2">  1       -2 0.78920322E-01 0.12008830E+04</pdfrwt>
<totfact> 0.57353113E+01</totfact>
</mgrwt>
</event>
<event>
 6    1  0.2047711E-005  0.2510861E+04  0.7818608E-02  0.8399126E-01
          2   -1    0    0  501    0  0.00000000000E+00  0.00000000000E+00  0.12901227949E+04  0.12901227949E+04  0.00000000000E+00 0. -1.
         -2   -1    0    0    0  501 -0.00000000000E+00 -0.00000000000E+00 -0.12216710584E+04  0.12216710584E+04  0.00000000000E+00 0.  1.
         23    2    1    2    0    0 -0.10571498353E+04  0.39911682973E+03 -0.50922101987E+03  0.12427131500E+04  0.90387543926E+02 0.  0.
         13    1    3    3    0    0 -0.32189438809E+03  0.16289349548E+03 -0.14407489357E+03  0.38846861252E+03  0.00000000000E+00 0. -1.
        -13    1    3    3    0    0 -0.73525544718E+03  0.23622333425E+03 -0.36514612630E+03  0.85424453747E+03  0.00000000000E+00 0.  1.
         22    1    1    2    0    0  0.10571498353E+04 -0.39911682973E+03  0.57767275644E+03  0.12690807033E+04  0.00000000000E+00 0. -1.
<mgrwt>
<rscale>  0 0.25108610E+04</rscale>
<asrwt>0</asrwt>
<pdfrwt beam="1">  1        2 0.19848043E+00 0.25108610E+04</pdfrwt>
<pdfrwt beam="2">  1       -2 0.18794939E+00 0.25108610E+04</pdfrwt>
<totfact> 0.23887312E+00</totfact>
</mgrwt>
</event>
<event>
 6    1  0.2047711E-005  0.1769459E+04  0.7818608E-02  0.8722712E-01
          2   -1    0    0  501    0  0.00000000000E+00  0.00000000000E+00  0.19143185106E+04  0.19143185106E+04  0.00000000000E+00 0. -1.
         -2   -1    0    0    0  501 -0.00000000000E+00 -0.00000000000E+00 -0.40889019509E+03  0.40889019509E+03  0.00000000000E+00 0.  1.
         23    2    1    2    0    0 -0.62265690512E+03 -0.58336428547E+03  0.10499922236E+04  0.13560285028E+04  0.91181794349E+02 0.  0.
         11    1    3    3    0    0 -0.34800303970E+03 -0.28201995638E+03  0.60053014290E+03  0.74918477291E+03  0.00000000000E+00 0.  1.
        -11    1    3    3    0    0 -0.27465386542E+03 -0.30134432910E+03  0.44946208074E+03  0.60684372988E+03  0.00000000000E+00 0. -1.
         22    1    1    2    0    0  0.62265690512E+03  0.58336428547E+03  0.45543609184E+03  0.96718020286E+03  0.00000000000E+00 0.  1.
<mgrwt>
<rscale>  0 0.17694588E+04</rscale>
<asrwt>0</asrwt>
<pdfrwt beam="1">  1        2 0.29451053E+00 0.17694588E+04</pdfrwt>
<pdfrwt beam="2">  1       -2 0.62906185E-01 0.17694588E+04</pdfrwt>
<totfact> 0.16523843E+01</totfact>
</mgrwt>
</event>
<event>
 6    1  0.2047711E-005  0.1164775E+04  0.7818608E-02  0.9144260E-01
         -2   -1    0    0    0  501 -0.00000000000E+00  0.00000000000E+00  0.90460581905E+03  0.90460581905E+03  0.00000000000E+00 0. -1.
          2   -1    0    0  501    0  0.00000000000E+00 -0.00000000000E+00 -0.37494266484E+03  0.37494266484E+03  0.00000000000E+00 0.  1.
         23    2    1    2    0    0 -0.17336862381E+03  0.39566536480E+03  0.68968137587E+03  0.81888201899E+03  0.91102141497E+02 0.  0.
         13    1    3    3    0    0 -0.12716223784E+03  0.36231117241E+03  0.61326685118E+03  0.72355777319E+03  0.00000000000E+00 0.  1.
        -13    1    3    3    0    0 -0.46206385975E+02  0.33354192387E+02  0.76414524693E+02  0.95324245807E+02  0.00000000000E+00 0. -1.
         22    1    1    2    0    0  0.17336862381E+03 -0.39566536480E+03 -0.16001822165E+03  0.46066646490E+03  0.00000000000E+00 0.  1.
<mgrwt>
<rscale>  0 0.11647752E+04</rscale>
<asrwt>0</asrwt>
<pdfrwt beam="1">  1        2 0.57683487E-01 0.11647752E+04</pdfrwt>
<pdfrwt beam="2">  1       -2 0.13917013E+00 0.11647752E+04</pdfrwt>
<totfact> 0.30826710E+01</totfact>
</mgrwt>
</event>
<event>
 6    1  0.2280652E-005  0.3260414E+04  0.7818608E-02  0.8173042E-01
          2   -1    0    0  501    0  0.00000000000E+00  0.00000000000E+00  0.21462361899E+04  0.21462361899E+04  0.00000000000E+00 0. -1.
         -2   -1    0    0    0  501 -0.00000000000E+00 -0.00000000000E+00 -0.12382487984E+04  0.12382487984E+04  0.00000000000E+00 0.  1.
         23    2    1    2    0    0  0.10612053139E+04  0.74295548765E+03 -0.57081855035E+03  0.14185229875E+04  0.90741797772E+02 0.  0.
         13    1    3    3    0    0  0.53043009098E+03  0.36161116232E+03 -0.33165133068E+03  0.72257270864E+03  0.00000000000E+00 0.  1.
        -13    1    3    3    0    0  0.53077522291E+03  0.38134432533E+03 -0.23916721966E+03  0.69595027889E+03  0.00000000000E+00 0. -1.
         22    1    1    2    0    0 -0.10612053139E+04 -0.74295548765E+03  0.14788059419E+04  0.19659620008E+04  0.00000000000E+00 0. -1.
<mgrwt>
<rscale>  0 0.32604137E+04</rscale>
<asrwt>0</asrwt>
<pdfrwt beam="1">  1        2 0.33019018E+00 0.32604137E+04</pdfrwt>
<pdfrwt beam="2">  1       -2 0.19049982E+00 0.32604137E+04</pdfrwt>
<totfact> 0.71345364E-01</totfact>
</mgrwt>
</event>
<event>
 6    1  0.2047711E-005  0.2251964E+04  0.7818608E-02  0.8497106E-01
          2   -1    0    0  501    0  0.00000000000E+00  0.00000000000E+00  0.70640802650E+03  0.70640802650E+03  0.00000000000E+00 0. -1.
         -2   -1    0    0    0  501 -0.00000000000E+00 -0.00000000000E+00 -0.17947632504E+04  0.17947632504E+04  0.00000000000E+00 0.  1.
         23    2    1    2    0    0 -0.30192670641E+03 -0.71316132449E+03 -0.14500126918E+04  0.16464462130E+04  0.92138563666E+02 0.  0.
         11    1    3    3    0    0 -0.12492261505E+03 -0.39195864161E+03 -0.71101321123E+03  0.82144812559E+03  0.00000000000E+00 0. -1.
        -11    1    3    3    0    0 -0.17700409135E+03 -0.32120268288E+03 -0.73899948061E+03  0.82499808738E+03  0.00000000000E+00 0.  1.
         22    1    1    2    0    0  0.30192670641E+03  0.71316132449E+03  0.36165746794E+03  0.85472506393E+03  0.00000000000E+00 0. -1.
<mgrwt>
<rscale>  0 0.22519637E+04</rscale>
<asrwt>0</asrwt>
<pdfrwt beam="1">  1        2 0.10867816E+00 0.22519637E+04</pdfrwt>
<pdfrwt beam="2">  1       -2 0.27611742E+00 0.22519637E+04</pdfrwt>
<totfact> 0.16395822E+00</totfact>
</mgrwt>
</event>
<event>
 6    1  0.2047711E-005  0.2764578E+04  0.7818608E-02  0.8314351E-01
         -2   -1    0    0    0  501 -0.00000000000E+00  0.00000000000E+00  0.15697161888E+04  0.15697161888E+04  0.00000000000E+00 0.  1.
          2   -1    0    0  501    0  0.00000000000E+00 -0.00000000000E+00 -0.12172407339E+04  0.12172407339E+04  0.00000000000E+00 0. -1.
         23    2    1    2    0    0 -0.35030110398E+03 -0.13280008213E+04  0.32757733994E+02  0.13768092475E+04  0.90739131600E+02 0.  0.
         13    1    3    3    0    0 -0.88247997036E+02 -0.40710933544E+03 -0.27443540311E+02  0.41746720576E+03  0.00000000000E+00 0.  1.
        -13    1    3    3    0    0 -0.26205310694E+03 -0.92089148587E+03  0.60201274305E+02  0.95934204173E+03  0.00000000000E+00 0. -1.
         22    1    1    2    0    0  0.35030110398E+03  0.13280008213E+04  0.31971772093E+03  0.14101476752E+04  0.00000000000E+00 0.  1.
<mgrwt>
<rscale>  0 0.27645777E+04</rscale>
<asrwt>0</asrwt>
<pdfrwt beam="1">  1        2 0.18726781E+00 0.27645777E+04</pdfrwt>
<pdfrwt beam="2">  1       -2 0.24149480E+00 0.27645777E+04</pdfrwt>
<totfact> 0.11705007E+00</totfact>
</mgrwt>
</event>
<event>
 6    1  0.2047711E-005  0.3174343E+04  0.7818608E-02  0.8195626E-01
          2   -1    0    0  501    0  0.00000000000E+00  0.00000000000E+00  0.19805584789E+04  0.19805584789E+04  0.00000000000E+00 0.  1.
         -2   -1    0    0    0  501 -0.00000000000E+00 -0.00000000000E+00 -0.12719206728E+04  0.12719206728E+04  0.00000000000E+00 0. -1.
         23    2    1    2    0    0  0.13823233212E+04  0.51263899102E+01 -0.44147558151E+03  0.14542564602E+04  0.95483604558E+02 0.  0.
         13    1    3    3    0    0  0.31085162314E+03  0.17569049303E+02 -0.61696196083E+02  0.31740167566E+03  0.00000000000E+00 0. -1.
        -13    1    3    3    0    0  0.10714716980E+04 -0.12442659393E+02 -0.37977938543E+03  0.11368547845E+04  0.00000000000E+00 0.  1.
         22    1    1    2    0    0 -0.13823233212E+04 -0.51263899102E+01  0.11501133876E+04  0.17982226916E+04  0.00000000000E+00 0.  1.
<mgrwt>
<rscale>  0 0.31743429E+04</rscale>
<asrwt>0</asrwt>
<pdfrwt beam="1">  1        2 0.30470130E+00 0.31743429E+04</pdfrwt>
<pdfrwt beam="2">  1       -2 0.19568010E+00 0.31743429E+04</pdfrwt>
<totfact> 0.82102751E-01</totfact>
</mgrwt>
</event>
<event>
 6    1  0.2047711E-005  0.1923276E+04  0.7818608E-02  0.8643356E-01
         -2   -1    0    0    0  501 -0.00000000000E+00  0.00000000000E+00  0.31341437516E+03  0.31341437516E+03  0.00000000000E+00 0. -1.
          2   -1    0    0  501    0  0.00000000000E+00 -0.00000000000E+00 -0.29505589060E+04  0.29505589060E+04  0.00000000000E+00 0.  1.
         23    2    1    2    0    0  0.35288867439E+03  0.46693989107E+03 -0.26118344909E+04  0.26781372320E+04  0.90423156144E+02 0.  0.
         13    1    3    3    0    0  0.85922546255E+02  0.88323576388E+02 -0.71559129719E+03  0.72612302175E+03  0.00000000000E+00 0. -1.
        -13    1    3    3    0    0  0.26696612814E+03  0.37861631468E+03 -0.18962431937E+04  0.19520142103E+04  0.00000000000E+00 0.  1.
         22    1    1    2    0    0 -0.35288867439E+03 -0.46693989107E+03 -0.25310039951E+02  0.58583604917E+03  0.00000000000E+00 0. -1.
<mgrwt>
<rscale>  0 0.19232759E+04</rscale>
<asrwt>0</asrwt>
<pdfrwt beam="1">  1        2 0.45393215E+00 0.19232759E+04</pdfrwt>
<pdfrwt beam="2">  1       -2 0.48217595E-01 0.19232759E+04</pdfrwt>
<totfact> 0.71393231E+00</totfact>
</mgrwt>
</event>
<event>
 6    1  0.2047711E-005  0.1328070E+04  0.7818608E-02  0.9007596E-01
          2   -1    0    0  501    0  0.00000000000E+00  0.00000000000E+00  0.10543826560E+04  0.10543826560E+04  0.00000000000E+00 0. -1.
         -2   -1    0    0    0  501 -0.00000000000E+00 -0.00000000000E+00 -0.41819998150E+03  0.41819998150E+03  0.00000000000E+00 0.  1.
         23    2    1    2    0    0 -0.67402555714E+02  0.47665802984E+03  0.82172990427E+03  0.95666233701E+03  0.90646619171E+02 0.  0.
         13    1    3    3    0    0 -0.40842164151E+02  0.24149386561E+03  0.50522817266E+03  0.56146493741E+03  0.00000000000E+00 0. -1.
        -13    1    3    3    0    0 -0.26560391563E+02  0.23516416423E+03  0.31650173161E+03  0.39519739960E+03  0.00000000000E+00 0.  1.
         22    1    1    2    0    0  0.67402555714E+02 -0.47665802984E+03 -0.18554722981E+03  0.51592030045E+03  0.00000000000E+00 0.  1.
<mgrwt>
<rscale>  0 0.13280705E+04</rscale>
<asrwt>0</asrwt>
<pdfrwt beam="1">  1        2 0.16221272E+00 0.13280705E+04</pdfrwt>
<pdfrwt beam="2">  1       -2 0.64338459E-01 0.13280705E+04</pdfrwt>
<totfact> 0.50789383E+01</totfact>
</mgrwt>
</event>
<event>
 6    1  0.2047711E-005  0.2497900E+04  0.7818608E-02  0.8403734E-01
          2   -1    0    0  501    0  0.00000000000E+00  0.00000000000E+00  0.57336492616E+03  0.57336492616E+03  0.00000000000E+00 0. -1.
         -2   -1    0    0    0  501 -0.00000000000E+00 -0.00000000000E+00 -0.27205633121E+04  0.27205633121E+04  0.00000000000E+00 0.  1.
         23    2    1    2    0    0  0.10275411047E+04 -0.48589320347E+03 -0.39817023227E+03  0.12080153903E+04  0.93961281358E+02 0.  0.
         13    1    3    3    0    0  0.33156005054E+03 -0.19808013963E+03 -0.16069570409E+03  0.41831915823E+03  0.00000000000E+00 0.  1.
        -13    1    3    3    0    0  0.69598105412E+03 -0.28781306384E+03 -0.23747452818E+03  0.78969623207E+03  0.00000000000E+00 0. -1.
         22    1    1    2    0    0 -0.10275411047E+04  0.48589320347E+03 -0.17490281536E+04  0.20859128479E+04  0.00000000000E+00 0.  1.
<mgrwt>
<rscale>  0 0.24978996E+04</rscale>
<asrwt>0</asrwt>
<pdfrwt beam="1">  1        2 0.88209988E-01 0.24978996E+04</pdfrwt>
<pdfrwt beam="2">  1       -2 0.41854821E+00 0.24978996E+04</pdfrwt>
<totfact> 0.26195477E-01</totfact>
</mgrwt>
</event>
<event>
 6    1  0.2047711E-005  0.2018519E+04  0.7818608E-02  0.8598011E-01
         -2   -1    0    0    0  501 -0.00000000000E+00  0.00000000000E+00  0.15087950276E+04  0.15087950276E+04  0.00000000000E+00 0.  1.
          2   -1    0    0  501    0  0.00000000000E+00 -0.00000000000E+00 -0.67511132315E+03  0.67511132315E+03  0.00000000000E+00 0. -1.
         23    2    1    2    0    0  0.28387125304E+03  0.39750883589E+03  0.13710411127E+04  0.14577182573E+04  0.81194962399E+02 0.  0.
         13    1    3    3    0    0  0.13720655652E+03  0.13971594244E+03  0.62188910047E+03  0.65199097924E+03  0.00000000000E+00 0. -1.
        -13    1    3    3    0    0  0.14666469652E+03  0.25779289345E+03  0.74915201222E+03  0.80572727801E+03  0.00000000000E+00 0.  1.
         22    1    1    2    0    0 -0.28387125304E+03 -0.39750883589E+03 -0.53735740826E+03  0.72618809348E+03  0.00000000000E+00 0. -1.
<mgrwt>
<rscale>  0 0.20185189E+04</rscale>
<asrwt>0</asrwt>
<pdfrwt beam="1">  1        2 0.10386328E+00 0.20185189E+04</pdfrwt>
<pdfrwt beam="2">  1       -2 0.23212231E+00 0.20185189E+04</pdfrwt>
<totfact> 0.32977451E+00</totfact>
</mgrwt>
</event>
<event>
 6    1  0.2047711E-005  0.1706495E+04  0.7818608E-02  0.8757669E-01
         -2   -1    0    0    0  501 -0.00000000000E+00  0.00000000000E+00  0.10298983886E+04  0.10298983886E+04  0.00000000000E+00 0.  1.
          2   -1    0    0  501    0  0.00000000000E+00 -0.00000000000E+00 -0.70689645714E+03  0.70689645714E+03  0.00000000000E+00 0. -1.
         23    2    1    2    0    0  0.10754412792E+03  0.17111951658E+03  0.10030503465E+04  0.10273489527E+04  0.92131669269E+02 0.  0.
         13    1    3    3    0    0  0.89081139791E+02  0.59869642632E+02  0.42034058881E+03  0.43382719392E+03  0.00000000000E+00 0. -1.
        -13    1    3    3    0    0  0.18462988133E+02  0.11124987395E+03  0.58270975771E+03  0.59352175875E+03  0.00000000000E+00 0.  1.
         22    1    1    2    0    0 -0.10754412792E+03 -0.17111951658E+03 -0.68004841505E+03  0.70944589309E+03  0.00000000000E+00 0. -1.
<mgrwt>
<rscale>  0 0.17064953E+04</rscale>
<asrwt>0</asrwt>
<pdfrwt beam="1">  1        2 0.10875330E+00 0.17064953E+04</pdfrwt>
<pdfrwt beam="2">  1       -2 0.15844591E+00 0.17064953E+04</pdfrwt>
<totfact> 0.99489538E+00</totfact>
</mgrwt>
</event>
<event>
 6    1  0.2047711E-005  0.9597841E+03  0.7818608E-02  0.9353787E-01
          2   -1    0    0  501    0  0.00000000000E+00  0.00000000000E+00  0.24357154432E+04  0.24357154432E+04  0.00000000000E+00 0. -1.
         -2   -1    0    0    0  501 -0.00000000000E+00 -0.00000000000E+00 -0.94549784379E+02  0.94549784379E+02  0.00000000000E+00 0.  1.
         23    2    1    2    0    0  0.34529869619E+03 -0.27819613319E+03  0.16370766600E+04  0.16981801379E+04  0.84684780914E+02 0.  0.
         13    1    3    3    0    0  0.29097552286E+03 -0.21481367863E+03  0.14271171176E+04  0.14722346752E+04  0.00000000000E+00 0. -1.
        -13    1    3    3    0    0  0.54323173326E+02 -0.63382454560E+02  0.20995954232E+03  0.22594546270E+03  0.00000000000E+00 0.  1.
         22    1    1    2    0    0 -0.34529869619E+03  0.27819613319E+03  0.70408899882E+03  0.83208508962E+03  0.00000000000E+00 0.  1.
<mgrwt>
<rscale>  0 0.95978408E+03</rscale>
<asrwt>0</asrwt>
<pdfrwt beam="1">  1        2 0.37472541E+00 0.95978408E+03</pdfrwt>
<pdfrwt beam="2">  1       -2 0.14546123E-01 0.95978408E+03</pdfrwt>
<totfact> 0.14211808E+02</totfact>
</mgrwt>
</event>
<event>
 6    1  0.2047711E-005  0.1173892E+04  0.7818608E-02  0.9136021E-01
          2   -1    0    0  501    0  0.00000000000E+00  0.00000000000E+00  0.20100267260E+04  0.20100267260E+04  0.00000000000E+00 0. -1.
         -2   -1    0    0    0  501 -0.00000000000E+00 -0.00000000000E+00 -0.17139348016E+03  0.17139348016E+03  0.00000000000E+00 0.  1.
         23    2    1    2    0    0  0.50297923561E+03  0.28672821791E+03  0.10564916428E+04  0.12083083577E+04  0.92915626299E+02 0.  0.
         11    1    3    3    0    0  0.24985562630E+03  0.17654527411E+03  0.48139131227E+03  0.57038027958E+03  0.00000000000E+00 0.  1.
        -11    1    3    3    0    0  0.25312360931E+03  0.11018294380E+03  0.57510033052E+03  0.63792807812E+03  0.00000000000E+00 0. -1.
         22    1    1    2    0    0 -0.50297923561E+03 -0.28672821791E+03  0.78214160306E+03  0.97311184847E+03  0.00000000000E+00 0.  1.
<mgrwt>
<rscale>  0 0.11738918E+04</rscale>
<asrwt>0</asrwt>
<pdfrwt beam="1">  1        2 0.30923486E+00 0.11738918E+04</pdfrwt>
<pdfrwt beam="2">  1       -2 0.26368229E-01 0.11738918E+04</pdfrwt>
<totfact> 0.85006152E+01</totfact>
</mgrwt>
</event>
<event>
 6    1  0.2047711E-005  0.2220351E+04  0.7818608E-02  0.8510005E-01
         -2   -1    0    0    0  501 -0.00000000000E+00  0.00000000000E+00  0.13402276491E+04  0.13402276491E+04  0.00000000000E+00 0.  1.
          2   -1    0    0  501    0  0.00000000000E+00 -0.00000000000E+00 -0.91961187149E+03  0.91961187149E+03  0.00000000000E+00 0. -1.
         23    2    1    2    0    0  0.38951220863E+03 -0.99752943594E+03 -0.80120064748E+02  0.10776715460E+04  0.90399115570E+02 0.  0.
         11    1    3    3    0    0  0.12969654856E+03 -0.27179339776E+03  0.11704510115E+02  0.30137989537E+03  0.00000000000E+00 0.  1.
        -11    1    3    3    0    0  0.25981566007E+03 -0.72573603818E+03 -0.91824574863E+02  0.77629165066E+03  0.00000000000E+00 0. -1.
         22    1    1    2    0    0 -0.38951220863E+03  0.99752943594E+03  0.50073584233E+03  0.11821679745E+04  0.00000000000E+00 0.  1.
<mgrwt>
<rscale>  0 0.22203507E+04</rscale>
<asrwt>0</asrwt>
<pdfrwt beam="1">  1        2 0.14147875E+00 0.22203507E+04</pdfrwt>
<pdfrwt beam="2">  1       -2 0.20618887E+00 0.22203507E+04</pdfrwt>
<totfact> 0.31443254E+00</totfact>
</mgrwt>
</event>
<event>
 6    1  0.2047711E-005  0.1208642E+04  0.7818608E-02  0.9105326E-01
          1   -1    0    0  501    0  0.00000000000E+00  0.00000000000E+00  0.19196274487E+04  0.19196274487E+04  0.00000000000E+00 0. -1.
         -1   -1    0    0    0  501 -0.00000000000E+00 -0.00000000000E+00 -0.19024728531E+03  0.19024728531E+03  0.00000000000E+00 0.  1.
         23    2    1    2    0    0  0.28698546606E+02 -0.54840930869E+03  0.12955122847E+04  0.14100049514E+04  0.90473790663E+02 0.  0.
         13    1    3    3    0    0  0.19252346149E+02 -0.58350655172E+02  0.21319904797E+03  0.22187673570E+03  0.00000000000E+00 0. -1.
        -13    1    3    3    0    0  0.94462004574E+01 -0.49005865352E+03  0.10823132367E+04  0.11881282157E+04  0.00000000000E+00 0.  1.
         22    1    1    2    0    0 -0.28698546606E+02  0.54840930869E+03  0.43386787870E+03  0.69986978260E+03  0.00000000000E+00 0.  1.
<mgrwt>
<rscale>  0 0.12086421E+04</rscale>
<asrwt>0</asrwt>
<pdfrwt beam="1">  1        1 0.29532729E+00 0.12086421E+04</pdfrwt>
<pdfrwt beam="2">  1       -1 0.29268814E-01 0.12086421E+04</pdfrwt>
<totfact> 0.35659227E+01</totfact>
</mgrwt>
</event>
<event>
 6    1  0.2047711E-005  0.2109832E+04  0.7818608E-02  0.8556925E-01
         -2   -1    0    0    0  501 -0.00000000000E+00  0.00000000000E+00  0.48891575339E+03  0.48891575339E+03  0.00000000000E+00 0.  1.
          2   -1    0    0  501    0  0.00000000000E+00 -0.00000000000E+00 -0.22761543814E+04  0.22761543814E+04  0.00000000000E+00 0. -1.
         23    2    1    2    0    0  0.24295066806E+03 -0.35396613576E+03 -0.21553009257E+04  0.21995730903E+04  0.92101285649E+02 0.  0.
         13    1    3    3    0    0  0.16182966215E+03 -0.15763708903E+03 -0.10466933972E+04  0.10707966003E+04  0.00000000000E+00 0. -1.
        -13    1    3    3    0    0  0.81121005911E+02 -0.19632904672E+03 -0.11086075284E+04  0.11287764900E+04  0.00000000000E+00 0.  1.
         22    1    1    2    0    0 -0.24295066806E+03  0.35396613576E+03  0.36806229768E+03  0.56549704451E+03  0.00000000000E+00 0.  1.
<mgrwt>
<rscale>  0 0.21098320E+04</rscale>
<asrwt>0</asrwt>
<pdfrwt beam="1">  1        2 0.35017761E+00 0.21098320E+04</pdfrwt>
<pdfrwt beam="2">  1       -2 0.75217806E-01 0.21098320E+04</pdfrwt>
<totfact> 0.68326495E+00</totfact>
</mgrwt>
</event>
<event>
 6    1  0.2047711E-005  0.3195976E+04  0.7818608E-02  0.8189881E-01
          2   -1    0    0  501    0  0.00000000000E+00  0.00000000000E+00  0.16310413600E+04  0.16310413600E+04  0.00000000000E+00 0. -1.
         -2   -1    0    0    0  501 -0.00000000000E+00 -0.00000000000E+00 -0.15656041987E+04  0.15656041987E+04  0.00000000000E+00 0.  1.
         23    2    1    2    0    0 -0.51953868478E+03  0.15037026790E+04 -0.10250970135E+03  0.15968804696E+04  0.92069557893E+02 0.  0.
         13    1    3    3    0    0 -0.18075204097E+03  0.39761021680E+03 -0.30181506636E+02  0.43780830070E+03  0.00000000000E+00 0.  1.
        -13    1    3    3    0    0 -0.33878664381E+03  0.11060924622E+04 -0.72328194711E+02  0.11590721689E+04  0.00000000000E+00 0. -1.
         22    1    1    2    0    0  0.51953868478E+03 -0.15037026790E+04  0.16794686263E+03  0.15997650892E+04  0.00000000000E+00 0. -1.
<mgrwt>
<rscale>  0 0.31959757E+04</rscale>
<asrwt>0</asrwt>
<pdfrwt beam="1">  1        2 0.25092944E+00 0.31959757E+04</pdfrwt>
<pdfrwt beam="2">  1       -2 0.24086218E+00 0.31959757E+04</pdfrwt>
<totfact> 0.66043703E-01</totfact>
</mgrwt>
</event>
<event>
 6    1  0.2047711E-005  0.1666324E+04  0.7818608E-02  0.8780808E-01
         -2   -1    0    0    0  501 -0.00000000000E+00  0.00000000000E+00  0.33096011873E+03  0.33096011873E+03  0.00000000000E+00 0.  1.
          2   -1    0    0  501    0  0.00000000000E+00 -0.00000000000E+00 -0.20974093164E+04  0.20974093164E+04  0.00000000000E+00 0. -1.
         23    2    1    2    0    0 -0.75891426810E+03 -0.28196972576E+03 -0.11560426581E+04  0.14144394888E+04  0.93523512979E+02 0.  0.
         13    1    3    3    0    0 -0.73896516489E+02 -0.20421593761E+02 -0.16190335564E+03  0.17913802837E+03  0.00000000000E+00 0.  1.
        -13    1    3    3    0    0 -0.68501775161E+03 -0.26154813200E+03 -0.99413930244E+03  0.12353014604E+04  0.00000000000E+00 0. -1.
         22    1    1    2    0    0  0.75891426810E+03  0.28196972576E+03 -0.61040653959E+03  0.10139299464E+04  0.00000000000E+00 0.  1.
<mgrwt>
<rscale>  0 0.16663239E+04</rscale>
<asrwt>0</asrwt>
<pdfrwt beam="1">  1        2 0.32267836E+00 0.16663239E+04</pdfrwt>
<pdfrwt beam="2">  1       -2 0.50916941E-01 0.16663239E+04</pdfrwt>
<totfact> 0.20514550E+01</totfact>
</mgrwt>
</event>
<event>
 6    1  0.2047711E-005  0.1623710E+04  0.7818608E-02  0.8806113E-01
          1   -1    0    0  501    0  0.00000000000E+00  0.00000000000E+00  0.16224185195E+04  0.16224185195E+04  0.00000000000E+00 0. -1.
         -1   -1    0    0    0  501 -0.00000000000E+00 -0.00000000000E+00 -0.40625054125E+03  0.40625054125E+03  0.00000000000E+00 0.  1.
         23    2    1    2    0    0  0.69693961876E+03 -0.19437457954E+03  0.15765735338E+03  0.74650251449E+03  0.94360233673E+02 0.  0.
         11    1    3    3    0    0  0.26425940531E+03 -0.26780662731E+02  0.53308014863E+02  0.27090954512E+03  0.00000000000E+00 0.  1.
        -11    1    3    3    0    0  0.43268021345E+03 -0.16759391681E+03  0.10434933852E+03  0.47559296937E+03  0.00000000000E+00 0. -1.
         22    1    1    2    0    0 -0.69693961876E+03  0.19437457954E+03  0.10585106248E+04  0.12821665462E+04  0.00000000000E+00 0. -1.
<mgrwt>
<rscale>  0 0.16237098E+04</rscale>
<asrwt>0</asrwt>
<pdfrwt beam="1">  1        1 0.24960285E+00 0.16237098E+04</pdfrwt>
<pdfrwt beam="2">  1       -1 0.62500084E-01 0.16237098E+04</pdfrwt>
<totfact> 0.13392084E+01</totfact>
</mgrwt>
</event>
<event>
 6    1  0.2047711E-005  0.3878244E+04  0.7818608E-02  0.8029569E-01
          2   -1    0    0  501    0  0.00000000000E+00  0.00000000000E+00  0.12246884131E+04  0.12246884131E+04  0.00000000000E+00 0. -1.
         -2   -1    0    0    0  501 -0.00000000000E+00 -0.00000000000E+00 -0.30703277542E+04  0.30703277542E+04  0.00000000000E+00 0.  1.
         23    2    1    2    0    0 -0.81089195158E+03 -0.12806307008E+04  0.41415264625E+03  0.15739464190E+04  0.90687191482E+02 0.  0.
         13    1    3    3    0    0 -0.43489303953E+03 -0.63967162987E+03  0.25026272441E+03  0.81298412108E+03  0.00000000000E+00 0.  1.
        -13    1    3    3    0    0 -0.37599891205E+03 -0.64095907090E+03  0.16388992184E+03  0.76096229796E+03  0.00000000000E+00 0. -1.
         22    1    1    2    0    0  0.81089195158E+03  0.12806307008E+04 -0.22597919874E+04  0.27210697483E+04  0.00000000000E+00 0.  1.
<mgrwt>
<rscale>  0 0.38782444E+04</rscale>
<asrwt>0</asrwt>
<pdfrwt beam="1">  1        2 0.18841360E+00 0.38782444E+04</pdfrwt>
<pdfrwt beam="2">  1       -2 0.47235811E+00 0.38782444E+04</pdfrwt>
<totfact> 0.36102565E-02</totfact>
</mgrwt>
</event>
<event>
 6    1  0.2047711E-005  0.2136094E+04  0.7818608E-02  0.8545508E-01
          2   -1    0    0  501    0  0.00000000000E+00  0.00000000000E+00  0.29606674267E+04  0.29606674267E+04  0.00000000000E+00 0. -1.
         -2   -1    0    0    0  501 -0.00000000000E+00 -0.00000000000E+00 -0.38529299857E+03  0.38529299857E+03  0.00000000000E+00 0.  1.
         23    2    1    2    0    0  0.88516228363E+03  0.58794132569E+03  0.11585714758E+04  0.15749387211E+04  0.94640583121E+02 0.  0.
         13    1    3    3    0    0  0.46912316307E+03  0.27145045854E+03  0.54031908608E+03  0.76531471197E+03  0.00000000000E+00 0. -1.
        -13    1    3    3    0    0  0.41603912056E+03  0.31649086715E+03  0.61825238970E+03  0.80962400915E+03  0.00000000000E+00 0.  1.
         22    1    1    2    0    0 -0.88516228363E+03 -0.58794132569E+03  0.14168029524E+04  0.17710217042E+04  0.00000000000E+00 0. -1.
<mgrwt>
<rscale>  0 0.21360940E+04</rscale>
<asrwt>0</asrwt>
<pdfrwt beam="1">  1        2 0.45548728E+00 0.21360940E+04</pdfrwt>
<pdfrwt beam="2">  1       -2 0.59275848E-01 0.21360940E+04</pdfrwt>
<totfact> 0.45052950E+00</totfact>
</mgrwt>
</event>
<event>
 6    1  0.2047711E-005  0.1689549E+04  0.7818608E-02  0.8767347E-01
          2   -1    0    0  501    0  0.00000000000E+00  0.00000000000E+00  0.14654883208E+04  0.14654883208E+04  0.00000000000E+00 0. -1.
         -2   -1    0    0    0  501 -0.00000000000E+00 -0.00000000000E+00 -0.48696680803E+03  0.48696680803E+03  0.00000000000E+00 0.  1.
         23    2    1    2    0    0  0.11767317343E+03 -0.51220067087E+03  0.12513842175E+04  0.13602975833E+04  0.90832552227E+02 0.  0.
         13    1    3    3    0    0 -0.11982445888E+02 -0.10856810168E+03  0.27015796211E+03  0.29140339086E+03  0.00000000000E+00 0. -1.
        -13    1    3    3    0    0  0.12965561932E+03 -0.40363256919E+03  0.98122625535E+03  0.10688941925E+04  0.00000000000E+00 0.  1.
         22    1    1    2    0    0 -0.11767317343E+03  0.51220067087E+03 -0.27286270475E+03  0.59215754544E+03  0.00000000000E+00 0.  1.
<mgrwt>
<rscale>  0 0.16895493E+04</rscale>
<asrwt>0</asrwt>
<pdfrwt beam="1">  1        2 0.22545974E+00 0.16895493E+04</pdfrwt>
<pdfrwt beam="2">  1       -2 0.74917971E-01 0.16895493E+04</pdfrwt>
<totfact> 0.20240605E+01</totfact>
</mgrwt>
</event>
<event>
 6    1  0.2047711E-005  0.3037750E+04  0.7818608E-02  0.8233033E-01
         -2   -1    0    0    0  501 -0.00000000000E+00  0.00000000000E+00  0.95010383207E+03  0.95010383207E+03  0.00000000000E+00 0.  1.
          2   -1    0    0  501    0  0.00000000000E+00 -0.00000000000E+00 -0.24281354980E+04  0.24281354980E+04  0.00000000000E+00 0. -1.
         23    2    1    2    0    0 -0.47399698158E+03 -0.78592503328E+03 -0.20835660505E+04  0.22786834254E+04  0.93804955135E+02 0.  0.
         13    1    3    3    0    0 -0.19528047775E+03 -0.29557169204E+03 -0.91291701806E+03  0.97924183530E+03  0.00000000000E+00 0.  1.
        -13    1    3    3    0    0 -0.27871650382E+03 -0.49035334125E+03 -0.11706490325E+04  0.12994415901E+04  0.00000000000E+00 0. -1.
         22    1    1    2    0    0  0.47399698158E+03  0.78592503328E+03  0.60553438464E+03  0.10995559047E+04  0.00000000000E+00 0.  1.
<mgrwt>
<rscale>  0 0.30377497E+04</rscale>
<asrwt>0</asrwt>
<pdfrwt beam="1">  1        2 0.37355931E+00 0.30377497E+04</pdfrwt>
<pdfrwt beam="2">  1       -2 0.14616982E+00 0.30377497E+04</pdfrwt>
<totfact> 0.10484915E+00</totfact>
</mgrwt>
</event>
<event>
 6    1  0.2047711E-005  0.2955234E+04  0.7818608E-02  0.8256631E-01
          2   -1    0    0  501    0  0.00000000000E+00  0.00000000000E+00  0.14397490042E+04  0.14397490042E+04  0.00000000000E+00 0. -1.
         -2   -1    0    0    0  501 -0.00000000000E+00 -0.00000000000E+00 -0.15164807717E+04  0.15164807717E+04  0.00000000000E+00 0.  1.
         23    2    1    2    0    0  0.25336309657E+02 -0.72460387396E+03  0.12476965273E+04  0.14463281198E+04  0.97086060569E+02 0.  0.
         11    1    3    3    0    0  0.26831862067E+02 -0.10408007903E+03  0.13798557648E+03  0.17490749266E+03  0.00000000000E+00 0. -1.
        -11    1    3    3    0    0 -0.14955524103E+01 -0.62052379492E+03  0.11097109508E+04  0.12714206272E+04  0.00000000000E+00 0.  1.
         22    1    1    2    0    0 -0.25336309657E+02  0.72460387396E+03 -0.13244282948E+04  0.15099016560E+04  0.00000000000E+00 0.  1.
<mgrwt>
<rscale>  0 0.29552338E+04</rscale>
<asrwt>0</asrwt>
<pdfrwt beam="1">  1        2 0.22149985E+00 0.29552338E+04</pdfrwt>
<pdfrwt beam="2">  1       -2 0.23330473E+00 0.29552338E+04</pdfrwt>
<totfact> 0.96199796E-01</totfact>
</mgrwt>
</event>
<event>
 6    1  0.2047711E-005  0.2754835E+04  0.7818608E-02  0.8317429E-01
          2   -1    0    0  501    0  0.00000000000E+00  0.00000000000E+00  0.65795711955E+03  0.65795711955E+03  0.00000000000E+00 0. -1.
         -2   -1    0    0    0  501 -0.00000000000E+00 -0.00000000000E+00 -0.28835905617E+04  0.28835905617E+04  0.00000000000E+00 0.  1.
         23    2    1    2    0    0 -0.39145413449E+03  0.38226703328E+03 -0.27369491218E+04  0.27926764317E+04  0.93737572905E+02 0.  0.
         11    1    3    3    0    0 -0.34155301186E+03  0.31940950005E+03 -0.21501950768E+04  0.22004589878E+04  0.00000000000E+00 0. -1.
        -11    1    3    3    0    0 -0.49901122625E+02  0.62857533233E+02 -0.58675404500E+03  0.59221744389E+03  0.00000000000E+00 0.  1.
         22    1    1    2    0    0  0.39145413449E+03 -0.38226703328E+03  0.51131567967E+03  0.74887124956E+03  0.00000000000E+00 0. -1.
<mgrwt>
<rscale>  0 0.27548350E+04</rscale>
<asrwt>0</asrwt>
<pdfrwt beam="1">  1        2 0.10122417E+00 0.27548350E+04</pdfrwt>
<pdfrwt beam="2">  1       -2 0.44362933E+00 0.27548350E+04</pdfrwt>
<totfact> 0.14776237E-01</totfact>
</mgrwt>
</event>
<event>
 6    1  0.2047711E-005  0.4142465E+04  0.7818608E-02  0.7976408E-01
         -2   -1    0    0    0  501 -0.00000000000E+00  0.00000000000E+00  0.97481281110E+03  0.97481281110E+03  0.00000000000E+00 0.  1.
          2   -1    0    0  501    0  0.00000000000E+00 -0.00000000000E+00 -0.44008485196E+04  0.44008485196E+04  0.00000000000E+00 0. -1.
         23    2    1    2    0    0  0.11392367765E+04  0.16858250395E+04 -0.22095168748E+04  0.30050528498E+04  0.92256780945E+02 0.  0.
         13    1    3    3    0    0  0.62664126477E+03  0.95453541027E+03 -0.13032755620E+04  0.17327274207E+04  0.00000000000E+00 0.  1.
        -13    1    3    3    0    0  0.51259551177E+03  0.73128962922E+03 -0.90624131280E+03  0.12723254291E+04  0.00000000000E+00 0. -1.
         22    1    1    2    0    0 -0.11392367765E+04 -0.16858250395E+04 -0.12165188337E+04  0.23706084809E+04  0.00000000000E+00 0.  1.
<mgrwt>
<rscale>  0 0.41424647E+04</rscale>
<asrwt>0</asrwt>
<pdfrwt beam="1">  1        2 0.67705363E+00 0.41424647E+04</pdfrwt>
<pdfrwt beam="2">  1       -2 0.14997120E+00 0.41424647E+04</pdfrwt>
<totfact> 0.35575217E-02</totfact>
</mgrwt>
</event>
<event>
 6    1  0.2047711E-005  0.2657919E+04  0.7818608E-02  0.8348789E-01
          2   -1    0    0  501    0  0.00000000000E+00  0.00000000000E+00  0.29188324980E+04  0.29188324980E+04  0.00000000000E+00 0.  1.
         -2   -1    0    0    0  501 -0.00000000000E+00 -0.00000000000E+00 -0.60508198536E+03  0.60508198536E+03  0.00000000000E+00 0. -1.
         23    2    1    2    0    0 -0.58073984689E+03 -0.11762129857E+04  0.14279705629E+04  0.19410873049E+04  0.89354571179E+02 0.  0.
         11    1    3    3    0    0 -0.26208311524E+03 -0.53630359166E+03  0.71567937874E+03  0.93193673330E+03  0.00000000000E+00 0.  1.
        -11    1    3    3    0    0 -0.31865673164E+03 -0.63990939403E+03  0.71229118417E+03  0.10091505716E+04  0.00000000000E+00 0. -1.
         22    1    1    2    0    0  0.58073984689E+03  0.11762129857E+04  0.88577994977E+03  0.15828271785E+04  0.00000000000E+00 0. -1.
<mgrwt>
<rscale>  0 0.26579187E+04</rscale>
<asrwt>0</asrwt>
<pdfrwt beam="1">  1        2 0.44905115E+00 0.26579187E+04</pdfrwt>
<pdfrwt beam="2">  1       -2 0.93089537E-01 0.26579187E+04</pdfrwt>
<totfact> 0.16823818E+00</totfact>
</mgrwt>
</event>
<event>
 6    1  0.2047711E-005  0.1799731E+04  0.7818608E-02  0.8706443E-01
          2   -1    0    0  501    0  0.00000000000E+00  0.00000000000E+00  0.85560658045E+03  0.85560658045E+03  0.00000000000E+00 0. -1.
         -2   -1    0    0    0  501 -0.00000000000E+00 -0.00000000000E+00 -0.94641376526E+03  0.94641376526E+03  0.00000000000E+00 0.  1.
         23    2    1    2    0    0  0.23789398003E+02  0.88790917574E+03  0.83746778679E+02  0.89680339602E+03  0.91072324858E+02 0.  0.
         13    1    3    3    0    0 -0.24235901106E+02  0.48668938164E+03  0.19830589255E+02  0.48769579183E+03  0.00000000000E+00 0. -1.
        -13    1    3    3    0    0  0.48025299110E+02  0.40121979410E+03  0.63916189424E+02  0.40910760419E+03  0.00000000000E+00 0.  1.
         22    1    1    2    0    0 -0.23789398003E+02 -0.88790917574E+03 -0.17455396349E+03  0.90521694968E+03  0.00000000000E+00 0.  1.
<mgrwt>
<rscale>  0 0.17997309E+04</rscale>
<asrwt>0</asrwt>
<pdfrwt beam="1">  1        2 0.13163178E+00 0.17997309E+04</pdfrwt>
<pdfrwt beam="2">  1       -2 0.14560212E+00 0.17997309E+04</pdfrwt>
<totfact> 0.96225199E+00</totfact>
</mgrwt>
</event>
<event>
 6    1  0.2047711E-005  0.1851342E+04  0.7818608E-02  0.8679463E-01
          2   -1    0    0  501    0  0.00000000000E+00  0.00000000000E+00  0.84051938308E+03  0.84051938308E+03  0.00000000000E+00 0. -1.
         -2   -1    0    0    0  501 -0.00000000000E+00 -0.00000000000E+00 -0.10194493331E+04  0.10194493331E+04  0.00000000000E+00 0.  1.
         23    2    1    2    0    0 -0.27039536099E+03 -0.46613412068E+03  0.66378521189E+03  0.85968699896E+03  0.89756665219E+02 0.  0.
         11    1    3    3    0    0 -0.16675761534E+03 -0.36238520897E+03  0.46497347431E+03  0.61264302312E+03  0.00000000000E+00 0. -1.
        -11    1    3    3    0    0 -0.10363774565E+03 -0.10374891171E+03  0.19881173758E+03  0.24704397584E+03  0.00000000000E+00 0.  1.
         22    1    1    2    0    0  0.27039536099E+03  0.46613412068E+03 -0.84271516196E+03  0.10002817173E+04  0.00000000000E+00 0.  1.
<mgrwt>
<rscale>  0 0.18513421E+04</rscale>
<asrwt>0</asrwt>
<pdfrwt beam="1">  1        2 0.12931067E+00 0.18513421E+04</pdfrwt>
<pdfrwt beam="2">  1       -2 0.15683836E+00 0.18513421E+04</pdfrwt>
<totfact> 0.80548298E+00</totfact>
</mgrwt>
</event>
<event>
 6    1  0.2047711E-005  0.2387955E+04  0.7818608E-02  0.8444027E-01
         -2   -1    0    0    0  501 -0.00000000000E+00  0.00000000000E+00  0.84542227253E+03  0.84542227253E+03  0.00000000000E+00 0.  1.
          2   -1    0    0  501    0  0.00000000000E+00 -0.00000000000E+00 -0.16862366008E+04  0.16862366008E+04  0.00000000000E+00 0. -1.
         23    2    1    2    0    0 -0.47863335489E+03  0.93194647665E+03 -0.10242147840E+04  0.14680565742E+04  0.92520578007E+02 0.  0.
         13    1    3    3    0    0 -0.13275400096E+03  0.33531139690E+03 -0.31526615510E+03  0.47900950535E+03  0.00000000000E+00 0. -1.
        -13    1    3    3    0    0 -0.34587935394E+03  0.59663507974E+03 -0.70894862892E+03  0.98904706881E+03  0.00000000000E+00 0.  1.
         22    1    1    2    0    0  0.47863335489E+03 -0.93194647665E+03  0.18340045572E+03  0.10636022992E+04  0.00000000000E+00 0.  1.
<mgrwt>
<rscale>  0 0.23879548E+04</rscale>
<asrwt>0</asrwt>
<pdfrwt beam="1">  1        2 0.25942101E+00 0.23879548E+04</pdfrwt>
<pdfrwt beam="2">  1       -2 0.13006497E+00 0.23879548E+04</pdfrwt>
<totfact> 0.38976103E+00</totfact>
</mgrwt>
</event>
<event>
 6    1  0.2047711E-005  0.1488946E+04  0.7818608E-02  0.8891837E-01
         -2   -1    0    0    0  501 -0.00000000000E+00  0.00000000000E+00  0.16328238672E+04  0.16328238672E+04  0.00000000000E+00 0.  1.
          2   -1    0    0  501    0  0.00000000000E+00 -0.00000000000E+00 -0.33943667956E+03  0.33943667956E+03  0.00000000000E+00 0. -1.
         23    2    1    2    0    0  0.37647744676E+03  0.56852267773E+03  0.10363132064E+04  0.12435354032E+04  0.86498174909E+02 0.  0.
         13    1    3    3    0    0  0.17729835992E+03  0.21012704330E+03  0.36595624461E+03  0.45772486902E+03  0.00000000000E+00 0. -1.
        -13    1    3    3    0    0  0.19917908684E+03  0.35839563442E+03  0.67035696176E+03  0.78581053415E+03  0.00000000000E+00 0.  1.
         22    1    1    2    0    0 -0.37647744676E+03 -0.56852267773E+03  0.25707398123E+03  0.72872514354E+03  0.00000000000E+00 0. -1.
<mgrwt>
<rscale>  0 0.14889464E+04</rscale>
<asrwt>0</asrwt>
<pdfrwt beam="1">  1        2 0.52221029E-01 0.14889464E+04</pdfrwt>
<pdfrwt beam="2">  1       -2 0.25120367E+00 0.14889464E+04</pdfrwt>
<totfact> 0.58467221E+00</totfact>
</mgrwt>
</event>
<event>
 6    1  0.2047711E-005  0.2182115E+04  0.7818608E-02  0.8525909E-01
          2   -1    0    0  501    0  0.00000000000E+00  0.00000000000E+00  0.33461110985E+04  0.33461110985E+04  0.00000000000E+00 0. -1.
         -2   -1    0    0    0  501 -0.00000000000E+00 -0.00000000000E+00 -0.35575818747E+03  0.35575818747E+03  0.00000000000E+00 0.  1.
         23    2    1    2    0    0 -0.24146425568E+03  0.85069102814E+03  0.25765546909E+04  0.27255449653E+04  0.89336837895E+02 0.  0.
         11    1    3    3    0    0 -0.12194015649E+03  0.58319123415E+03  0.17319707877E+04  0.18315851677E+04  0.00000000000E+00 0.  1.
        -11    1    3    3    0    0 -0.11952409920E+03  0.26749979399E+03  0.84458390325E+03  0.89395979759E+03  0.00000000000E+00 0. -1.
         22    1    1    2    0    0  0.24146425568E+03 -0.85069102814E+03  0.41379822014E+03  0.97632432066E+03  0.00000000000E+00 0.  1.
<mgrwt>
<rscale>  0 0.21821150E+04</rscale>
<asrwt>0</asrwt>
<pdfrwt beam="1">  1        2 0.51478630E+00 0.21821150E+04</pdfrwt>
<pdfrwt beam="2">  1       -2 0.54732031E-01 0.21821150E+04</pdfrwt>
<totfact> 0.29904626E+00</totfact>
</mgrwt>
</event>
<event>
 6    1  0.2234990E-005  0.2024359E+04  0.7818608E-02  0.8595316E-01
          2   -1    0    0  501    0  0.00000000000E+00  0.00000000000E+00  0.94474105284E+03  0.94474105284E+03  0.00000000000E+00 0. -1.
         -2   -1    0    0    0  501 -0.00000000000E+00 -0.00000000000E+00 -0.10844317430E+04  0.10844317430E+04  0.00000000000E+00 0.  1.
         23    2    1    2    0    0  0.43200245569E+03  0.91205342622E+03 -0.11271811159E+03  0.10196208685E+04  0.91944379296E+02 0.  0.
         11    1    3    3    0    0  0.23523756115E+03  0.46603912481E+03 -0.10258381499E+03  0.53202689323E+03  0.00000000000E+00 0. -1.
        -11    1    3    3    0    0  0.19676489454E+03  0.44601430141E+03 -0.10134296596E+02  0.48759397531E+03  0.00000000000E+00 0.  1.
         22    1    1    2    0    0 -0.43200245569E+03 -0.91205342622E+03 -0.26972578611E+02  0.10095519273E+04  0.00000000000E+00 0.  1.
<mgrwt>
<rscale>  0 0.20243588E+04</rscale>
<asrwt>0</asrwt>
<pdfrwt beam="1">  1        2 0.14534478E+00 0.20243588E+04</pdfrwt>
<pdfrwt beam="2">  1       -2 0.16683565E+00 0.20243588E+04</pdfrwt>
<totfact> 0.56968474E+00</totfact>
</mgrwt>
</event>
<event>
 6    1  0.2047711E-005  0.5757409E+04  0.7818608E-02  0.7721230E-01
          2   -1    0    0  501    0  0.00000000000E+00  0.00000000000E+00  0.33507542441E+04  0.33507542441E+04  0.00000000000E+00 0. -1.
         -2   -1    0    0    0  501 -0.00000000000E+00 -0.00000000000E+00 -0.24731562691E+04  0.24731562691E+04  0.00000000000E+00 0.  1.
         23    2    1    2    0    0 -0.21252802382E+04  0.46411575398E+03  0.23449897036E+04  0.31998948866E+04  0.90172340497E+02 0.  0.
         11    1    3    3    0    0 -0.59649026404E+03  0.16682985682E+03  0.69602633775E+03  0.93171105985E+03  0.00000000000E+00 0.  1.
        -11    1    3    3    0    0 -0.15287899742E+04  0.29728589716E+03  0.16489633659E+04  0.22681838267E+04  0.00000000000E+00 0. -1.
         22    1    1    2    0    0  0.21252802382E+04 -0.46411575398E+03 -0.14673917286E+04  0.26240156267E+04  0.00000000000E+00 0.  1.
<mgrwt>
<rscale>  0 0.57574087E+04</rscale>
<asrwt>0</asrwt>
<pdfrwt beam="1">  1        2 0.51550065E+00 0.57574087E+04</pdfrwt>
<pdfrwt beam="2">  1       -2 0.38048558E+00 0.57574087E+04</pdfrwt>
<totfact> 0.70140550E-03</totfact>
</mgrwt>
</event>
<event>
 6    1  0.2047711E-005  0.4737728E+04  0.7818608E-02  0.7870290E-01
          2   -1    0    0  501    0  0.00000000000E+00  0.00000000000E+00  0.25041562731E+04  0.25041562731E+04  0.00000000000E+00 0. -1.
         -2   -1    0    0    0  501 -0.00000000000E+00 -0.00000000000E+00 -0.22408812505E+04  0.22408812505E+04  0.00000000000E+00 0.  1.
         23    2    1    2    0    0 -0.12037874805E+04 -0.77252874109E+03 -0.17583692950E+04  0.22685580263E+04  0.92671390917E+02 0.  0.
         13    1    3    3    0    0 -0.41049319742E+03 -0.22905923797E+03 -0.62950700644E+03  0.78565378558E+03  0.00000000000E+00 0.  1.
        -13    1    3    3    0    0 -0.79329428308E+03 -0.54346950312E+03 -0.11288622886E+04  0.14829042407E+04  0.00000000000E+00 0. -1.
         22    1    1    2    0    0  0.12037874805E+04  0.77252874109E+03  0.20216443176E+04  0.24764794974E+04  0.00000000000E+00 0. -1.
<mgrwt>
<rscale>  0 0.47377281E+04</rscale>
<asrwt>0</asrwt>
<pdfrwt beam="1">  1        2 0.38525481E+00 0.47377281E+04</pdfrwt>
<pdfrwt beam="2">  1       -2 0.34475096E+00 0.47377281E+04</pdfrwt>
<totfact> 0.43202433E-02</totfact>
</mgrwt>
</event>
<event>
 6    1  0.2047711E-005  0.1981667E+04  0.7818608E-02  0.8615240E-01
          2   -1    0    0  501    0  0.00000000000E+00  0.00000000000E+00  0.23160311165E+04  0.23160311165E+04  0.00000000000E+00 0. -1.
         -2   -1    0    0    0  501 -0.00000000000E+00 -0.00000000000E+00 -0.42389386529E+03  0.42389386529E+03  0.00000000000E+00 0.  1.
         23    2    1    2    0    0 -0.40983477446E+03 -0.87260703985E+03  0.64444216807E+03  0.11631717960E+04  0.90858850585E+02 0.  0.
         13    1    3    3    0    0 -0.17555190583E+03 -0.34211470888E+03  0.30840408202E+03  0.49292395304E+03  0.00000000000E+00 0.  1.
        -13    1    3    3    0    0 -0.23428286863E+03 -0.53049233097E+03  0.33603808605E+03  0.67024784299E+03  0.00000000000E+00 0. -1.
         22    1    1    2    0    0  0.40983477446E+03  0.87260703985E+03  0.12476950831E+04  0.15767531858E+04  0.00000000000E+00 0.  1.
<mgrwt>
<rscale>  0 0.19816674E+04</rscale>
<asrwt>0</asrwt>
<pdfrwt beam="1">  1        2 0.35631247E+00 0.19816674E+04</pdfrwt>
<pdfrwt beam="2">  1       -2 0.65214442E-01 0.19816674E+04</pdfrwt>
<totfact> 0.89560286E+00</totfact>
</mgrwt>
</event>
<event>
 6    1  0.2047711E-005  0.3103942E+04  0.7818608E-02  0.8214657E-01
         -2   -1    0    0    0  501 -0.00000000000E+00  0.00000000000E+00  0.15376167259E+04  0.15376167259E+04  0.00000000000E+00 0. -1.
          2   -1    0    0  501    0  0.00000000000E+00 -0.00000000000E+00 -0.15664595712E+04  0.15664595712E+04  0.00000000000E+00 0.  1.
         23    2    1    2    0    0  0.87963846913E+03 -0.11290329956E+04 -0.61167313843E+03  0.15587056322E+04  0.83305930633E+02 0.  0.
         13    1    3    3    0    0  0.70487502724E+03 -0.95076019676E+03 -0.48976879483E+03  0.12808853298E+04  0.00000000000E+00 0. -1.
        -13    1    3    3    0    0  0.17476344189E+03 -0.17827279880E+03 -0.12190434360E+03  0.27782030236E+03  0.00000000000E+00 0.  1.
         22    1    1    2    0    0 -0.87963846913E+03  0.11290329956E+04  0.58283029307E+03  0.15453706649E+04  0.00000000000E+00 0.  1.
<mgrwt>
<rscale>  0 0.31039423E+04</rscale>
<asrwt>0</asrwt>
<pdfrwt beam="1">  1        2 0.24099378E+00 0.31039423E+04</pdfrwt>
<pdfrwt beam="2">  1       -2 0.23655642E+00 0.31039423E+04</pdfrwt>
<totfact> 0.76913320E-01</totfact>
</mgrwt>
</event>
<event>
 6    1  0.2047711E-005  0.2319016E+04  0.7818608E-02  0.8470461E-01
          2   -1    0    0  501    0  0.00000000000E+00  0.00000000000E+00  0.21987001335E+04  0.21987001335E+04  0.00000000000E+00 0. -1.
         -2   -1    0    0    0  501 -0.00000000000E+00 -0.00000000000E+00 -0.61147870226E+03  0.61147870226E+03  0.00000000000E+00 0.  1.
         23    2    1    2    0    0  0.78275344079E+03  0.48102248984E+03  0.16473405558E+04  0.18894726427E+04  0.11086196736E+03 0.  0.
         13    1    3    3    0    0  0.34968011876E+03  0.26415382470E+03  0.85646803138E+03  0.96207635733E+03  0.00000000000E+00 0. -1.
        -13    1    3    3    0    0  0.43307332203E+03  0.21686866514E+03  0.79087252443E+03  0.92739628534E+03  0.00000000000E+00 0.  1.
         22    1    1    2    0    0 -0.78275344079E+03 -0.48102248984E+03 -0.60119124588E+02  0.92070619306E+03  0.00000000000E+00 0.  1.
<mgrwt>
<rscale>  0 0.23190156E+04</rscale>
<asrwt>0</asrwt>
<pdfrwt beam="1">  1        2 0.33826156E+00 0.23190156E+04</pdfrwt>
<pdfrwt beam="2">  1       -2 0.94073647E-01 0.23190156E+04</pdfrwt>
<totfact> 0.44643341E+00</totfact>
</mgrwt>
</event>
<event>
 6    1  0.2047711E-005  0.8031562E+03  0.7818608E-02  0.9555460E-01
          1   -1    0    0  501    0  0.00000000000E+00  0.00000000000E+00  0.35775043140E+03  0.35775043140E+03  0.00000000000E+00 0. -1.
         -1   -1    0    0    0  501 -0.00000000000E+00 -0.00000000000E+00 -0.45077507501E+03  0.45077507501E+03  0.00000000000E+00 0.  1.
         23    2    1    2    0    0 -0.80819401264E+02  0.25743423070E+03 -0.33905839832E+03  0.44337243274E+03  0.93884811814E+02 0.  0.
         11    1    3    3    0    0 -0.25979818729E+02  0.14814734701E+03 -0.11965534075E+03  0.19219778349E+03  0.00000000000E+00 0.  1.
        -11    1    3    3    0    0 -0.54839582535E+02  0.10928688369E+03 -0.21940305757E+03  0.25117464926E+03  0.00000000000E+00 0. -1.
         22    1    1    2    0    0  0.80819401264E+02 -0.25743423070E+03  0.24603375471E+03  0.36515307367E+03  0.00000000000E+00 0. -1.
<mgrwt>
<rscale>  0 0.80315622E+03</rscale>
<asrwt>0</asrwt>
<pdfrwt beam="1">  1        1 0.55038528E-01 0.80315622E+03</pdfrwt>
<pdfrwt beam="2">  1       -1 0.69350011E-01 0.80315622E+03</pdfrwt>
<totfact> 0.14813292E+02</totfact>
</mgrwt>
</event>
<event>
 6    1  0.2047711E-005  0.2307976E+04  0.7818608E-02  0.8474783E-01
          2   -1    0    0  501    0  0.00000000000E+00  0.00000000000E+00  0.18509303676E+04  0.18509303676E+04  0.00000000000E+00 0. -1.
         -2   -1    0    0    0  501 -0.00000000000E+00 -0.00000000000E+00 -0.71946969729E+03  0.71946969729E+03  0.00000000000E+00 0.  1.
         23    2    1    2    0    0  0.10786720553E+04  0.36281808478E+03  0.76554131549E+03  0.13749640190E+04  0.96447821442E+02 0.  0.
         11    1    3    3    0    0  0.66771914865E+03  0.23878717945E+03  0.53016034774E+03  0.88540283084E+03  0.00000000000E+00 0.  1.
        -11    1    3    3    0    0  0.41095290666E+03  0.12403090533E+03  0.23538096775E+03  0.48956118816E+03  0.00000000000E+00 0. -1.
         22    1    1    2    0    0 -0.10786720553E+04 -0.36281808478E+03  0.36591935481E+03  0.11954360459E+04  0.00000000000E+00 0.  1.
<mgrwt>
<rscale>  0 0.23079760E+04</rscale>
<asrwt>0</asrwt>
<pdfrwt beam="1">  1        2 0.28475852E+00 0.23079760E+04</pdfrwt>
<pdfrwt beam="2">  1       -2 0.11068765E+00 0.23079760E+04</pdfrwt>
<totfact> 0.47407012E+00</totfact>
</mgrwt>
</event>
<event>
 6    1  0.2047711E-005  0.2549220E+04  0.7818608E-02  0.8385657E-01
          1   -1    0    0  501    0  0.00000000000E+00  0.00000000000E+00  0.14431879864E+04  0.14431879864E+04  0.00000000000E+00 0. -1.
         -1   -1    0    0    0  501 -0.00000000000E+00 -0.00000000000E+00 -0.11257236716E+04  0.11257236716E+04  0.00000000000E+00 0.  1.
         23    2    1    2    0    0 -0.30974288496E+03 -0.12302819354E+04  0.26417171915E+03  0.12991186055E+04  0.91586890910E+02 0.  0.
         11    1    3    3    0    0 -0.20913706116E+01 -0.11543642654E+03  0.24930633210E+02  0.11811637852E+03  0.00000000000E+00 0.  1.
        -11    1    3    3    0    0 -0.30765151435E+03 -0.11148455089E+04  0.23924108594E+03  0.11810022270E+04  0.00000000000E+00 0. -1.
         22    1    1    2    0    0  0.30974288496E+03  0.12302819354E+04  0.53292595690E+02  0.12697930525E+04  0.00000000000E+00 0. -1.
<mgrwt>
<rscale>  0 0.25492202E+04</rscale>
<asrwt>0</asrwt>
<pdfrwt beam="1">  1        1 0.22202892E+00 0.25492202E+04</pdfrwt>
<pdfrwt beam="2">  1       -1 0.17318826E+00 0.25492202E+04</pdfrwt>
<totfact> 0.14781541E+00</totfact>
</mgrwt>
</event>
<event>
 6    1  0.2047711E-005  0.3595399E+04  0.7818608E-02  0.8091546E-01
          2   -1    0    0  501    0  0.00000000000E+00  0.00000000000E+00  0.27092859530E+04  0.27092859530E+04  0.00000000000E+00 0.  1.
         -2   -1    0    0    0  501 -0.00000000000E+00 -0.00000000000E+00 -0.11928324605E+04  0.11928324605E+04  0.00000000000E+00 0. -1.
         23    2    1    2    0    0  0.98810132708E+03 -0.12616306486E+03  0.23813372276E+04  0.25829197072E+04  0.91901416937E+02 0.  0.
         11    1    3    3    0    0  0.32143291837E+03 -0.26566415089E+02  0.66912232806E+03  0.74279848232E+03  0.00000000000E+00 0. -1.
        -11    1    3    3    0    0  0.66666840871E+03 -0.99596649768E+02  0.17122148996E+04  0.18401212249E+04  0.00000000000E+00 0.  1.
         22    1    1    2    0    0 -0.98810132708E+03  0.12616306486E+03 -0.86488373509E+03  0.13191987063E+04  0.00000000000E+00 0. -1.
<mgrwt>
<rscale>  0 0.35953994E+04</rscale>
<asrwt>0</asrwt>
<pdfrwt beam="1">  1        2 0.41681322E+00 0.35953994E+04</pdfrwt>
<pdfrwt beam="2">  1       -2 0.18351269E+00 0.35953994E+04</pdfrwt>
<totfact> 0.36654276E-01</totfact>
</mgrwt>
</event>
<event>
 6    1  0.2047711E-005  0.2318795E+04  0.7818608E-02  0.8470547E-01
          1   -1    0    0  501    0  0.00000000000E+00  0.00000000000E+00  0.23372941854E+04  0.23372941854E+04  0.00000000000E+00 0. -1.
         -1   -1    0    0    0  501 -0.00000000000E+00 -0.00000000000E+00 -0.57511077847E+03  0.57511077847E+03  0.00000000000E+00 0.  1.
         23    2    1    2    0    0 -0.82347456162E+02  0.60125316289E+03  0.21207148278E+04  0.22075423892E+04  0.86749928005E+02 0.  0.
         11    1    3    3    0    0 -0.81561412321E+02  0.54935550170E+03  0.18369531670E+04  0.19190728671E+04  0.00000000000E+00 0. -1.
        -11    1    3    3    0    0 -0.78604384069E+00  0.51897661183E+02  0.28376166074E+03  0.28846952215E+03  0.00000000000E+00 0.  1.
         22    1    1    2    0    0  0.82347456162E+02 -0.60125316289E+03 -0.35853142084E+03  0.70486257465E+03  0.00000000000E+00 0.  1.
<mgrwt>
<rscale>  0 0.23187954E+04</rscale>
<asrwt>0</asrwt>
<pdfrwt beam="1">  1        1 0.35958372E+00 0.23187954E+04</pdfrwt>
<pdfrwt beam="2">  1       -1 0.88478583E-01 0.23187954E+04</pdfrwt>
<totfact> 0.19855667E+00</totfact>
</mgrwt>
</event>
<event>
 6    1  0.2047711E-005  0.1366157E+04  0.7818608E-02  0.8978687E-01
          2   -1    0    0  501    0  0.00000000000E+00  0.00000000000E+00  0.12647833454E+04  0.12647833454E+04  0.00000000000E+00 0. -1.
         -2   -1    0    0    0  501 -0.00000000000E+00 -0.00000000000E+00 -0.36891376514E+03  0.36891376514E+03  0.00000000000E+00 0.  1.
         23    2    1    2    0    0 -0.28585726331E+03  0.24323574125E+01 -0.28809473006E+03  0.41571033743E+03  0.89978996507E+02 0.  0.
         11    1    3    3    0    0 -0.19612254291E+03  0.43077828946E+02 -0.20305404837E+03  0.28557082789E+03  0.00000000000E+00 0. -1.
        -11    1    3    3    0    0 -0.89734720399E+02 -0.40645471533E+02 -0.85040681687E+02  0.13013950954E+03  0.00000000000E+00 0.  1.
         22    1    1    2    0    0  0.28585726331E+03 -0.24323574125E+01  0.11839643103E+04  0.12179867731E+04  0.00000000000E+00 0. -1.
<mgrwt>
<rscale>  0 0.13661566E+04</rscale>
<asrwt>0</asrwt>
<pdfrwt beam="1">  1        2 0.19458205E+00 0.13661566E+04</pdfrwt>
<pdfrwt beam="2">  1       -2 0.56755964E-01 0.13661566E+04</pdfrwt>
<totfact> 0.49241001E+01</totfact>
</mgrwt>
</event>
<event>
 6    1  0.2047711E-005  0.3402428E+04  0.7818608E-02  0.8137311E-01
          2   -1    0    0  501    0  0.00000000000E+00  0.00000000000E+00  0.15767548998E+04  0.15767548998E+04  0.00000000000E+00 0. -1.
         -2   -1    0    0    0  501 -0.00000000000E+00 -0.00000000000E+00 -0.18354968846E+04  0.18354968846E+04  0.00000000000E+00 0.  1.
         23    2    1    2    0    0  0.58668530349E+03 -0.62428294780E+03  0.13432054682E+04  0.15956162991E+04  0.88665663236E+02 0.  0.
         13    1    3    3    0    0  0.37263294544E+03 -0.37106445691E+03  0.74923747175E+03  0.91536928738E+03  0.00000000000E+00 0.  1.
        -13    1    3    3    0    0  0.21405235806E+03 -0.25321849089E+03  0.59396799643E+03  0.68024701168E+03  0.00000000000E+00 0. -1.
         22    1    1    2    0    0 -0.58668530349E+03  0.62428294780E+03 -0.16019474530E+04  0.18166354853E+04  0.00000000000E+00 0.  1.
<mgrwt>
<rscale>  0 0.34024278E+04</rscale>
<asrwt>0</asrwt>
<pdfrwt beam="1">  1        2 0.24257768E+00 0.34024278E+04</pdfrwt>
<pdfrwt beam="2">  1       -2 0.28238414E+00 0.34024278E+04</pdfrwt>
<totfact> 0.38761687E-01</totfact>
</mgrwt>
</event>
<event>
 6    1  0.2047711E-005  0.1292828E+04  0.7818608E-02  0.9035272E-01
          2   -1    0    0  501    0  0.00000000000E+00  0.00000000000E+00  0.26278399334E+04  0.26278399334E+04  0.00000000000E+00 0. -1.
         -2   -1    0    0    0  501 -0.00000000000E+00 -0.00000000000E+00 -0.15900932591E+03  0.15900932591E+03  0.00000000000E+00 0.  1.
         23    2    1    2    0    0  0.27719146955E+03 -0.44112381224E+03  0.20536965547E+04  0.21206949151E+04  0.90840825852E+02 0.  0.
         13    1    3    3    0    0  0.22406592451E+02 -0.33414467005E+02  0.28478491593E+03  0.28761263938E+03  0.00000000000E+00 0. -1.
        -13    1    3    3    0    0  0.25478487710E+03 -0.40770934524E+03  0.17689116388E+04  0.18330822758E+04  0.00000000000E+00 0.  1.
         22    1    1    2    0    0 -0.27719146955E+03  0.44112381224E+03  0.41513405279E+03  0.66615434421E+03  0.00000000000E+00 0.  1.
<mgrwt>
<rscale>  0 0.12928280E+04</rscale>
<asrwt>0</asrwt>
<pdfrwt beam="1">  1        2 0.40428303E+00 0.12928280E+04</pdfrwt>
<pdfrwt beam="2">  1       -2 0.24462975E-01 0.12928280E+04</pdfrwt>
<totfact> 0.43155970E+01</totfact>
</mgrwt>
</event>
<event>
 6    1  0.2047711E-005  0.2272418E+04  0.7818608E-02  0.8488876E-01
         -2   -1    0    0    0  501 -0.00000000000E+00  0.00000000000E+00  0.63053568265E+03  0.63053568265E+03  0.00000000000E+00 0.  1.
          2   -1    0    0  501    0  0.00000000000E+00 -0.00000000000E+00 -0.20474196286E+04  0.20474196286E+04  0.00000000000E+00 0. -1.
         23    2    1    2    0    0  0.74532388872E+03  0.71440973103E+03 -0.15416405729E+03  0.10468972252E+04  0.79613319576E+02 0.  0.
         11    1    3    3    0    0  0.50103474209E+03  0.45425329793E+03 -0.13405219702E+03  0.68945765859E+03  0.00000000000E+00 0. -1.
        -11    1    3    3    0    0  0.24428914663E+03  0.26015643310E+03 -0.20111860265E+02  0.35743956660E+03  0.00000000000E+00 0.  1.
         22    1    1    2    0    0 -0.74532388872E+03 -0.71440973103E+03 -0.12627198887E+04  0.16310580861E+04  0.00000000000E+00 0. -1.
<mgrwt>
<rscale>  0 0.22724182E+04</rscale>
<asrwt>0</asrwt>
<pdfrwt beam="1">  1        2 0.31498764E+00 0.22724182E+04</pdfrwt>
<pdfrwt beam="2">  1       -2 0.97005490E-01 0.22724182E+04</pdfrwt>
<totfact> 0.50692008E+00</totfact>
</mgrwt>
</event>
<event>
 6    1  0.2047711E-005  0.2666542E+04  0.7818608E-02  0.8345943E-01
          2   -1    0    0  501    0  0.00000000000E+00  0.00000000000E+00  0.12283821377E+04  0.12283821377E+04  0.00000000000E+00 0. -1.
         -2   -1    0    0    0  501 -0.00000000000E+00 -0.00000000000E+00 -0.14471156991E+04  0.14471156991E+04  0.00000000000E+00 0.  1.
         23    2    1    2    0    0 -0.10626071101E+04  0.24377107736E+03 -0.87708023488E+03  0.14019286196E+04  0.87039688523E+02 0.  0.
         11    1    3    3    0    0 -0.28058833193E+03  0.72700906670E+02 -0.18618004145E+03  0.34449708516E+03  0.00000000000E+00 0. -1.
        -11    1    3    3    0    0 -0.78201877821E+03  0.17107017069E+03 -0.69090019342E+03  0.10574315344E+04  0.00000000000E+00 0.  1.
         22    1    1    2    0    0  0.10626071101E+04 -0.24377107736E+03  0.65834667343E+03  0.12735692172E+04  0.00000000000E+00 0. -1.
<mgrwt>
<rscale>  0 0.26665416E+04</rscale>
<asrwt>0</asrwt>
<pdfrwt beam="1">  1        2 0.18898187E+00 0.26665416E+04</pdfrwt>
<pdfrwt beam="2">  1       -2 0.22263318E+00 0.26665416E+04</pdfrwt>
<totfact> 0.15242773E+00</totfact>
</mgrwt>
</event>
<event>
 6    1  0.2047711E-005  0.1928182E+04  0.7818608E-02  0.8640954E-01
         -2   -1    0    0    0  501 -0.00000000000E+00  0.00000000000E+00  0.11088013591E+04  0.11088013591E+04  0.00000000000E+00 0.  1.
          2   -1    0    0  501    0  0.00000000000E+00 -0.00000000000E+00 -0.83826700344E+03  0.83826700344E+03  0.00000000000E+00 0. -1.
         23    2    1    2    0    0 -0.77312755046E+03  0.21214766002E+03 -0.40127156952E+03  0.90109702448E+03  0.90687022691E+02 0.  0.
         11    1    3    3    0    0 -0.49382603499E+03  0.12281767926E+03 -0.20709959136E+03  0.54939837634E+03  0.00000000000E+00 0. -1.
        -11    1    3    3    0    0 -0.27930151547E+03  0.89329980760E+02 -0.19417197816E+03  0.35169864814E+03  0.00000000000E+00 0.  1.
         22    1    1    2    0    0  0.77312755046E+03 -0.21214766002E+03  0.67180592518E+03  0.10459713381E+04  0.00000000000E+00 0.  1.
<mgrwt>
<rscale>  0 0.19281821E+04</rscale>
<asrwt>0</asrwt>
<pdfrwt beam="1">  1        2 0.12896415E+00 0.19281821E+04</pdfrwt>
<pdfrwt beam="2">  1       -2 0.17058483E+00 0.19281821E+04</pdfrwt>
<totfact> 0.63779631E+00</totfact>
</mgrwt>
</event>
<event>
 6    1  0.2047711E-005  0.7128415E+03  0.7818608E-02  0.9695520E-01
          1   -1    0    0  501    0  0.00000000000E+00  0.00000000000E+00  0.16829708530E+04  0.16829708530E+04  0.00000000000E+00 0. -1.
         -1   -1    0    0    0  501 -0.00000000000E+00 -0.00000000000E+00 -0.75483034788E+02  0.75483034788E+02  0.00000000000E+00 0.  1.
         23    2    1    2    0    0  0.26557612657E+03  0.50455036236E+02  0.26494419681E+03  0.38896501779E+03  0.89565439519E+02 0.  0.
         13    1    3    3    0    0  0.24196578553E+03  0.60271016950E+02  0.20161624563E+03  0.32066984167E+03  0.00000000000E+00 0.  1.
        -13    1    3    3    0    0  0.23610341039E+02 -0.98159807139E+01  0.63327951180E+02  0.68295176125E+02  0.00000000000E+00 0. -1.
         22    1    1    2    0    0 -0.26557612657E+03 -0.50455036236E+02  0.13425436214E+04  0.13694888700E+04  0.00000000000E+00 0. -1.
<mgrwt>
<rscale>  0 0.71284149E+03</rscale>
<asrwt>0</asrwt>
<pdfrwt beam="1">  1        1 0.25891856E+00 0.71284149E+03</pdfrwt>
<pdfrwt beam="2">  1       -1 0.11612776E-01 0.71284149E+03</pdfrwt>
<totfact> 0.24946627E+02</totfact>
</mgrwt>
</event>
<event>
 6    1  0.2047711E-005  0.2283365E+04  0.7818608E-02  0.8484509E-01
          2   -1    0    0  501    0  0.00000000000E+00  0.00000000000E+00  0.16090588804E+04  0.16090588804E+04  0.00000000000E+00 0. -1.
         -2   -1    0    0    0  501 -0.00000000000E+00 -0.00000000000E+00 -0.81006283233E+03  0.81006283233E+03  0.00000000000E+00 0.  1.
         23    2    1    2    0    0 -0.36713197078E+02  0.66869795520E+03  0.13771841983E+04  0.15343582691E+04  0.95468151666E+02 0.  0.
         11    1    3    3    0    0 -0.35163325622E+02  0.14505769641E+03  0.37511252556E+03  0.40371722974E+03  0.00000000000E+00 0.  1.
        -11    1    3    3    0    0 -0.15498714556E+01  0.52364025879E+03  0.10020716727E+04  0.11306410394E+04  0.00000000000E+00 0. -1.
         22    1    1    2    0    0  0.36713197078E+02 -0.66869795520E+03 -0.57818815019E+03  0.88476344361E+03  0.00000000000E+00 0.  1.
<mgrwt>
<rscale>  0 0.22833649E+04</rscale>
<asrwt>0</asrwt>
<pdfrwt beam="1">  1        2 0.24754752E+00 0.22833649E+04</pdfrwt>
<pdfrwt beam="2">  1       -2 0.12462505E+00 0.22833649E+04</pdfrwt>
<totfact> 0.48350658E+00</totfact>
</mgrwt>
</event>
<event>
 6    1  0.2047711E-005  0.3890186E+04  0.7818608E-02  0.8027073E-01
         -2   -1    0    0    0  501 -0.00000000000E+00  0.00000000000E+00  0.12261949059E+04  0.12261949059E+04  0.00000000000E+00 0.  1.
          2   -1    0    0  501    0  0.00000000000E+00 -0.00000000000E+00 -0.30854689339E+04  0.30854689339E+04  0.00000000000E+00 0. -1.
         23    2    1    2    0    0 -0.55981736582E+03 -0.32526894940E+03  0.11015120689E+04  0.12809131599E+04  0.90632846942E+02 0.  0.
         13    1    3    3    0    0 -0.12809047841E+03 -0.37947469789E+02  0.26312332223E+03  0.29509500813E+03  0.00000000000E+00 0.  1.
        -13    1    3    3    0    0 -0.43172688741E+03 -0.28732147962E+03  0.83838874662E+03  0.98581815180E+03  0.00000000000E+00 0. -1.
         22    1    1    2    0    0  0.55981736582E+03  0.32526894940E+03 -0.29607860969E+04  0.30307506799E+04  0.00000000000E+00 0. -1.
<mgrwt>
<rscale>  0 0.38901857E+04</rscale>
<asrwt>0</asrwt>
<pdfrwt beam="1">  1        2 0.47468753E+00 0.38901857E+04</pdfrwt>
<pdfrwt beam="2">  1       -2 0.18864537E+00 0.38901857E+04</pdfrwt>
<totfact> 0.19353024E-01</totfact>
</mgrwt>
</event>
<event>
 6    1  0.2047711E-005  0.2071541E+04  0.7818608E-02  0.8573885E-01
          1   -1    0    0  501    0  0.00000000000E+00  0.00000000000E+00  0.89688911733E+03  0.89688911733E+03  0.00000000000E+00 0. -1.
         -1   -1    0    0    0  501 -0.00000000000E+00 -0.00000000000E+00 -0.11961569011E+04  0.11961569011E+04  0.00000000000E+00 0.  1.
         23    2    1    2    0    0  0.87846367052E+03 -0.18798002711E+02  0.40045560665E+03  0.96980757159E+03  0.90056913660E+02 0.  0.
         13    1    3    3    0    0  0.71391740919E+03  0.15476702246E+02  0.34290383918E+03  0.79214937883E+03  0.00000000000E+00 0. -1.
        -13    1    3    3    0    0  0.16454626132E+03 -0.34274704957E+02  0.57551767462E+02  0.17765819276E+03  0.00000000000E+00 0.  1.
         22    1    1    2    0    0 -0.87846367052E+03  0.18798002711E+02 -0.69972339037E+03  0.11232384468E+04  0.00000000000E+00 0.  1.
<mgrwt>
<rscale>  0 0.20715406E+04</rscale>
<asrwt>0</asrwt>
<pdfrwt beam="1">  1        1 0.13798294E+00 0.20715406E+04</pdfrwt>
<pdfrwt beam="2">  1       -1 0.18402414E+00 0.20715406E+04</pdfrwt>
<totfact> 0.32865378E+00</totfact>
</mgrwt>
</event>
<event>
 6    1  0.2047711E-005  0.2099242E+04  0.7818608E-02  0.8561578E-01
          2   -1    0    0  501    0  0.00000000000E+00  0.00000000000E+00  0.11968994128E+04  0.11968994128E+04  0.00000000000E+00 0. -1.
         -2   -1    0    0    0  501 -0.00000000000E+00 -0.00000000000E+00 -0.92046480397E+03  0.92046480397E+03  0.00000000000E+00 0.  1.
         23    2    1    2    0    0  0.61349352565E+03  0.52483867252E+03  0.81171661444E+03  0.11486760504E+04  0.93503306528E+02 0.  0.
         13    1    3    3    0    0  0.17757986745E+03  0.16140695178E+03  0.30294172260E+03  0.38647186275E+03  0.00000000000E+00 0. -1.
        -13    1    3    3    0    0  0.43591365820E+03  0.36343172074E+03  0.50877489184E+03  0.76220418761E+03  0.00000000000E+00 0.  1.
         22    1    1    2    0    0 -0.61349352565E+03 -0.52483867252E+03 -0.53528200561E+03  0.96868816640E+03  0.00000000000E+00 0.  1.
<mgrwt>
<rscale>  0 0.20992416E+04</rscale>
<asrwt>0</asrwt>
<pdfrwt beam="1">  1        2 0.18413837E+00 0.20992416E+04</pdfrwt>
<pdfrwt beam="2">  1       -2 0.14160997E+00 0.20992416E+04</pdfrwt>
<totfact> 0.61121941E+00</totfact>
</mgrwt>
</event>
<event>
 6    1  0.2047711E-005  0.1634298E+04  0.7818608E-02  0.8799750E-01
          2   -1    0    0  501    0  0.00000000000E+00  0.00000000000E+00  0.21831129363E+04  0.21831129363E+04  0.00000000000E+00 0.  1.
         -2   -1    0    0    0  501 -0.00000000000E+00 -0.00000000000E+00 -0.30586252494E+03  0.30586252494E+03  0.00000000000E+00 0. -1.
         23    2    1    2    0    0  0.68265491344E+03 -0.43990351073E+03  0.84051232108E+03  0.11720249316E+04  0.87456554323E+02 0.  0.
         11    1    3    3    0    0  0.60348904807E+03 -0.37903712584E+03  0.77360084260E+03  0.10518205349E+04  0.00000000000E+00 0. -1.
        -11    1    3    3    0    0  0.79165865365E+02 -0.60866384886E+02  0.66911478474E+02  0.12020439676E+03  0.00000000000E+00 0.  1.
         22    1    1    2    0    0 -0.68265491344E+03  0.43990351073E+03  0.10367380902E+04  0.13169505296E+04  0.00000000000E+00 0.  1.
<mgrwt>
<rscale>  0 0.16342979E+04</rscale>
<asrwt>0</asrwt>
<pdfrwt beam="1">  1        2 0.33586352E+00 0.16342979E+04</pdfrwt>
<pdfrwt beam="2">  1       -2 0.47055774E-01 0.16342979E+04</pdfrwt>
<totfact> 0.21622763E+01</totfact>
</mgrwt>
</event>
<event>
 6    1  0.2047711E-005  0.2411096E+04  0.7818608E-02  0.8435361E-01
         -2   -1    0    0    0  501 -0.00000000000E+00  0.00000000000E+00  0.11405028100E+04  0.11405028100E+04  0.00000000000E+00 0.  1.
          2   -1    0    0  501    0  0.00000000000E+00 -0.00000000000E+00 -0.12743026652E+04  0.12743026652E+04  0.00000000000E+00 0. -1.
         23    2    1    2    0    0  0.23533457914E+03 -0.47108426943E+03  0.10171738057E+04  0.11490870542E+04  0.91955175026E+02 0.  0.
         11    1    3    3    0    0 -0.50797300761E+01 -0.39717430202E+02  0.62032309574E+02  0.73832820281E+02  0.00000000000E+00 0.  1.
        -11    1    3    3    0    0  0.24041430921E+03 -0.43136683923E+03  0.95514149608E+03  0.10752542339E+04  0.00000000000E+00 0. -1.
         22    1    1    2    0    0 -0.23533457914E+03  0.47108426943E+03 -0.11509736609E+04  0.12657184210E+04  0.00000000000E+00 0. -1.
<mgrwt>
<rscale>  0 0.24110958E+04</rscale>
<asrwt>0</asrwt>
<pdfrwt beam="1">  1        2 0.19604656E+00 0.24110958E+04</pdfrwt>
<pdfrwt beam="2">  1       -2 0.17546197E+00 0.24110958E+04</pdfrwt>
<totfact> 0.29986985E+00</totfact>
</mgrwt>
</event>
<event>
 6    1  0.2047711E-005  0.1169642E+04  0.7818608E-02  0.9139852E-01
         -2   -1    0    0    0  501 -0.00000000000E+00  0.00000000000E+00  0.13504291699E+03  0.13504291699E+03  0.00000000000E+00 0.  1.
          2   -1    0    0  501    0  0.00000000000E+00 -0.00000000000E+00 -0.25326449144E+04  0.25326449144E+04  0.00000000000E+00 0. -1.
         23    2    1    2    0    0 -0.20009357729E+03 -0.24098021276E+03 -0.23229300620E+04  0.23456865883E+04  0.90180901136E+02 0.  0.
         11    1    3    3    0    0 -0.14614120420E+03 -0.11531723458E+03 -0.11781075048E+04  0.11927248673E+04  0.00000000000E+00 0. -1.
        -11    1    3    3    0    0 -0.53952373085E+02 -0.12566297819E+03 -0.11448225572E+04  0.11529617210E+04  0.00000000000E+00 0.  1.
         22    1    1    2    0    0  0.20009357729E+03  0.24098021276E+03 -0.74671935402E+02  0.32200124309E+03  0.00000000000E+00 0.  1.
<mgrwt>
<rscale>  0 0.11696423E+04</rscale>
<asrwt>0</asrwt>
<pdfrwt beam="1">  1        2 0.38963767E+00 0.11696423E+04</pdfrwt>
<pdfrwt beam="2">  1       -2 0.20775834E-01 0.11696423E+04</pdfrwt>
<totfact> 0.66344671E+01</totfact>
</mgrwt>
</event>
<event>
 6    1  0.2047711E-005  0.1008482E+04  0.7818608E-02  0.9299290E-01
         -2   -1    0    0    0  501 -0.00000000000E+00  0.00000000000E+00  0.25527476917E+03  0.25527476917E+03  0.00000000000E+00 0.  1.
          2   -1    0    0  501    0  0.00000000000E+00 -0.00000000000E+00 -0.99602145003E+03  0.99602145003E+03  0.00000000000E+00 0. -1.
         23    2    1    2    0    0 -0.34047116017E+03 -0.28599746694E+03 -0.89474439128E+02  0.46270843407E+03  0.91532823099E+02 0.  0.
         13    1    3    3    0    0 -0.20863170917E+03 -0.22819300166E+03 -0.74007529696E+02  0.31792507062E+03  0.00000000000E+00 0.  1.
        -13    1    3    3    0    0 -0.13183945100E+03 -0.57804465279E+02 -0.15466909432E+02  0.14478336345E+03  0.00000000000E+00 0. -1.
         22    1    1    2    0    0  0.34047116017E+03  0.28599746694E+03 -0.65127224174E+03  0.78858778513E+03  0.00000000000E+00 0. -1.
<mgrwt>
<rscale>  0 0.10084823E+04</rscale>
<asrwt>0</asrwt>
<pdfrwt beam="1">  1        2 0.15323407E+00 0.10084823E+04</pdfrwt>
<pdfrwt beam="2">  1       -2 0.39273042E-01 0.10084823E+04</pdfrwt>
<totfact> 0.15486813E+02</totfact>
</mgrwt>
</event>
<event>
 6    1  0.2047711E-005  0.1662242E+04  0.7818608E-02  0.8783197E-01
         -2   -1    0    0    0  501 -0.00000000000E+00  0.00000000000E+00  0.54351301578E+03  0.54351301578E+03  0.00000000000E+00 0.  1.
          2   -1    0    0  501    0  0.00000000000E+00 -0.00000000000E+00 -0.12709211570E+04  0.12709211570E+04  0.00000000000E+00 0. -1.
         23    2    1    2    0    0 -0.69023664259E+03 -0.31572193600E+02  0.13428145305E+03  0.70992868025E+03  0.92432657796E+02 0.  0.
         11    1    3    3    0    0 -0.50908899272E+03 -0.63430605434E+02  0.10554043077E+03  0.52376886767E+03  0.00000000000E+00 0.  1.
        -11    1    3    3    0    0 -0.18114764987E+03  0.31858411834E+02  0.28741022273E+02  0.18615981258E+03  0.00000000000E+00 0. -1.
         22    1    1    2    0    0  0.69023664259E+03  0.31572193600E+02 -0.86168959430E+03  0.11045054926E+04  0.00000000000E+00 0. -1.
<mgrwt>
<rscale>  0 0.16622421E+04</rscale>
<asrwt>0</asrwt>
<pdfrwt beam="1">  1        2 0.19552633E+00 0.16622421E+04</pdfrwt>
<pdfrwt beam="2">  1       -2 0.83617389E-01 0.16622421E+04</pdfrwt>
<totfact> 0.20523890E+01</totfact>
</mgrwt>
</event>
<event>
 6    1  0.2047711E-005  0.1886806E+04  0.7818608E-02  0.8661452E-01
          2   -1    0    0  501    0  0.00000000000E+00  0.00000000000E+00  0.29201423694E+04  0.29201423694E+04  0.00000000000E+00 0. -1.
         -2   -1    0    0    0  501 -0.00000000000E+00 -0.00000000000E+00 -0.30478271915E+03  0.30478271915E+03  0.00000000000E+00 0.  1.
         23    2    1    2    0    0  0.30142841679E+03 -0.33401101962E+03 -0.10229549504E+03  0.47027956863E+03  0.90972812902E+02 0.  0.
         13    1    3    3    0    0  0.11490532315E+02 -0.43418942088E+01 -0.20200187116E+02  0.23641741427E+02  0.00000000000E+00 0.  1.
        -13    1    3    3    0    0  0.28993788447E+03 -0.32966912541E+03 -0.82095307927E+02  0.44663782720E+03  0.00000000000E+00 0. -1.
         22    1    1    2    0    0 -0.30142841679E+03  0.33401101962E+03  0.27176551453E+04  0.27546455199E+04  0.00000000000E+00 0. -1.
<mgrwt>
<rscale>  0 0.18868057E+04</rscale>
<asrwt>0</asrwt>
<pdfrwt beam="1">  1        2 0.44925265E+00 0.18868057E+04</pdfrwt>
<pdfrwt beam="2">  1       -2 0.46889651E-01 0.18868057E+04</pdfrwt>
<totfact> 0.79131972E+00</totfact>
</mgrwt>
</event>
<event>
 6    1  0.2047711E-005  0.1650647E+04  0.7818608E-02  0.8790024E-01
          1   -1    0    0  501    0  0.00000000000E+00  0.00000000000E+00  0.24110503054E+04  0.24110503054E+04  0.00000000000E+00 0. -1.
         -1   -1    0    0    0  501 -0.00000000000E+00 -0.00000000000E+00 -0.28251544533E+03  0.28251544533E+03  0.00000000000E+00 0.  1.
         23    2    1    2    0    0  0.28698016773E+03  0.55816093260E+03  0.19929325167E+03  0.66480395424E+03  0.91352362068E+02 0.  0.
         11    1    3    3    0    0  0.26145057505E+03  0.43089933685E+03  0.14866694620E+03  0.52548311351E+03  0.00000000000E+00 0. -1.
        -11    1    3    3    0    0  0.25529592683E+02  0.12726159575E+03  0.50626305472E+02  0.13932084073E+03  0.00000000000E+00 0.  1.
         22    1    1    2    0    0 -0.28698016773E+03 -0.55816093260E+03  0.19292416084E+04  0.20287617965E+04  0.00000000000E+00 0. -1.
<mgrwt>
<rscale>  0 0.16506471E+04</rscale>
<asrwt>0</asrwt>
<pdfrwt beam="1">  1        1 0.37093080E+00 0.16506471E+04</pdfrwt>
<pdfrwt beam="2">  1       -1 0.43463916E-01 0.16506471E+04</pdfrwt>
<totfact> 0.78051303E+00</totfact>
</mgrwt>
</event>
<event>
 6    1  0.2047711E-005  0.8391707E+04  0.7818608E-02  0.7448784E-01
         -2   -1    0    0    0  501 -0.00000000000E+00  0.00000000000E+00  0.37670898166E+04  0.37670898166E+04  0.00000000000E+00 0.  1.
          2   -1    0    0  501    0  0.00000000000E+00 -0.00000000000E+00 -0.46734185216E+04  0.46734185216E+04  0.00000000000E+00 0. -1.
         23    2    1    2    0    0 -0.31177863990E+04  0.16017167970E+04 -0.27719581034E+04  0.44697827395E+04  0.95484471275E+02 0.  0.
         11    1    3    3    0    0 -0.12360233036E+04  0.59924995977E+03 -0.10427749335E+04  0.17245966726E+04  0.00000000000E+00 0. -1.
        -11    1    3    3    0    0 -0.18817630954E+04  0.10024668372E+04 -0.17291831699E+04  0.27451860669E+04  0.00000000000E+00 0.  1.
         22    1    1    2    0    0  0.31177863990E+04 -0.16017167970E+04  0.18656293984E+04  0.39707255986E+04  0.00000000000E+00 0.  1.
<mgrwt>
<rscale>  0 0.83917072E+04</rscale>
<asrwt>0</asrwt>
<pdfrwt beam="1">  1        2 0.71898746E+00 0.83917072E+04</pdfrwt>
<pdfrwt beam="2">  1       -2 0.57955228E+00 0.83917072E+04</pdfrwt>
<totfact> 0.28971635E-05</totfact>
</mgrwt>
</event>
<event>
 6    1  0.2047711E-005  0.4376497E+04  0.7818608E-02  0.7932623E-01
          2   -1    0    0  501    0  0.00000000000E+00  0.00000000000E+00  0.19205988442E+04  0.19205988442E+04  0.00000000000E+00 0. -1.
         -2   -1    0    0    0  501 -0.00000000000E+00 -0.00000000000E+00 -0.24931970022E+04  0.24931970022E+04  0.00000000000E+00 0.  1.
         23    2    1    2    0    0  0.59203947241E+03  0.17913901028E+04  0.82965065078E+03  0.20630744765E+04  0.91470518123E+02 0.  0.
         13    1    3    3    0    0  0.24248577205E+03  0.60516337714E+03  0.30417047273E+03  0.71940373863E+03  0.00000000000E+00 0. -1.
        -13    1    3    3    0    0  0.34955370036E+03  0.11862267257E+04  0.52548017804E+03  0.13436707378E+04  0.00000000000E+00 0.  1.
         22    1    1    2    0    0 -0.59203947241E+03 -0.17913901028E+04 -0.14022488087E+04  0.23507213699E+04  0.00000000000E+00 0.  1.
<mgrwt>
<rscale>  0 0.43764969E+04</rscale>
<asrwt>0</asrwt>
<pdfrwt beam="1">  1        2 0.29547674E+00 0.43764969E+04</pdfrwt>
<pdfrwt beam="2">  1       -2 0.38356877E+00 0.43764969E+04</pdfrwt>
<totfact> 0.53733998E-02</totfact>
</mgrwt>
</event>
<event>
 6    1  0.2047711E-005  0.3623065E+04  0.7818608E-02  0.8085229E-01
         -1   -1    0    0    0  501 -0.00000000000E+00  0.00000000000E+00  0.27837129244E+04  0.27837129244E+04  0.00000000000E+00 0.  1.
          1   -1    0    0  501    0  0.00000000000E+00 -0.00000000000E+00 -0.11788748685E+04  0.11788748685E+04  0.00000000000E+00 0. -1.
         23    2    1    2    0    0  0.67306651970E+03 -0.16419850453E+04  0.11946521857E+04  0.21412185615E+04  0.92139318552E+02 0.  0.
         13    1    3    3    0    0  0.64781724075E+03 -0.15551174674E+04  0.11542501481E+04  0.20421437068E+04  0.00000000000E+00 0.  1.
        -13    1    3    3    0    0  0.25249278951E+02 -0.86867577897E+02  0.40402037675E+02  0.99074854658E+02  0.00000000000E+00 0. -1.
         22    1    1    2    0    0 -0.67306651970E+03  0.16419850453E+04  0.41018587019E+03  0.18213692314E+04  0.00000000000E+00 0.  1.
<mgrwt>
<rscale>  0 0.36230646E+04</rscale>
<asrwt>0</asrwt>
<pdfrwt beam="1">  1        1 0.18136537E+00 0.36230646E+04</pdfrwt>
<pdfrwt beam="2">  1       -1 0.42826352E+00 0.36230646E+04</pdfrwt>
<totfact> 0.40852531E-02</totfact>
</mgrwt>
</event>
<event>
 6    1  0.2047711E-005  0.1142927E+04  0.7818608E-02  0.9164333E-01
          2   -1    0    0  501    0  0.00000000000E+00  0.00000000000E+00  0.80645514411E+03  0.80645514411E+03  0.00000000000E+00 0. -1.
         -2   -1    0    0    0  501 -0.00000000000E+00 -0.00000000000E+00 -0.40494583429E+03  0.40494583429E+03  0.00000000000E+00 0.  1.
         23    2    1    2    0    0 -0.51889065810E+03  0.22925422931E+03  0.17317945916E+03  0.59989501978E+03  0.89877099203E+02 0.  0.
         11    1    3    3    0    0 -0.19003260309E+03  0.92269498122E+02  0.20274655307E+02  0.21221949055E+03  0.00000000000E+00 0. -1.
        -11    1    3    3    0    0 -0.32885805501E+03  0.13698473119E+03  0.15290480385E+03  0.38767552923E+03  0.00000000000E+00 0.  1.
         22    1    1    2    0    0  0.51889065810E+03 -0.22925422931E+03  0.22832985067E+03  0.61150595862E+03  0.00000000000E+00 0. -1.
<mgrwt>
<rscale>  0 0.11429272E+04</rscale>
<asrwt>0</asrwt>
<pdfrwt beam="1">  1        2 0.12407002E+00 0.11429272E+04</pdfrwt>
<pdfrwt beam="2">  1       -2 0.62299359E-01 0.11429272E+04</pdfrwt>
<totfact> 0.80720920E+01</totfact>
</mgrwt>
</event>
<event>
 6    1  0.2047711E-005  0.3305128E+04  0.7818608E-02  0.8161592E-01
         -2   -1    0    0    0  501 -0.00000000000E+00  0.00000000000E+00  0.14940734972E+04  0.14940734972E+04  0.00000000000E+00 0.  1.
          2   -1    0    0  501    0  0.00000000000E+00 -0.00000000000E+00 -0.18278666452E+04  0.18278666452E+04  0.00000000000E+00 0. -1.
         23    2    1    2    0    0 -0.74490164096E+03 -0.10819979060E+04 -0.11726595453E+04  0.17633206391E+04  0.92581551402E+02 0.  0.
         11    1    3    3    0    0 -0.61603460645E+03 -0.83757946417E+03 -0.95166079693E+03  0.14095021346E+04  0.00000000000E+00 0. -1.
        -11    1    3    3    0    0 -0.12886703451E+03 -0.24441844183E+03 -0.22099874842E+03  0.35381850445E+03  0.00000000000E+00 0.  1.
         22    1    1    2    0    0  0.74490164096E+03  0.10819979060E+04  0.83886639738E+03  0.15586195033E+04  0.00000000000E+00 0.  1.
<mgrwt>
<rscale>  0 0.33051276E+04</rscale>
<asrwt>0</asrwt>
<pdfrwt beam="1">  1        2 0.28121025E+00 0.33051276E+04</pdfrwt>
<pdfrwt beam="2">  1       -2 0.22985746E+00 0.33051276E+04</pdfrwt>
<totfact> 0.59563292E-01</totfact>
</mgrwt>
</event>
<event>
 6    1  0.2047711E-005  0.2861972E+04  0.7818608E-02  0.8284283E-01
          2   -1    0    0  501    0  0.00000000000E+00  0.00000000000E+00  0.39942133326E+04  0.39942133326E+04  0.00000000000E+00 0. -1.
         -2   -1    0    0    0  501 -0.00000000000E+00 -0.00000000000E+00 -0.51267172887E+03  0.51267172887E+03  0.00000000000E+00 0.  1.
         23    2    1    2    0    0  0.70575029990E+03  0.31384826281E+03  0.36367938077E+04  0.37190478545E+04  0.91997423444E+02 0.  0.
         13    1    3    3    0    0  0.23934750903E+03  0.12687841068E+03  0.14701123768E+04  0.14948631247E+04  0.00000000000E+00 0. -1.
        -13    1    3    3    0    0  0.46640279087E+03  0.18696985213E+03  0.21666814310E+04  0.22241847298E+04  0.00000000000E+00 0.  1.
         22    1    1    2    0    0 -0.70575029990E+03 -0.31384826281E+03 -0.15525220402E+03  0.78783720700E+03  0.00000000000E+00 0.  1.
<mgrwt>
<rscale>  0 0.28619715E+04</rscale>
<asrwt>0</asrwt>
<pdfrwt beam="1">  1        2 0.61449434E+00 0.28619715E+04</pdfrwt>
<pdfrwt beam="2">  1       -2 0.78872576E-01 0.28619715E+04</pdfrwt>
<totfact> 0.42740014E-01</totfact>
</mgrwt>
</event>
<event>
 6    1  0.2047711E-005  0.1844701E+04  0.7818608E-02  0.8682883E-01
          2   -1    0    0  501    0  0.00000000000E+00  0.00000000000E+00  0.36463968174E+04  0.36463968174E+04  0.00000000000E+00 0. -1.
         -2   -1    0    0    0  501 -0.00000000000E+00 -0.00000000000E+00 -0.23330704694E+03  0.23330704694E+03  0.00000000000E+00 0.  1.
         23    2    1    2    0    0  0.62698959853E+03  0.24740359694E+03  0.39318054751E+03  0.78548728961E+03  0.89860128873E+02 0.  0.
         13    1    3    3    0    0  0.21994722524E+03  0.53576550208E+02  0.16548814632E+03  0.28041675270E+03  0.00000000000E+00 0. -1.
        -13    1    3    3    0    0  0.40704237329E+03  0.19382704673E+03  0.22769240119E+03  0.50507053691E+03  0.00000000000E+00 0.  1.
         22    1    1    2    0    0 -0.62698959853E+03 -0.24740359694E+03  0.30199092230E+04  0.30942165747E+04  0.00000000000E+00 0. -1.
<mgrwt>
<rscale>  0 0.18447006E+04</rscale>
<asrwt>0</asrwt>
<pdfrwt beam="1">  1        2 0.56098408E+00 0.18447006E+04</pdfrwt>
<pdfrwt beam="2">  1       -2 0.35893395E-01 0.18447006E+04</pdfrwt>
<totfact> 0.44278000E+00</totfact>
</mgrwt>
</event>
<event>
 6    1  0.2047711E-005  0.9174650E+03  0.7818608E-02  0.9404009E-01
          1   -1    0    0  501    0  0.00000000000E+00  0.00000000000E+00  0.70117851413E+03  0.70117851413E+03  0.00000000000E+00 0. -1.
         -1   -1    0    0    0  501 -0.00000000000E+00 -0.00000000000E+00 -0.30011684991E+03  0.30011684991E+03  0.00000000000E+00 0.  1.
         23    2    1    2    0    0 -0.39611940709E+03  0.10001882203E+03 -0.14421483814E+02  0.41859424363E+03  0.89993400734E+02 0.  0.
         11    1    3    3    0    0 -0.35203411358E+03  0.70283665165E+02  0.12070488373E+02  0.35918450329E+03  0.00000000000E+00 0. -1.
        -11    1    3    3    0    0 -0.44085293506E+02  0.29735156866E+02 -0.26491972186E+02  0.59409740343E+02  0.00000000000E+00 0.  1.
         22    1    1    2    0    0  0.39611940709E+03 -0.10001882203E+03  0.41548314803E+03  0.58270112041E+03  0.00000000000E+00 0. -1.
<mgrwt>
<rscale>  0 0.91746496E+03</rscale>
<asrwt>0</asrwt>
<pdfrwt beam="1">  1        1 0.10787362E+00 0.91746496E+03</pdfrwt>
<pdfrwt beam="2">  1       -1 0.46171823E-01 0.91746496E+03</pdfrwt>
<totfact> 0.12763756E+02</totfact>
</mgrwt>
</event>
<event>
 6    1  0.2047711E-005  0.2837252E+04  0.7818608E-02  0.8291795E-01
          2   -1    0    0  501    0  0.00000000000E+00  0.00000000000E+00  0.94416298669E+03  0.94416298669E+03  0.00000000000E+00 0. -1.
         -2   -1    0    0    0  501 -0.00000000000E+00 -0.00000000000E+00 -0.21315177077E+04  0.21315177077E+04  0.00000000000E+00 0.  1.
         23    2    1    2    0    0 -0.64535161750E+03  0.12606234764E+04 -0.65112584957E+03  0.15613519117E+04  0.90579581454E+02 0.  0.
         11    1    3    3    0    0 -0.10500787349E+03  0.27785394206E+03 -0.15415995576E+03  0.33465617964E+03  0.00000000000E+00 0.  1.
        -11    1    3    3    0    0 -0.54034374401E+03  0.98276953437E+03 -0.49696589381E+03  0.12266957320E+04  0.00000000000E+00 0. -1.
         22    1    1    2    0    0  0.64535161750E+03 -0.12606234764E+04 -0.53622887141E+03  0.15143287827E+04  0.00000000000E+00 0.  1.
<mgrwt>
<rscale>  0 0.28372523E+04</rscale>
<asrwt>0</asrwt>
<pdfrwt beam="1">  1        2 0.14525584E+00 0.28372523E+04</pdfrwt>
<pdfrwt beam="2">  1       -2 0.32792580E+00 0.28372523E+04</pdfrwt>
<totfact> 0.50812374E-01</totfact>
</mgrwt>
</event>
<event>
 6    1  0.2047711E-005  0.2994886E+04  0.7818608E-02  0.8245193E-01
         -1   -1    0    0    0  501 -0.00000000000E+00  0.00000000000E+00  0.24724945615E+04  0.24724945615E+04  0.00000000000E+00 0.  1.
          1   -1    0    0  501    0  0.00000000000E+00 -0.00000000000E+00 -0.90691218234E+03  0.90691218234E+03  0.00000000000E+00 0. -1.
         23    2    1    2    0    0 -0.74367923888E+02  0.70996511770E+03  0.22664784027E+04  0.23789886850E+04  0.11437550817E+03 0.  0.
         11    1    3    3    0    0 -0.57710541961E+02  0.15964780622E+03  0.45237456293E+03  0.48317768354E+03  0.00000000000E+00 0.  1.
        -11    1    3    3    0    0 -0.16657381927E+02  0.55031731148E+03  0.18141038398E+04  0.18958110015E+04  0.00000000000E+00 0. -1.
         22    1    1    2    0    0  0.74367923888E+02 -0.70996511770E+03 -0.70089602361E+03  0.10004180588E+04  0.00000000000E+00 0. -1.
<mgrwt>
<rscale>  0 0.29948859E+04</rscale>
<asrwt>0</asrwt>
<pdfrwt beam="1">  1        1 0.13952495E+00 0.29948859E+04</pdfrwt>
<pdfrwt beam="2">  1       -1 0.38038378E+00 0.29948859E+04</pdfrwt>
<totfact> 0.14865554E-01</totfact>
</mgrwt>
</event>
<event>
 6    1  0.2047711E-005  0.1353887E+04  0.7818608E-02  0.8987891E-01
         -2   -1    0    0    0  501 -0.00000000000E+00  0.00000000000E+00  0.46912491569E+03  0.46912491569E+03  0.00000000000E+00 0.  1.
          2   -1    0    0  501    0  0.00000000000E+00 -0.00000000000E+00 -0.97682423085E+03  0.97682423085E+03  0.00000000000E+00 0. -1.
         23    2    1    2    0    0 -0.24639351285E+03  0.36498169229E+03 -0.80046938776E+03  0.91714321400E+03  0.80492455377E+02 0.  0.
         11    1    3    3    0    0 -0.18189318489E+03  0.29191980768E+03 -0.55378989330E+03  0.65190915835E+03  0.00000000000E+00 0.  1.
        -11    1    3    3    0    0 -0.64500327959E+02  0.73061884613E+02 -0.24667949446E+03  0.26523405565E+03  0.00000000000E+00 0. -1.
         22    1    1    2    0    0  0.24639351285E+03 -0.36498169229E+03  0.29277007260E+03  0.52880593254E+03  0.00000000000E+00 0.  1.
<mgrwt>
<rscale>  0 0.13538871E+04</rscale>
<asrwt>0</asrwt>
<pdfrwt beam="1">  1        2 0.15028065E+00 0.13538871E+04</pdfrwt>
<pdfrwt beam="2">  1       -2 0.72173064E-01 0.13538871E+04</pdfrwt>
<totfact> 0.44271500E+01</totfact>
</mgrwt>
</event>
<event>
 6    1  0.2047711E-005  0.1603324E+04  0.7818608E-02  0.8818509E-01
          2   -1    0    0  501    0  0.00000000000E+00  0.00000000000E+00  0.77438065693E+03  0.77438065693E+03  0.00000000000E+00 0. -1.
         -2   -1    0    0    0  501 -0.00000000000E+00 -0.00000000000E+00 -0.82990437975E+03  0.82990437975E+03  0.00000000000E+00 0.  1.
         23    2    1    2    0    0 -0.11858951368E+03  0.65552155825E+03 -0.46921585659E+03  0.82012104387E+03  0.93075348193E+02 0.  0.
         11    1    3    3    0    0  0.97355424732E+01  0.16296917624E+03 -0.10228209942E+03  0.19265347402E+03  0.00000000000E+00 0.  1.
        -11    1    3    3    0    0 -0.12832505615E+03  0.49255238201E+03 -0.36693375718E+03  0.62746756985E+03  0.00000000000E+00 0. -1.
         22    1    1    2    0    0  0.11858951368E+03 -0.65552155825E+03  0.41369213377E+03  0.78416399281E+03  0.00000000000E+00 0. -1.
<mgrwt>
<rscale>  0 0.16033239E+04</rscale>
<asrwt>0</asrwt>
<pdfrwt beam="1">  1        2 0.11913549E+00 0.16033239E+04</pdfrwt>
<pdfrwt beam="2">  1       -2 0.12767760E+00 0.16033239E+04</pdfrwt>
<totfact> 0.15669502E+01</totfact>
</mgrwt>
</event>
<event>
 6    1  0.2047711E-005  0.1114477E+04  0.7818608E-02  0.9191196E-01
         -2   -1    0    0    0  501 -0.00000000000E+00  0.00000000000E+00  0.32623948868E+03  0.32623948868E+03  0.00000000000E+00 0.  1.
          2   -1    0    0  501    0  0.00000000000E+00 -0.00000000000E+00 -0.95179926593E+03  0.95179926593E+03  0.00000000000E+00 0. -1.
         23    2    1    2    0    0 -0.56958317042E+02  0.42423905323E+03 -0.71747114514E+03  0.84023660327E+03  0.89496822258E+02 0.  0.
         13    1    3    3    0    0 -0.34437074741E+02  0.70811579044E+02 -0.18135342088E+03  0.19771002784E+03  0.00000000000E+00 0. -1.
        -13    1    3    3    0    0 -0.22521242301E+02  0.35342747419E+03 -0.53611772427E+03  0.64252657543E+03  0.00000000000E+00 0.  1.
         22    1    1    2    0    0  0.56958317042E+02 -0.42423905323E+03  0.91911367892E+02  0.43780215133E+03  0.00000000000E+00 0.  1.
<mgrwt>
<rscale>  0 0.11144766E+04</rscale>
<asrwt>0</asrwt>
<pdfrwt beam="1">  1        2 0.14643066E+00 0.11144766E+04</pdfrwt>
<pdfrwt beam="2">  1       -2 0.50190691E-01 0.11144766E+04</pdfrwt>
<totfact> 0.10084052E+02</totfact>
</mgrwt>
</event>
<event>
 6    1  0.2047711E-005  0.9932083E+03  0.7818608E-02  0.9316025E-01
         -2   -1    0    0    0  501 -0.00000000000E+00  0.00000000000E+00  0.20104845707E+03  0.20104845707E+03  0.00000000000E+00 0.  1.
          2   -1    0    0  501    0  0.00000000000E+00 -0.00000000000E+00 -0.12266478561E+04  0.12266478561E+04  0.00000000000E+00 0. -1.
         23    2    1    2    0    0 -0.14513744377E+03  0.19325266411E+03 -0.11338525387E+04  0.11628752188E+04  0.90805974916E+02 0.  0.
         11    1    3    3    0    0 -0.47247832773E+02  0.69959169003E+01 -0.20731767649E+03  0.21274848892E+03  0.00000000000E+00 0. -1.
        -11    1    3    3    0    0 -0.97889610995E+02  0.18625674721E+03 -0.92653486224E+03  0.95012672985E+03  0.00000000000E+00 0.  1.
         22    1    1    2    0    0  0.14513744377E+03 -0.19325266411E+03  0.10825313972E+03  0.26482109438E+03  0.00000000000E+00 0.  1.
<mgrwt>
<rscale>  0 0.99320825E+03</rscale>
<asrwt>0</asrwt>
<pdfrwt beam="1">  1        2 0.18871506E+00 0.99320825E+03</pdfrwt>
<pdfrwt beam="2">  1       -2 0.30930532E-01 0.99320825E+03</pdfrwt>
<totfact> 0.17635592E+02</totfact>
</mgrwt>
</event>
<event>
 6    1  0.2047711E-005  0.4854365E+04  0.7818608E-02  0.7851374E-01
          2   -1    0    0  501    0  0.00000000000E+00  0.00000000000E+00  0.29752083966E+04  0.29752083966E+04  0.00000000000E+00 0. -1.
         -2   -1    0    0    0  501 -0.00000000000E+00 -0.00000000000E+00 -0.19801017490E+04  0.19801017490E+04  0.00000000000E+00 0.  1.
         23    2    1    2    0    0 -0.13417447694E+04  0.20191112888E+04  0.59980251233E+03  0.24990213226E+04  0.90857548440E+02 0.  0.
         13    1    3    3    0    0 -0.78031098236E+03  0.11382439555E+04  0.38290214546E+03  0.14321656973E+04  0.00000000000E+00 0. -1.
        -13    1    3    3    0    0 -0.56143378703E+03  0.88086733331E+03  0.21690036686E+03  0.10668556253E+04  0.00000000000E+00 0.  1.
         22    1    1    2    0    0  0.13417447694E+04 -0.20191112888E+04  0.39530413527E+03  0.24562888231E+04  0.00000000000E+00 0. -1.
<mgrwt>
<rscale>  0 0.48543652E+04</rscale>
<asrwt>0</asrwt>
<pdfrwt beam="1">  1        2 0.45772437E+00 0.48543652E+04</pdfrwt>
<pdfrwt beam="2">  1       -2 0.30463104E+00 0.48543652E+04</pdfrwt>
<totfact> 0.39548727E-02</totfact>
</mgrwt>
</event>
<event>
 6    1  0.2047711E-005  0.1858002E+04  0.7818608E-02  0.8676049E-01
          2   -1    0    0  501    0  0.00000000000E+00  0.00000000000E+00  0.43921974595E+03  0.43921974595E+03  0.00000000000E+00 0. -1.
         -2   -1    0    0    0  501 -0.00000000000E+00 -0.00000000000E+00 -0.19649450019E+04  0.19649450019E+04  0.00000000000E+00 0.  1.
         23    2    1    2    0    0 -0.82920801200E+03  0.40646196658E+03 -0.86204397740E+03  0.12669444099E+04  0.96078413054E+02 0.  0.
         11    1    3    3    0    0 -0.39448647726E+03  0.23220504543E+03 -0.38103536948E+03  0.59558938595E+03  0.00000000000E+00 0.  1.
        -11    1    3    3    0    0 -0.43472153475E+03  0.17425692115E+03 -0.48100860792E+03  0.67135502399E+03  0.00000000000E+00 0. -1.
         22    1    1    2    0    0  0.82920801200E+03 -0.40646196658E+03 -0.66368127852E+03  0.11372203379E+04  0.00000000000E+00 0.  1.
<mgrwt>
<rscale>  0 0.18580018E+04</rscale>
<asrwt>0</asrwt>
<pdfrwt beam="1">  1        2 0.67572269E-01 0.18580018E+04</pdfrwt>
<pdfrwt beam="2">  1       -2 0.30229923E+00 0.18580018E+04</pdfrwt>
<totfact> 0.20707208E+00</totfact>
</mgrwt>
</event>
<event>
 6    1  0.2047711E-005  0.2981167E+04  0.7818608E-02  0.8249129E-01
         -2   -1    0    0    0  501 -0.00000000000E+00  0.00000000000E+00  0.85180104590E+03  0.85180104590E+03  0.00000000000E+00 0.  1.
          2   -1    0    0  501    0  0.00000000000E+00 -0.00000000000E+00 -0.26084020330E+04  0.26084020330E+04  0.00000000000E+00 0. -1.
         23    2    1    2    0    0 -0.10867406773E+04  0.89721440111E+03 -0.32041316234E+03  0.14480812016E+04  0.90970272506E+02 0.  0.
         11    1    3    3    0    0 -0.51096533203E+03  0.37963386831E+03 -0.11235490943E+03  0.64639853819E+03  0.00000000000E+00 0. -1.
        -11    1    3    3    0    0 -0.57577534527E+03  0.51758053280E+03 -0.20805825291E+03  0.80168266338E+03  0.00000000000E+00 0.  1.
         22    1    1    2    0    0  0.10867406773E+04 -0.89721440111E+03 -0.14361878248E+04  0.20121218774E+04  0.00000000000E+00 0. -1.
<mgrwt>
<rscale>  0 0.29811673E+04</rscale>
<asrwt>0</asrwt>
<pdfrwt beam="1">  1        2 0.40129261E+00 0.29811673E+04</pdfrwt>
<pdfrwt beam="2">  1       -2 0.13104632E+00 0.29811673E+04</pdfrwt>
<totfact> 0.10974320E+00</totfact>
</mgrwt>
</event>
<event>
 6    1  0.2047711E-005  0.3687529E+04  0.7818608E-02  0.8070731E-01
         -2   -1    0    0    0  501 -0.00000000000E+00  0.00000000000E+00  0.18320126193E+04  0.18320126193E+04  0.00000000000E+00 0.  1.
          2   -1    0    0  501    0  0.00000000000E+00 -0.00000000000E+00 -0.18555919707E+04  0.18555919707E+04  0.00000000000E+00 0. -1.
         23    2    1    2    0    0 -0.95972706589E+03 -0.15491178317E+04  0.26019652383E+03  0.18433240136E+04  0.96431792241E+02 0.  0.
         11    1    3    3    0    0 -0.40370433165E+03 -0.66127880989E+03  0.15855785594E+03  0.79082706420E+03  0.00000000000E+00 0.  1.
        -11    1    3    3    0    0 -0.55602273424E+03 -0.88783902178E+03  0.10163866789E+03  0.10524969494E+04  0.00000000000E+00 0. -1.
         22    1    1    2    0    0  0.95972706589E+03  0.15491178317E+04 -0.28377587527E+03  0.18442805765E+04  0.00000000000E+00 0. -1.
<mgrwt>
<rscale>  0 0.36875292E+04</rscale>
<asrwt>0</asrwt>
<pdfrwt beam="1">  1        2 0.28547569E+00 0.36875292E+04</pdfrwt>
<pdfrwt beam="2">  1       -2 0.28184810E+00 0.36875292E+04</pdfrwt>
<totfact> 0.26687380E-01</totfact>
</mgrwt>
</event>
<event>
 6    1  0.2047711E-005  0.1416753E+04  0.7818608E-02  0.8941780E-01
         -2   -1    0    0    0  501 -0.00000000000E+00  0.00000000000E+00  0.64160676773E+03  0.64160676773E+03  0.00000000000E+00 0.  1.
          2   -1    0    0  501    0  0.00000000000E+00 -0.00000000000E+00 -0.78209466397E+03  0.78209466397E+03  0.00000000000E+00 0. -1.
         23    2    1    2    0    0  0.73784927997E+02  0.56621574791E+03 -0.48606701105E+03  0.75626648104E+03  0.98149693533E+02 0.  0.
         13    1    3    3    0    0  0.87315107618E+01  0.36764838724E+02 -0.70792875868E+02  0.80246644292E+02  0.00000000000E+00 0. -1.
        -13    1    3    3    0    0  0.65053417235E+02  0.52945090918E+03 -0.41527413518E+03  0.67601983675E+03  0.00000000000E+00 0.  1.
         22    1    1    2    0    0 -0.73784927997E+02 -0.56621574791E+03  0.34557911480E+03  0.66743495066E+03  0.00000000000E+00 0.  1.
<mgrwt>
<rscale>  0 0.14167529E+04</rscale>
<asrwt>0</asrwt>
<pdfrwt beam="1">  1        2 0.12032226E+00 0.14167529E+04</pdfrwt>
<pdfrwt beam="2">  1       -2 0.98708733E-01 0.14167529E+04</pdfrwt>
<totfact> 0.29400360E+01</totfact>
</mgrwt>
</event>
<event>
 6    1  0.2047711E-005  0.1030906E+04  0.7818608E-02  0.9275282E-01
          2   -1    0    0  501    0  0.00000000000E+00  0.00000000000E+00  0.61151256020E+03  0.61151256020E+03  0.00000000000E+00 0. -1.
         -2   -1    0    0    0  501 -0.00000000000E+00 -0.00000000000E+00 -0.43448300524E+03  0.43448300524E+03  0.00000000000E+00 0.  1.
         23    2    1    2    0    0  0.26852441677E+03  0.36265449976E+01  0.53078202269E+03  0.60185671029E+03  0.91561071869E+02 0.  0.
         11    1    3    3    0    0  0.72424776362E+02  0.37869884909E+01  0.24316335738E+03  0.25374811898E+03  0.00000000000E+00 0. -1.
        -11    1    3    3    0    0  0.19609964041E+03 -0.16044349328E+00  0.28761866530E+03  0.34810859131E+03  0.00000000000E+00 0.  1.
         22    1    1    2    0    0 -0.26852441677E+03 -0.36265449976E+01 -0.35375246772E+03  0.44413885515E+03  0.00000000000E+00 0.  1.
<mgrwt>
<rscale>  0 0.10309060E+04</rscale>
<asrwt>0</asrwt>
<pdfrwt beam="1">  1        2 0.94078855E-01 0.10309060E+04</pdfrwt>
<pdfrwt beam="2">  1       -2 0.66843540E-01 0.10309060E+04</pdfrwt>
<totfact> 0.99351004E+01</totfact>
</mgrwt>
</event>
<event>
 6    1  0.2047711E-005  0.2363678E+04  0.7818608E-02  0.8453229E-01
          1   -1    0    0  501    0  0.00000000000E+00  0.00000000000E+00  0.28701440990E+04  0.28701440990E+04  0.00000000000E+00 0. -1.
         -1   -1    0    0    0  501 -0.00000000000E+00 -0.00000000000E+00 -0.48664557371E+03  0.48664557371E+03  0.00000000000E+00 0.  1.
         23    2    1    2    0    0 -0.10998276651E+04 -0.39521917279E+03  0.14258677514E+04  0.18458708177E+04  0.91220302072E+02 0.  0.
         11    1    3    3    0    0 -0.50119588024E+03 -0.17752169779E+03  0.72052526967E+03  0.89547078556E+03  0.00000000000E+00 0. -1.
        -11    1    3    3    0    0 -0.59863178487E+03 -0.21769747500E+03  0.70534248173E+03  0.95040003210E+03  0.00000000000E+00 0.  1.
         22    1    1    2    0    0  0.10998276651E+04  0.39521917279E+03  0.95763077393E+03  0.15109188551E+04  0.00000000000E+00 0.  1.
<mgrwt>
<rscale>  0 0.23636776E+04</rscale>
<asrwt>0</asrwt>
<pdfrwt beam="1">  1        1 0.44156062E+00 0.23636776E+04</pdfrwt>
<pdfrwt beam="2">  1       -1 0.74868551E-01 0.23636776E+04</pdfrwt>
<totfact> 0.11976839E+00</totfact>
</mgrwt>
</event>
<event>
 6    1  0.2047711E-005  0.1213889E+04  0.7818608E-02  0.9100785E-01
         -2   -1    0    0    0  501 -0.00000000000E+00  0.00000000000E+00  0.23704465103E+03  0.23704465103E+03  0.00000000000E+00 0.  1.
          2   -1    0    0  501    0  0.00000000000E+00 -0.00000000000E+00 -0.15540606415E+04  0.15540606415E+04  0.00000000000E+00 0. -1.
         23    2    1    2    0    0  0.36122491443E+03 -0.46318727685E+03 -0.86670015581E+03  0.10509632500E+04  0.91261713998E+02 0.  0.
         13    1    3    3    0    0  0.29750335087E+03 -0.42646923472E+03 -0.73914381133E+03  0.90372441916E+03  0.00000000000E+00 0.  1.
        -13    1    3    3    0    0  0.63721563558E+02 -0.36718042126E+02 -0.12755634448E+03  0.14723883081E+03  0.00000000000E+00 0. -1.
         22    1    1    2    0    0 -0.36122491443E+03  0.46318727685E+03 -0.45031583465E+03  0.74014204257E+03  0.00000000000E+00 0. -1.
<mgrwt>
<rscale>  0 0.12138892E+04</rscale>
<asrwt>0</asrwt>
<pdfrwt beam="1">  1        2 0.23908626E+00 0.12138892E+04</pdfrwt>
<pdfrwt beam="2">  1       -2 0.36468406E-01 0.12138892E+04</pdfrwt>
<totfact> 0.82544553E+01</totfact>
</mgrwt>
</event>
<event>
 6    1  0.2047711E-005  0.2462236E+04  0.7818608E-02  0.8416564E-01
         -2   -1    0    0    0  501 -0.00000000000E+00  0.00000000000E+00  0.11207201847E+04  0.11207201847E+04  0.00000000000E+00 0.  1.
          2   -1    0    0  501    0  0.00000000000E+00 -0.00000000000E+00 -0.13523911876E+04  0.13523911876E+04  0.00000000000E+00 0. -1.
         23    2    1    2    0    0  0.31520971372E+03 -0.56937394418E+03  0.93219169290E+03  0.11396496268E+04  0.79221636293E+02 0.  0.
         13    1    3    3    0    0  0.27933448197E+03 -0.48561907084E+03  0.84276842633E+03  0.10119843157E+04  0.00000000000E+00 0. -1.
        -13    1    3    3    0    0  0.35875231751E+02 -0.83754873344E+02  0.89423266573E+02  0.12766531113E+03  0.00000000000E+00 0.  1.
         22    1    1    2    0    0 -0.31520971372E+03  0.56937394418E+03 -0.11638626958E+04  0.13334617454E+04  0.00000000000E+00 0. -1.
<mgrwt>
<rscale>  0 0.24622365E+04</rscale>
<asrwt>0</asrwt>
<pdfrwt beam="1">  1        2 0.20806018E+00 0.24622365E+04</pdfrwt>
<pdfrwt beam="2">  1       -2 0.17241849E+00 0.24622365E+04</pdfrwt>
<totfact> 0.28254261E+00</totfact>
</mgrwt>
</event>
<event>
 6    1  0.2047711E-005  0.1615445E+04  0.7818608E-02  0.8811116E-01
         -2   -1    0    0    0  501 -0.00000000000E+00  0.00000000000E+00  0.14339058045E+04  0.14339058045E+04  0.00000000000E+00 0.  1.
          2   -1    0    0  501    0  0.00000000000E+00 -0.00000000000E+00 -0.45499172105E+03  0.45499172105E+03  0.00000000000E+00 0. -1.
         23    2    1    2    0    0  0.50702317849E+03  0.51469234265E+03  0.75445896274E+02  0.73207624446E+03  0.90900128265E+02 0.  0.
         11    1    3    3    0    0  0.43888134489E+03  0.41166604998E+03  0.37699544811E+02  0.60291543957E+03  0.00000000000E+00 0.  1.
        -11    1    3    3    0    0  0.68141833598E+02  0.10302629268E+03  0.37746351463E+02  0.12916080488E+03  0.00000000000E+00 0. -1.
         22    1    1    2    0    0 -0.50702317849E+03 -0.51469234265E+03  0.90346818713E+03  0.11568212810E+04  0.00000000000E+00 0.  1.
<mgrwt>
<rscale>  0 0.16154445E+04</rscale>
<asrwt>0</asrwt>
<pdfrwt beam="1">  1        2 0.69998727E-01 0.16154445E+04</pdfrwt>
<pdfrwt beam="2">  1       -2 0.22060089E+00 0.16154445E+04</pdfrwt>
<totfact> 0.64398847E+00</totfact>
</mgrwt>
</event>
<event>
 6    1  0.2047711E-005  0.1734803E+04  0.7818608E-02  0.8741760E-01
          2   -1    0    0  501    0  0.00000000000E+00  0.00000000000E+00  0.84381602066E+03  0.84381602066E+03  0.00000000000E+00 0. -1.
         -2   -1    0    0    0  501 -0.00000000000E+00 -0.00000000000E+00 -0.89164578239E+03  0.89164578239E+03  0.00000000000E+00 0.  1.
         23    2    1    2    0    0  0.72555280633E+03  0.27256046942E+03 -0.40841276226E+03  0.88063071766E+03  0.89405772984E+02 0.  0.
         11    1    3    3    0    0  0.12121568866E+03  0.18707381638E+02 -0.88465518487E+02  0.15122617917E+03  0.00000000000E+00 0. -1.
        -11    1    3    3    0    0  0.60433711767E+03  0.25385308779E+03 -0.31994724378E+03  0.72940453849E+03  0.00000000000E+00 0.  1.
         22    1    1    2    0    0 -0.72555280633E+03 -0.27256046942E+03  0.36058300053E+03  0.85483108539E+03  0.00000000000E+00 0. -1.
<mgrwt>
<rscale>  0 0.17348026E+04</rscale>
<asrwt>0</asrwt>
<pdfrwt beam="1">  1        2 0.12981785E+00 0.17348026E+04</pdfrwt>
<pdfrwt beam="2">  1       -2 0.13717627E+00 0.17348026E+04</pdfrwt>
<totfact> 0.11516195E+01</totfact>
</mgrwt>
</event>
<event>
 6    1  0.2714761E-005  0.4771607E+04  0.7818608E-02  0.7864738E-01
          2   -1    0    0  501    0  0.00000000000E+00  0.00000000000E+00  0.30162740909E+04  0.30162740909E+04  0.00000000000E+00 0. -1.
         -2   -1    0    0    0  501 -0.00000000000E+00 -0.00000000000E+00 -0.18871158652E+04  0.18871158652E+04  0.00000000000E+00 0.  1.
         23    2    1    2    0    0 -0.26089662190E+03  0.72351318192E+03 -0.17552122772E+04  0.19182381058E+04  0.85609117127E+02 0.  0.
         13    1    3    3    0    0 -0.87881718337E+02  0.31941333236E+03 -0.83884100882E+03  0.90188819229E+03  0.00000000000E+00 0. -1.
        -13    1    3    3    0    0 -0.17301490356E+03  0.40409984956E+03 -0.91637126835E+03  0.10163499135E+04  0.00000000000E+00 0.  1.
         22    1    1    2    0    0  0.26089662190E+03 -0.72351318192E+03  0.28843705029E+04  0.29851518503E+04  0.00000000000E+00 0. -1.
<mgrwt>
<rscale>  0 0.47716071E+04</rscale>
<asrwt>0</asrwt>
<pdfrwt beam="1">  1        2 0.46404217E+00 0.47716071E+04</pdfrwt>
<pdfrwt beam="2">  1       -2 0.29032552E+00 0.47716071E+04</pdfrwt>
<totfact> 0.45894449E-02</totfact>
</mgrwt>
</event>
<event>
 6    1  0.2047711E-005  0.3563686E+04  0.7818608E-02  0.8098861E-01
          2   -1    0    0  501    0  0.00000000000E+00  0.00000000000E+00  0.20283184914E+04  0.20283184914E+04  0.00000000000E+00 0. -1.
         -2   -1    0    0    0  501 -0.00000000000E+00 -0.00000000000E+00 -0.15653188625E+04  0.15653188625E+04  0.00000000000E+00 0.  1.
         23    2    1    2    0    0 -0.99386564815E+03 -0.99771479845E+03  0.13306049582E+04  0.19395688084E+04  0.90630359218E+02 0.  0.
         13    1    3    3    0    0 -0.35367599433E+03 -0.34594644696E+03  0.52705004351E+03  0.72287440230E+03  0.00000000000E+00 0. -1.
        -13    1    3    3    0    0 -0.64018965382E+03 -0.65176835150E+03  0.80355491471E+03  0.12166944061E+04  0.00000000000E+00 0.  1.
         22    1    1    2    0    0  0.99386564815E+03  0.99771479845E+03 -0.86760532937E+03  0.16540685455E+04  0.00000000000E+00 0.  1.
<mgrwt>
<rscale>  0 0.35636864E+04</rscale>
<asrwt>0</asrwt>
<pdfrwt beam="1">  1        2 0.31204900E+00 0.35636864E+04</pdfrwt>
<pdfrwt beam="2">  1       -2 0.24081829E+00 0.35636864E+04</pdfrwt>
<totfact> 0.38564003E-01</totfact>
</mgrwt>
</event>
<event>
 6    1  0.3085800E-005  0.4238043E+04  0.7818608E-02  0.7958175E-01
         -2   -1    0    0    0  501 -0.00000000000E+00  0.00000000000E+00  0.13412114369E+04  0.13412114369E+04  0.00000000000E+00 0. -1.
          2   -1    0    0  501    0  0.00000000000E+00 -0.00000000000E+00 -0.33479075836E+04  0.33479075836E+04  0.00000000000E+00 0.  1.
         23    2    1    2    0    0 -0.37656956346E+03 -0.14721206198E+04  0.62879607608E+03  0.16469548217E+04  0.90177182359E+02 0.  0.
         13    1    3    3    0    0 -0.18481843095E+03 -0.74885509872E+03  0.36741953742E+03  0.85436463396E+03  0.00000000000E+00 0. -1.
        -13    1    3    3    0    0 -0.19175113251E+03 -0.72326552108E+03  0.26137653866E+03  0.79259018778E+03  0.00000000000E+00 0.  1.
         22    1    1    2    0    0  0.37656956346E+03  0.14721206198E+04 -0.26354922228E+04  0.30421641987E+04  0.00000000000E+00 0.  1.
<mgrwt>
<rscale>  0 0.42380429E+04</rscale>
<asrwt>0</asrwt>
<pdfrwt beam="1">  1        2 0.51506270E+00 0.42380429E+04</pdfrwt>
<pdfrwt beam="2">  1       -2 0.20634022E+00 0.42380429E+04</pdfrwt>
<totfact> 0.96652871E-02</totfact>
</mgrwt>
</event>
<event>
 6    1  0.2047711E-005  0.4585139E+04  0.7818608E-02  0.7895899E-01
         -2   -1    0    0    0  501 -0.00000000000E+00  0.00000000000E+00  0.24302789581E+04  0.24302789581E+04  0.00000000000E+00 0.  1.
          2   -1    0    0  501    0  0.00000000000E+00 -0.00000000000E+00 -0.21626632611E+04  0.21626632611E+04  0.00000000000E+00 0. -1.
         23    2    1    2    0    0  0.11693459427E+04 -0.19638400857E+03  0.20981966311E+04  0.24118958721E+04  0.94212433210E+02 0.  0.
         11    1    3    3    0    0  0.64073041644E+02 -0.70929037423E+01  0.16294820271E+03  0.17523635672E+03  0.00000000000E+00 0. -1.
        -11    1    3    3    0    0  0.11052729010E+04 -0.18929110483E+03  0.19352484284E+04  0.22366595153E+04  0.00000000000E+00 0.  1.
         22    1    1    2    0    0 -0.11693459427E+04  0.19638400857E+03 -0.18305809340E+04  0.21810463472E+04  0.00000000000E+00 0. -1.
<mgrwt>
<rscale>  0 0.45851390E+04</rscale>
<asrwt>0</asrwt>
<pdfrwt beam="1">  1        2 0.33271743E+00 0.45851390E+04</pdfrwt>
<pdfrwt beam="2">  1       -2 0.37388907E+00 0.45851390E+04</pdfrwt>
<totfact> 0.44708002E-02</totfact>
</mgrwt>
</event>
<event>
 6    1  0.2047711E-005  0.2287881E+04  0.7818608E-02  0.8482715E-01
         -2   -1    0    0    0  501 -0.00000000000E+00  0.00000000000E+00  0.46725819036E+03  0.46725819036E+03  0.00000000000E+00 0.  1.
          2   -1    0    0  501    0  0.00000000000E+00 -0.00000000000E+00 -0.28005922535E+04  0.28005922535E+04  0.00000000000E+00 0. -1.
         23    2    1    2    0    0  0.70692404644E+03  0.42999641814E+03 -0.22929918579E+04  0.24394386981E+04  0.91711364019E+02 0.  0.
         11    1    3    3    0    0  0.60093632209E+03  0.32451197668E+03 -0.18838272688E+04  0.20038057952E+04  0.00000000000E+00 0.  1.
        -11    1    3    3    0    0  0.10598772434E+03  0.10548444146E+03 -0.40916458912E+03  0.43563290291E+03  0.00000000000E+00 0. -1.
         22    1    1    2    0    0 -0.70692404644E+03 -0.42999641814E+03 -0.40342205259E+02  0.82841174579E+03  0.00000000000E+00 0.  1.
<mgrwt>
<rscale>  0 0.22878808E+04</rscale>
<asrwt>0</asrwt>
<pdfrwt beam="1">  1        2 0.43086035E+00 0.22878808E+04</pdfrwt>
<pdfrwt beam="2">  1       -2 0.71885875E-01 0.22878808E+04</pdfrwt>
<totfact> 0.36785178E+00</totfact>
</mgrwt>
</event>
<event>
 6    1  0.2047711E-005  0.1067483E+04  0.7818608E-02  0.9237477E-01
         -2   -1    0    0    0  501 -0.00000000000E+00  0.00000000000E+00  0.21311881942E+03  0.21311881942E+03  0.00000000000E+00 0.  1.
          2   -1    0    0  501    0  0.00000000000E+00 -0.00000000000E+00 -0.13367201618E+04  0.13367201618E+04  0.00000000000E+00 0. -1.
         23    2    1    2    0    0  0.88432531504E+02  0.50636573687E+03 -0.37918283524E+03  0.64519237294E+03  0.90923063368E+02 0.  0.
         13    1    3    3    0    0  0.38102226622E+02  0.54701719236E+02 -0.61559894210E+02  0.90739618338E+02  0.00000000000E+00 0.  1.
        -13    1    3    3    0    0  0.50330304882E+02  0.45166401763E+03 -0.31762294103E+03  0.55445275460E+03  0.00000000000E+00 0. -1.
         22    1    1    2    0    0 -0.88432531504E+02 -0.50636573687E+03 -0.74441850712E+03  0.90464660826E+03  0.00000000000E+00 0. -1.
<mgrwt>
<rscale>  0 0.10674834E+04</rscale>
<asrwt>0</asrwt>
<pdfrwt beam="1">  1        2 0.20564925E+00 0.10674834E+04</pdfrwt>
<pdfrwt beam="2">  1       -2 0.32787512E-01 0.10674834E+04</pdfrwt>
<totfact> 0.13567310E+02</totfact>
</mgrwt>
</event>
<event>
 6    1  0.2047711E-005  0.1755979E+04  0.7818608E-02  0.8730066E-01
          2   -1    0    0  501    0  0.00000000000E+00  0.00000000000E+00  0.10197245685E+04  0.10197245685E+04  0.00000000000E+00 0. -1.
         -2   -1    0    0    0  501 -0.00000000000E+00 -0.00000000000E+00 -0.75595431938E+03  0.75595431938E+03  0.00000000000E+00 0.  1.
         23    2    1    2    0    0  0.51195698969E+03  0.69185063766E+03 -0.30494362610E+02  0.86609165961E+03  0.91801920385E+02 0.  0.
         11    1    3    3    0    0  0.14142693968E+03  0.17706578175E+03  0.31535510854E+02  0.22879763718E+03  0.00000000000E+00 0. -1.
        -11    1    3    3    0    0  0.37053005001E+03  0.51478485591E+03 -0.62029873464E+02  0.63729402244E+03  0.00000000000E+00 0.  1.
         22    1    1    2    0    0 -0.51195698969E+03 -0.69185063766E+03  0.29426461174E+03  0.90958722827E+03  0.00000000000E+00 0.  1.
<mgrwt>
<rscale>  0 0.17559786E+04</rscale>
<asrwt>0</asrwt>
<pdfrwt beam="1">  1        2 0.15688070E+00 0.17559786E+04</pdfrwt>
<pdfrwt beam="2">  1       -2 0.11630066E+00 0.17559786E+04</pdfrwt>
<totfact> 0.13297487E+01</totfact>
</mgrwt>
</event>
<event>
 6    1  0.2047711E-005  0.1351760E+04  0.7818608E-02  0.8989497E-01
          2   -1    0    0  501    0  0.00000000000E+00  0.00000000000E+00  0.19180117304E+04  0.19180117304E+04  0.00000000000E+00 0. -1.
         -2   -1    0    0    0  501 -0.00000000000E+00 -0.00000000000E+00 -0.23817045499E+03  0.23817045499E+03  0.00000000000E+00 0.  1.
         23    2    1    2    0    0 -0.63198992970E+03 -0.16889957399E+03  0.59315423416E+03  0.88778671751E+03  0.91624084935E+02 0.  0.
         11    1    3    3    0    0 -0.21920048454E+03 -0.92429155602E+02  0.25485895048E+03  0.34863316806E+03  0.00000000000E+00 0. -1.
        -11    1    3    3    0    0 -0.41278944516E+03 -0.76470418384E+02  0.33829528368E+03  0.53915354945E+03  0.00000000000E+00 0.  1.
         22    1    1    2    0    0  0.63198992970E+03  0.16889957399E+03  0.10866870412E+04  0.12683954679E+04  0.00000000000E+00 0. -1.
<mgrwt>
<rscale>  0 0.13517599E+04</rscale>
<asrwt>0</asrwt>
<pdfrwt beam="1">  1        2 0.29507872E+00 0.13517599E+04</pdfrwt>
<pdfrwt beam="2">  1       -2 0.36641610E-01 0.13517599E+04</pdfrwt>
<totfact> 0.50856915E+01</totfact>
</mgrwt>
</event>
<event>
 6    1  0.2047711E-005  0.4836794E+04  0.7818608E-02  0.7854188E-01
          1   -1    0    0  501    0  0.00000000000E+00  0.00000000000E+00  0.25914019085E+04  0.25914019085E+04  0.00000000000E+00 0. -1.
         -1   -1    0    0    0  501 -0.00000000000E+00 -0.00000000000E+00 -0.22569422741E+04  0.22569422741E+04  0.00000000000E+00 0.  1.
         23    2    1    2    0    0 -0.32135747686E+03  0.13273212161E+04  0.21669075832E+04  0.25629738136E+04  0.91071711960E+02 0.  0.
         11    1    3    3    0    0 -0.76486742058E+02  0.20030511458E+03  0.37602924281E+03  0.43286297149E+03  0.00000000000E+00 0. -1.
        -11    1    3    3    0    0 -0.24487073481E+03  0.11270161015E+04  0.17908783403E+04  0.21301108421E+04  0.00000000000E+00 0.  1.
         22    1    1    2    0    0  0.32135747686E+03 -0.13273212161E+04 -0.18324479487E+04  0.22853703690E+04  0.00000000000E+00 0.  1.
<mgrwt>
<rscale>  0 0.48367942E+04</rscale>
<asrwt>0</asrwt>
<pdfrwt beam="1">  1        1 0.39867722E+00 0.48367942E+04</pdfrwt>
<pdfrwt beam="2">  1       -1 0.34722189E+00 0.48367942E+04</pdfrwt>
<totfact> 0.13871526E-02</totfact>
</mgrwt>
</event>
<event>
 6    1  0.2047711E-005  0.1331541E+04  0.7818608E-02  0.9004920E-01
          2   -1    0    0  501    0  0.00000000000E+00  0.00000000000E+00  0.11006279643E+04  0.11006279643E+04  0.00000000000E+00 0.  1.
         -2   -1    0    0    0  501 -0.00000000000E+00 -0.00000000000E+00 -0.40272492052E+03  0.40272492052E+03  0.00000000000E+00 0. -1.
         23    2    1    2    0    0  0.47326588718E+03 -0.27836288720E+03  0.76936920673E+03  0.94966171695E+03  0.91988604901E+02 0.  0.
         11    1    3    3    0    0  0.37924658057E+03 -0.24864840715E+03  0.58085099103E+03  0.73691374871E+03  0.00000000000E+00 0.  1.
        -11    1    3    3    0    0  0.94019306610E+02 -0.29714480053E+02  0.18851821569E+03  0.21274796824E+03  0.00000000000E+00 0. -1.
         22    1    1    2    0    0 -0.47326588718E+03  0.27836288720E+03 -0.71466162931E+02  0.55369116788E+03  0.00000000000E+00 0. -1.
<mgrwt>
<rscale>  0 0.13315409E+04</rscale>
<asrwt>0</asrwt>
<pdfrwt beam="1">  1        2 0.16932738E+00 0.13315409E+04</pdfrwt>
<pdfrwt beam="2">  1       -2 0.61957680E-01 0.13315409E+04</pdfrwt>
<totfact> 0.51505567E+01</totfact>
</mgrwt>
</event>
<event>
 6    1  0.2047711E-005  0.1867174E+04  0.7818608E-02  0.8671371E-01
          1   -1    0    0  501    0  0.00000000000E+00  0.00000000000E+00  0.96606448655E+03  0.96606448655E+03  0.00000000000E+00 0. -1.
         -1   -1    0    0    0  501 -0.00000000000E+00 -0.00000000000E+00 -0.90220097748E+03  0.90220097748E+03  0.00000000000E+00 0.  1.
         23    2    1    2    0    0 -0.88101502513E+03  0.69797083124E+02 -0.26187036199E+03  0.92637286821E+03  0.92366103946E+02 0.  0.
         11    1    3    3    0    0 -0.66035275312E+03  0.85669536326E+02 -0.17328934550E+03  0.68806556757E+03  0.00000000000E+00 0.  1.
        -11    1    3    3    0    0 -0.22066227200E+03 -0.15872453202E+02 -0.88581016494E+02  0.23830730064E+03  0.00000000000E+00 0. -1.
         22    1    1    2    0    0  0.88101502513E+03 -0.69797083124E+02  0.32573387105E+03  0.94189259582E+03  0.00000000000E+00 0. -1.
<mgrwt>
<rscale>  0 0.18671736E+04</rscale>
<asrwt>0</asrwt>
<pdfrwt beam="1">  1        1 0.14862531E+00 0.18671736E+04</pdfrwt>
<pdfrwt beam="2">  1       -1 0.13880015E+00 0.18671736E+04</pdfrwt>
<totfact> 0.64736235E+00</totfact>
</mgrwt>
</event>
<event>
 6    1  0.2047711E-005  0.8768577E+03  0.7818608E-02  0.9454982E-01
         -2   -1    0    0    0  501 -0.00000000000E+00  0.00000000000E+00  0.32221430140E+03  0.32221430140E+03  0.00000000000E+00 0.  1.
          2   -1    0    0  501    0  0.00000000000E+00 -0.00000000000E+00 -0.59655905312E+03  0.59655905312E+03  0.00000000000E+00 0. -1.
         23    2    1    2    0    0 -0.29363056424E+03 -0.14790115088E+03  0.15643491732E+03  0.37686489182E+03  0.97270779969E+02 0.  0.
         11    1    3    3    0    0 -0.79697205638E+02  0.85063915282E+00  0.17608408874E+02  0.81623674485E+02  0.00000000000E+00 0.  1.
        -11    1    3    3    0    0 -0.21393335860E+03 -0.14875179003E+03  0.13882650845E+03  0.29524121733E+03  0.00000000000E+00 0. -1.
         22    1    1    2    0    0  0.29363056424E+03  0.14790115088E+03 -0.43077966905E+03  0.54190846271E+03  0.00000000000E+00 0. -1.
<mgrwt>
<rscale>  0 0.87685770E+03</rscale>
<asrwt>0</asrwt>
<pdfrwt beam="1">  1        2 0.91778315E-01 0.87685770E+03</pdfrwt>
<pdfrwt beam="2">  1       -2 0.49571431E-01 0.87685770E+03</pdfrwt>
<totfact> 0.19317045E+02</totfact>
</mgrwt>
</event>
<event>
 6    1  0.2047711E-005  0.1327354E+04  0.7818608E-02  0.9008150E-01
          2   -1    0    0  501    0  0.00000000000E+00  0.00000000000E+00  0.13997583186E+04  0.13997583186E+04  0.00000000000E+00 0. -1.
         -2   -1    0    0    0  501 -0.00000000000E+00 -0.00000000000E+00 -0.31467379099E+03  0.31467379099E+03  0.00000000000E+00 0.  1.
         23    2    1    2    0    0  0.10646735451E+03 -0.27262301542E+03 -0.21969327652E+03  0.37723215288E+03  0.91544280572E+02 0.  0.
         13    1    3    3    0    0  0.28827898700E+02 -0.17638428914E+02 -0.52996270795E+02  0.62855124184E+02  0.00000000000E+00 0.  1.
        -13    1    3    3    0    0  0.77639455812E+02 -0.25498458651E+03 -0.16669700572E+03  0.31437702869E+03  0.00000000000E+00 0. -1.
         22    1    1    2    0    0 -0.10646735451E+03  0.27262301542E+03  0.13047778041E+04  0.13371999567E+04  0.00000000000E+00 0. -1.
<mgrwt>
<rscale>  0 0.13273541E+04</rscale>
<asrwt>0</asrwt>
<pdfrwt beam="1">  1        2 0.21534743E+00 0.13273541E+04</pdfrwt>
<pdfrwt beam="2">  1       -2 0.48411353E-01 0.13273541E+04</pdfrwt>
<totfact> 0.57216629E+01</totfact>
</mgrwt>
</event>
<event>
 6    1  0.2047711E-005  0.5706320E+04  0.7818608E-02  0.7727920E-01
         -2   -1    0    0    0  501 -0.00000000000E+00  0.00000000000E+00  0.23019076303E+04  0.23019076303E+04  0.00000000000E+00 0.  1.
          2   -1    0    0  501    0  0.00000000000E+00 -0.00000000000E+00 -0.35364242431E+04  0.35364242431E+04  0.00000000000E+00 0. -1.
         23    2    1    2    0    0 -0.11871175692E+04  0.25932133841E+04 -0.66544745360E+03  0.29300946949E+04  0.92902255950E+02 0.  0.
         11    1    3    3    0    0 -0.42131674952E+03  0.10284172228E+04 -0.25366283775E+03  0.11399537810E+04  0.00000000000E+00 0. -1.
        -11    1    3    3    0    0 -0.76580081969E+03  0.15647961613E+04 -0.41178461585E+03  0.17901409139E+04  0.00000000000E+00 0.  1.
         22    1    1    2    0    0  0.11871175692E+04 -0.25932133841E+04 -0.56906915918E+03  0.29082371785E+04  0.00000000000E+00 0. -1.
<mgrwt>
<rscale>  0 0.57063200E+04</rscale>
<asrwt>0</asrwt>
<pdfrwt beam="1">  1        2 0.54406527E+00 0.57063200E+04</pdfrwt>
<pdfrwt beam="2">  1       -2 0.35413964E+00 0.57063200E+04</pdfrwt>
<totfact> 0.77136812E-03</totfact>
</mgrwt>
</event>
<event>
 6    1  0.2047711E-005  0.2082642E+04  0.7818608E-02  0.8568928E-01
         -2   -1    0    0    0  501 -0.00000000000E+00  0.00000000000E+00  0.90430167016E+03  0.90430167016E+03  0.00000000000E+00 0.  1.
          2   -1    0    0  501    0  0.00000000000E+00 -0.00000000000E+00 -0.11991020016E+04  0.11991020016E+04  0.00000000000E+00 0. -1.
         23    2    1    2    0    0 -0.17571150768E+03 -0.35108046809E+03 -0.11195446587E+04  0.11899841437E+04  0.92466157948E+02 0.  0.
         11    1    3    3    0    0 -0.85759176178E+02 -0.25206598952E+03 -0.81397739910E+03  0.85641760002E+03  0.00000000000E+00 0. -1.
        -11    1    3    3    0    0 -0.89952331498E+02 -0.99014478563E+02 -0.30556725963E+03  0.33356654368E+03  0.00000000000E+00 0.  1.
         22    1    1    2    0    0  0.17571150768E+03  0.35108046809E+03  0.82474432724E+03  0.91341952810E+03  0.00000000000E+00 0.  1.
<mgrwt>
<rscale>  0 0.20826425E+04</rscale>
<asrwt>0</asrwt>
<pdfrwt beam="1">  1        2 0.18447723E+00 0.20826425E+04</pdfrwt>
<pdfrwt beam="2">  1       -2 0.13912333E+00 0.20826425E+04</pdfrwt>
<totfact> 0.63899312E+00</totfact>
</mgrwt>
</event>
<event>
 6    1  0.2047711E-005  0.2817855E+04  0.7818608E-02  0.8297747E-01
          2   -1    0    0  501    0  0.00000000000E+00  0.00000000000E+00  0.95968332935E+03  0.95968332935E+03  0.00000000000E+00 0. -1.
         -2   -1    0    0    0  501 -0.00000000000E+00 -0.00000000000E+00 -0.20684701260E+04  0.20684701260E+04  0.00000000000E+00 0.  1.
         23    2    1    2    0    0  0.13926297564E+04 -0.15090117151E+03 -0.40821602132E+03  0.14619516122E+04  0.92051042109E+02 0.  0.
         13    1    3    3    0    0  0.44497225595E+03 -0.50924774315E+02 -0.17546893357E+03  0.48102285586E+03  0.00000000000E+00 0.  1.
        -13    1    3    3    0    0  0.94765750049E+03 -0.99976397194E+02 -0.23274708774E+03  0.98092875637E+03  0.00000000000E+00 0. -1.
         22    1    1    2    0    0 -0.13926297564E+04  0.15090117151E+03 -0.70057077530E+03  0.15662018431E+04  0.00000000000E+00 0.  1.
<mgrwt>
<rscale>  0 0.28178547E+04</rscale>
<asrwt>0</asrwt>
<pdfrwt beam="1">  1        2 0.14764359E+00 0.28178547E+04</pdfrwt>
<pdfrwt beam="2">  1       -2 0.31822617E+00 0.28178547E+04</pdfrwt>
<totfact> 0.57083296E-01</totfact>
</mgrwt>
</event>
<event>
 6    1  0.2047711E-005  0.2702094E+04  0.7818608E-02  0.8334326E-01
          2   -1    0    0  501    0  0.00000000000E+00  0.00000000000E+00  0.44793222417E+04  0.44793222417E+04  0.00000000000E+00 0. -1.
         -2   -1    0    0    0  501 -0.00000000000E+00 -0.00000000000E+00 -0.40750106704E+03  0.40750106704E+03  0.00000000000E+00 0.  1.
         23    2    1    2    0    0 -0.87726492983E+03  0.10261460141E+04  0.19879368397E+04  0.24038526442E+04  0.63602334941E+02 0.  0.
         11    1    3    3    0    0 -0.71084209482E+03  0.85149717833E+03  0.16684578077E+04  0.20035207472E+04  0.00000000000E+00 0.  1.
        -11    1    3    3    0    0 -0.16642283501E+03  0.17464883580E+03  0.31947903205E+03  0.40033189703E+03  0.00000000000E+00 0. -1.
         22    1    1    2    0    0  0.87726492983E+03 -0.10261460141E+04  0.20838843349E+04  0.24829706645E+04  0.00000000000E+00 0. -1.
<mgrwt>
<rscale>  0 0.27020944E+04</rscale>
<asrwt>0</asrwt>
<pdfrwt beam="1">  1        2 0.68912646E+00 0.27020944E+04</pdfrwt>
<pdfrwt beam="2">  1       -2 0.62692475E-01 0.27020944E+04</pdfrwt>
<totfact> 0.26749170E-01</totfact>
</mgrwt>
</event>
<event>
 6    1  0.2047711E-005  0.1205879E+04  0.7818608E-02  0.9107726E-01
          2   -1    0    0  501    0  0.00000000000E+00  0.00000000000E+00  0.15458654878E+04  0.15458654878E+04  0.00000000000E+00 0.  1.
         -2   -1    0    0    0  501 -0.00000000000E+00 -0.00000000000E+00 -0.23516672082E+03  0.23516672082E+03  0.00000000000E+00 0. -1.
         23    2    1    2    0    0 -0.26008636434E+03 -0.49243361742E+03  0.33149602735E+03  0.65454484082E+03  0.91670867864E+02 0.  0.
         13    1    3    3    0    0 -0.73241342819E+02 -0.79522165501E+02  0.38005576082E+02  0.11459708948E+03  0.00000000000E+00 0. -1.
        -13    1    3    3    0    0 -0.18684502153E+03 -0.41291145192E+03  0.29349045126E+03  0.53994775134E+03  0.00000000000E+00 0.  1.
         22    1    1    2    0    0  0.26008636434E+03  0.49243361742E+03  0.97920273960E+03  0.11264873678E+04  0.00000000000E+00 0. -1.
<mgrwt>
<rscale>  0 0.12058791E+04</rscale>
<asrwt>0</asrwt>
<pdfrwt beam="1">  1        2 0.23782545E+00 0.12058791E+04</pdfrwt>
<pdfrwt beam="2">  1       -2 0.36179496E-01 0.12058791E+04</pdfrwt>
<totfact> 0.84756371E+01</totfact>
</mgrwt>
</event>
<event>
 6    1  0.2047711E-005  0.3822754E+04  0.7818608E-02  0.8041290E-01
          2   -1    0    0  501    0  0.00000000000E+00  0.00000000000E+00  0.13227971088E+04  0.13227971088E+04  0.00000000000E+00 0. -1.
         -2   -1    0    0    0  501 -0.00000000000E+00 -0.00000000000E+00 -0.27618458597E+04  0.27618458597E+04  0.00000000000E+00 0.  1.
         23    2    1    2    0    0 -0.29598805078E+03  0.85998512452E+03 -0.25148835031E+04  0.26758833173E+04  0.92353414500E+02 0.  0.
         13    1    3    3    0    0 -0.20425019247E+03  0.50148812905E+03 -0.13928213029E+04  0.14943760124E+04  0.00000000000E+00 0. -1.
        -13    1    3    3    0    0 -0.91737858306E+02  0.35849699547E+03 -0.11220622002E+04  0.11815073049E+04  0.00000000000E+00 0.  1.
         22    1    1    2    0    0  0.29598805078E+03 -0.85998512452E+03  0.10758347522E+04  0.14087596512E+04  0.00000000000E+00 0. -1.
<mgrwt>
<rscale>  0 0.38227538E+04</rscale>
<asrwt>0</asrwt>
<pdfrwt beam="1">  1        2 0.20350725E+00 0.38227538E+04</pdfrwt>
<pdfrwt beam="2">  1       -2 0.42489936E+00 0.38227538E+04</pdfrwt>
<totfact> 0.65260137E-02</totfact>
</mgrwt>
</event>
<event>
 6    1  0.2047711E-005  0.2036676E+04  0.7818608E-02  0.8589663E-01
         -2   -1    0    0    0  501 -0.00000000000E+00  0.00000000000E+00  0.78249869547E+03  0.78249869547E+03  0.00000000000E+00 0. -1.
          2   -1    0    0  501    0  0.00000000000E+00 -0.00000000000E+00 -0.13252569445E+04  0.13252569445E+04  0.00000000000E+00 0.  1.
         23    2    1    2    0    0  0.77491169874E+03  0.53774607170E+03 -0.66374511450E+03  0.11568104259E+04  0.89408087030E+02 0.  0.
         11    1    3    3    0    0  0.44554272892E+03  0.35894179001E+03 -0.41987701525E+03  0.70967896957E+03  0.00000000000E+00 0. -1.
        -11    1    3    3    0    0  0.32936896982E+03  0.17880428169E+03 -0.24386809924E+03  0.44713145635E+03  0.00000000000E+00 0.  1.
         22    1    1    2    0    0 -0.77491169874E+03 -0.53774607170E+03  0.12098686548E+03  0.95094521404E+03  0.00000000000E+00 0. -1.
<mgrwt>
<rscale>  0 0.20366756E+04</rscale>
<asrwt>0</asrwt>
<pdfrwt beam="1">  1        2 0.20388568E+00 0.20366756E+04</pdfrwt>
<pdfrwt beam="2">  1       -2 0.12038442E+00 0.20366756E+04</pdfrwt>
<totfact> 0.77996006E+00</totfact>
</mgrwt>
</event>
<event>
 6    1  0.2047711E-005  0.2161384E+04  0.7818608E-02  0.8534675E-01
          2   -1    0    0  501    0  0.00000000000E+00  0.00000000000E+00  0.53966664240E+03  0.53966664240E+03  0.00000000000E+00 0. -1.
         -2   -1    0    0    0  501 -0.00000000000E+00 -0.00000000000E+00 -0.21641054524E+04  0.21641054524E+04  0.00000000000E+00 0.  1.
         23    2    1    2    0    0 -0.73588809429E+03  0.68165533901E+03 -0.31732273796E+03  0.10561259816E+04  0.92320531192E+02 0.  0.
         11    1    3    3    0    0 -0.37996101584E+03  0.37651242502E+03 -0.21347982873E+03  0.57593890043E+03  0.00000000000E+00 0.  1.
        -11    1    3    3    0    0 -0.35592707845E+03  0.30514291399E+03 -0.10384290923E+03  0.48018708118E+03  0.00000000000E+00 0. -1.
         22    1    1    2    0    0  0.73588809429E+03 -0.68165533901E+03 -0.13071160721E+04  0.16476461132E+04  0.00000000000E+00 0.  1.
<mgrwt>
<rscale>  0 0.21613843E+04</rscale>
<asrwt>0</asrwt>
<pdfrwt beam="1">  1        2 0.83025636E-01 0.21613843E+04</pdfrwt>
<pdfrwt beam="2">  1       -2 0.33293930E+00 0.21613843E+04</pdfrwt>
<totfact> 0.10288180E+00</totfact>
</mgrwt>
</event>
<event>
 6    1  0.2047711E-005  0.5054223E+04  0.7818608E-02  0.7820197E-01
         -2   -1    0    0    0  501 -0.00000000000E+00  0.00000000000E+00  0.27944326027E+04  0.27944326027E+04  0.00000000000E+00 0.  1.
          2   -1    0    0  501    0  0.00000000000E+00 -0.00000000000E+00 -0.22853625126E+04  0.22853625126E+04  0.00000000000E+00 0. -1.
         23    2    1    2    0    0  0.42324936518E+03  0.20667229115E+04 -0.11422124109E+04  0.24007621710E+04  0.92337383026E+02 0.  0.
         11    1    3    3    0    0  0.22241851343E+03  0.88689715059E+03 -0.46940093011E+03  0.10278101887E+04  0.00000000000E+00 0. -1.
        -11    1    3    3    0    0  0.20083085175E+03  0.11798257609E+04 -0.67281148078E+03  0.13729519823E+04  0.00000000000E+00 0.  1.
         22    1    1    2    0    0 -0.42324936518E+03 -0.20667229115E+04  0.16512825010E+04  0.26790329442E+04  0.00000000000E+00 0.  1.
<mgrwt>
<rscale>  0 0.50542226E+04</rscale>
<asrwt>0</asrwt>
<pdfrwt beam="1">  1        2 0.35159423E+00 0.50542226E+04</pdfrwt>
<pdfrwt beam="2">  1       -2 0.42991271E+00 0.50542226E+04</pdfrwt>
<totfact> 0.15822296E-02</totfact>
</mgrwt>
</event>
<event>
 6    1  0.2047711E-005  0.1108414E+04  0.7818608E-02  0.9197030E-01
          2   -1    0    0  501    0  0.00000000000E+00  0.00000000000E+00  0.26130549608E+04  0.26130549608E+04  0.00000000000E+00 0. -1.
         -2   -1    0    0    0  501 -0.00000000000E+00 -0.00000000000E+00 -0.11754259935E+03  0.11754259935E+03  0.00000000000E+00 0.  1.
         23    2    1    2    0    0  0.35150828556E+03 -0.55175358768E+01  0.22996705662E+04  0.23281767272E+04  0.91288783525E+02 0.  0.
         13    1    3    3    0    0  0.23948919071E+03  0.17824169620E+02  0.17751048075E+04  0.17912760399E+04  0.00000000000E+00 0. -1.
        -13    1    3    3    0    0  0.11201909485E+03 -0.23341705497E+02  0.52456575874E+03  0.53690068734E+03  0.00000000000E+00 0.  1.
         22    1    1    2    0    0 -0.35150828556E+03  0.55175358768E+01  0.19584179522E+03  0.40242083293E+03  0.00000000000E+00 0.  1.
<mgrwt>
<rscale>  0 0.11084138E+04</rscale>
<asrwt>0</asrwt>
<pdfrwt beam="1">  1        2 0.40200841E+00 0.11084138E+04</pdfrwt>
<pdfrwt beam="2">  1       -2 0.18083479E-01 0.11084138E+04</pdfrwt>
<totfact> 0.76421596E+01</totfact>
</mgrwt>
</event>
<event>
 6    1  0.2047711E-005  0.2571232E+04  0.7818608E-02  0.8378039E-01
          2   -1    0    0  501    0  0.00000000000E+00  0.00000000000E+00  0.18167917184E+04  0.18167917184E+04  0.00000000000E+00 0. -1.
         -2   -1    0    0    0  501 -0.00000000000E+00 -0.00000000000E+00 -0.90974055571E+03  0.90974055571E+03  0.00000000000E+00 0.  1.
         23    2    1    2    0    0 -0.38418009462E+03 -0.31991150859E+03 -0.79998597126E+03  0.94779297473E+03  0.91631055346E+02 0.  0.
         11    1    3    3    0    0 -0.24349678795E+03 -0.15957796253E+03 -0.40337170797E+03  0.49745808533E+03  0.00000000000E+00 0.  1.
        -11    1    3    3    0    0 -0.14068330667E+03 -0.16033354605E+03 -0.39661426330E+03  0.45033488941E+03  0.00000000000E+00 0. -1.
         22    1    1    2    0    0  0.38418009462E+03  0.31991150859E+03  0.17070371339E+04  0.17787392993E+04  0.00000000000E+00 0. -1.
<mgrwt>
<rscale>  0 0.25712325E+04</rscale>
<asrwt>0</asrwt>
<pdfrwt beam="1">  1        2 0.27950642E+00 0.25712325E+04</pdfrwt>
<pdfrwt beam="2">  1       -2 0.13996009E+00 0.25712325E+04</pdfrwt>
<totfact> 0.26918460E+00</totfact>
</mgrwt>
</event>
<event>
 6    1  0.2047711E-005  0.3420898E+04  0.7818608E-02  0.8132796E-01
          2   -1    0    0  501    0  0.00000000000E+00  0.00000000000E+00  0.27557423034E+04  0.27557423034E+04  0.00000000000E+00 0.  1.
         -2   -1    0    0    0  501 -0.00000000000E+00 -0.00000000000E+00 -0.10616505718E+04  0.10616505718E+04  0.00000000000E+00 0. -1.
         23    2    1    2    0    0  0.15692415922E+04  0.65683831236E+03  0.10329914267E+04  0.19922875751E+04  0.90458560257E+02 0.  0.
         11    1    3    3    0    0  0.94804472330E+03  0.44353189948E+03  0.64527005824E+03  0.12295864310E+04  0.00000000000E+00 0. -1.
        -11    1    3    3    0    0  0.62119686888E+03  0.21330641289E+03  0.38772136841E+03  0.76270114410E+03  0.00000000000E+00 0.  1.
         22    1    1    2    0    0 -0.15692415922E+04 -0.65683831236E+03  0.66110030491E+03  0.18251053001E+04  0.00000000000E+00 0.  1.
<mgrwt>
<rscale>  0 0.34208978E+04</rscale>
<asrwt>0</asrwt>
<pdfrwt beam="1">  1        2 0.42396035E+00 0.34208978E+04</pdfrwt>
<pdfrwt beam="2">  1       -2 0.16333086E+00 0.34208978E+04</pdfrwt>
<totfact> 0.48401075E-01</totfact>
</mgrwt>
</event>
<event>
 6    1  0.2047711E-005  0.2001730E+04  0.7818608E-02  0.8605812E-01
          2   -1    0    0  501    0  0.00000000000E+00  0.00000000000E+00  0.11542274078E+04  0.11542274078E+04  0.00000000000E+00 0. -1.
         -2   -1    0    0    0  501 -0.00000000000E+00 -0.00000000000E+00 -0.86787973938E+03  0.86787973938E+03  0.00000000000E+00 0.  1.
         23    2    1    2    0    0 -0.97768886352E+03 -0.19196373699E+03  0.21320640117E+03  0.10230699931E+04  0.92139303221E+02 0.  0.
         13    1    3    3    0    0 -0.48692227723E+03 -0.69244708663E+02  0.66136786857E+02  0.49624813180E+03  0.00000000000E+00 0.  1.
        -13    1    3    3    0    0 -0.49076658629E+03 -0.12271902832E+03  0.14706961432E+03  0.52682186134E+03  0.00000000000E+00 0. -1.
         22    1    1    2    0    0  0.97768886352E+03  0.19196373699E+03  0.73141267234E+02  0.99903715403E+03  0.00000000000E+00 0.  1.
<mgrwt>
<rscale>  0 0.20017298E+04</rscale>
<asrwt>0</asrwt>
<pdfrwt beam="1">  1        2 0.17757345E+00 0.20017298E+04</pdfrwt>
<pdfrwt beam="2">  1       -2 0.13351996E+00 0.20017298E+04</pdfrwt>
<totfact> 0.76085138E+00</totfact>
</mgrwt>
</event>
<event>
 6    1  0.2047711E-005  0.2358055E+04  0.7818608E-02  0.8455376E-01
          2   -1    0    0  501    0  0.00000000000E+00  0.00000000000E+00  0.15063368876E+04  0.15063368876E+04  0.00000000000E+00 0. -1.
         -2   -1    0    0    0  501 -0.00000000000E+00 -0.00000000000E+00 -0.92283850741E+03  0.92283850741E+03  0.00000000000E+00 0.  1.
         23    2    1    2    0    0 -0.22660278059E+03 -0.83719980365E+03 -0.52706888449E+03  0.10200579475E+04  0.10229504350E+03 0.  0.
         13    1    3    3    0    0 -0.16779425982E+03 -0.55071485776E+03 -0.40091001973E+03  0.70154872397E+03  0.00000000000E+00 0. -1.
        -13    1    3    3    0    0 -0.58808520767E+02 -0.28648494589E+03 -0.12615886477E+03  0.31850922357E+03  0.00000000000E+00 0.  1.
         22    1    1    2    0    0  0.22660278059E+03  0.83719980365E+03  0.11105672647E+04  0.14091174475E+04  0.00000000000E+00 0. -1.
<mgrwt>
<rscale>  0 0.23580549E+04</rscale>
<asrwt>0</asrwt>
<pdfrwt beam="1">  1        2 0.23174414E+00 0.23580549E+04</pdfrwt>
<pdfrwt beam="2">  1       -2 0.14197515E+00 0.23580549E+04</pdfrwt>
<totfact> 0.39344184E+00</totfact>
</mgrwt>
</event>
<event>
 6    1  0.2047711E-005  0.1878635E+04  0.7818608E-02  0.8665565E-01
         -2   -1    0    0    0  501 -0.00000000000E+00  0.00000000000E+00  0.56439653657E+03  0.56439653657E+03  0.00000000000E+00 0.  1.
          2   -1    0    0  501    0  0.00000000000E+00 -0.00000000000E+00 -0.15632939894E+04  0.15632939894E+04  0.00000000000E+00 0. -1.
         23    2    1    2    0    0 -0.52752311337E+03  0.39220763876E+03  0.25581260398E+03  0.71121433707E+03  0.90985041966E+02 0.  0.
         13    1    3    3    0    0 -0.16288697592E+03  0.14732253136E+03  0.12597061611E+03  0.25318904261E+03  0.00000000000E+00 0. -1.
        -13    1    3    3    0    0 -0.36463613744E+03  0.24488510740E+03  0.12984198787E+03  0.45802529447E+03  0.00000000000E+00 0.  1.
         22    1    1    2    0    0  0.52752311337E+03 -0.39220763876E+03 -0.12547100568E+04  0.14164761889E+04  0.00000000000E+00 0. -1.
<mgrwt>
<rscale>  0 0.18786354E+04</rscale>
<asrwt>0</asrwt>
<pdfrwt beam="1">  1        2 0.24050676E+00 0.18786354E+04</pdfrwt>
<pdfrwt beam="2">  1       -2 0.86830238E-01 0.18786354E+04</pdfrwt>
<totfact> 0.12590113E+01</totfact>
</mgrwt>
</event>
<event>
 6    1  0.2047711E-005  0.8376166E+03  0.7818608E-02  0.9507110E-01
          2   -1    0    0  501    0  0.00000000000E+00  0.00000000000E+00  0.19164459238E+04  0.19164459238E+04  0.00000000000E+00 0. -1.
         -2   -1    0    0    0  501 -0.00000000000E+00 -0.00000000000E+00 -0.91523785809E+02  0.91523785809E+02  0.00000000000E+00 0.  1.
         23    2    1    2    0    0  0.29397146548E+03  0.19360479101E+03  0.40252621096E+03  0.54266693856E+03  0.92509556663E+02 0.  0.
         11    1    3    3    0    0  0.47964914358E+02  0.24074960563E+02  0.19950649370E+02  0.57256136315E+02  0.00000000000E+00 0.  1.
        -11    1    3    3    0    0  0.24600655112E+03  0.16952983045E+03  0.38257556159E+03  0.48541080225E+03  0.00000000000E+00 0. -1.
         22    1    1    2    0    0 -0.29397146548E+03 -0.19360479101E+03  0.14223959271E+04  0.14653027711E+04  0.00000000000E+00 0. -1.
<mgrwt>
<rscale>  0 0.83761659E+03</rscale>
<asrwt>0</asrwt>
<pdfrwt beam="1">  1        2 0.29483781E+00 0.83761659E+03</pdfrwt>
<pdfrwt beam="2">  1       -2 0.14080584E-01 0.83761659E+03</pdfrwt>
<totfact> 0.29418340E+02</totfact>
</mgrwt>
</event>
<event>
 6    1  0.2047711E-005  0.2708238E+04  0.7818608E-02  0.8332337E-01
          2   -1    0    0  501    0  0.00000000000E+00  0.00000000000E+00  0.90106456846E+03  0.90106456846E+03  0.00000000000E+00 0. -1.
         -2   -1    0    0    0  501 -0.00000000000E+00 -0.00000000000E+00 -0.20349692450E+04  0.20349692450E+04  0.00000000000E+00 0.  1.
         23    2    1    2    0    0  0.13292284928E+04  0.22637720418E+03 -0.68338460467E+03  0.15143927337E+04  0.90971474282E+02 0.  0.
         13    1    3    3    0    0  0.63353825529E+03  0.11698778979E+03 -0.37647799228E+03  0.74618532721E+03  0.00000000000E+00 0. -1.
        -13    1    3    3    0    0  0.69569023754E+03  0.10938941438E+03 -0.30690661239E+03  0.76820740645E+03  0.00000000000E+00 0.  1.
         22    1    1    2    0    0 -0.13292284928E+04 -0.22637720418E+03 -0.45052007190E+03  0.14216410798E+04  0.00000000000E+00 0. -1.
<mgrwt>
<rscale>  0 0.27082383E+04</rscale>
<asrwt>0</asrwt>
<pdfrwt beam="1">  1        2 0.13862532E+00 0.27082383E+04</pdfrwt>
<pdfrwt beam="2">  1       -2 0.31307219E+00 0.27082383E+04</pdfrwt>
<totfact> 0.67806718E-01</totfact>
</mgrwt>
</event>
<event>
 6    1  0.2047711E-005  0.4093731E+04  0.7818608E-02  0.7985901E-01
          2   -1    0    0  501    0  0.00000000000E+00  0.00000000000E+00  0.36263821366E+04  0.36263821366E+04  0.00000000000E+00 0. -1.
         -2   -1    0    0    0  501 -0.00000000000E+00 -0.00000000000E+00 -0.11553271569E+04  0.11553271569E+04  0.00000000000E+00 0.  1.
         23    2    1    2    0    0 -0.17494600207E+03 -0.90470753116E+03  0.33697368573E+04  0.34945686882E+04  0.88215692624E+02 0.  0.
         11    1    3    3    0    0 -0.96082988351E+02 -0.67870127622E+03  0.25613413486E+04  0.26514782418E+04  0.00000000000E+00 0. -1.
        -11    1    3    3    0    0 -0.78863013718E+02 -0.22600625494E+03  0.80839550871E+03  0.84309044634E+03  0.00000000000E+00 0.  1.
         22    1    1    2    0    0  0.17494600207E+03  0.90470753116E+03 -0.89868187762E+03  0.12871406053E+04  0.00000000000E+00 0.  1.
<mgrwt>
<rscale>  0 0.40937307E+04</rscale>
<asrwt>0</asrwt>
<pdfrwt beam="1">  1        2 0.55790494E+00 0.40937307E+04</pdfrwt>
<pdfrwt beam="2">  1       -2 0.17774264E+00 0.40937307E+04</pdfrwt>
<totfact> 0.97037082E-02</totfact>
</mgrwt>
</event>
<event>
 6    1  0.2047711E-005  0.1254692E+04  0.7818608E-02  0.9066287E-01
         -1   -1    0    0    0  501 -0.00000000000E+00  0.00000000000E+00  0.15085284974E+03  0.15085284974E+03  0.00000000000E+00 0.  1.
          1   -1    0    0  501    0  0.00000000000E+00 -0.00000000000E+00 -0.26089215949E+04  0.26089215949E+04  0.00000000000E+00 0. -1.
         23    2    1    2    0    0  0.54068751290E+03 -0.22305709317E+03 -0.17139207227E+04  0.18132789440E+04  0.91426645753E+02 0.  0.
         13    1    3    3    0    0  0.39788032045E+03 -0.15855904799E+03 -0.13689008249E+04  0.14343427727E+04  0.00000000000E+00 0.  1.
        -13    1    3    3    0    0  0.14280719245E+03 -0.64498045180E+02 -0.34501989781E+03  0.37893617132E+03  0.00000000000E+00 0. -1.
         22    1    1    2    0    0 -0.54068751290E+03  0.22305709317E+03 -0.74414802240E+03  0.94649550060E+03  0.00000000000E+00 0.  1.
<mgrwt>
<rscale>  0 0.12546924E+04</rscale>
<asrwt>0</asrwt>
<pdfrwt beam="1">  1        1 0.40137256E+00 0.12546924E+04</pdfrwt>
<pdfrwt beam="2">  1       -1 0.23208130E-01 0.12546924E+04</pdfrwt>
<totfact> 0.17951525E+01</totfact>
</mgrwt>
</event>
<event>
 6    1  0.2047711E-005  0.2777550E+04  0.7818608E-02  0.8310272E-01
         -2   -1    0    0    0  501 -0.00000000000E+00  0.00000000000E+00  0.61441719089E+03  0.61441719089E+03  0.00000000000E+00 0.  1.
          2   -1    0    0  501    0  0.00000000000E+00 -0.00000000000E+00 -0.31390669045E+04  0.31390669045E+04  0.00000000000E+00 0. -1.
         23    2    1    2    0    0 -0.79566692101E+01 -0.10855733820E+04 -0.96441525584E+02  0.10936480326E+04  0.90731334521E+02 0.  0.
         11    1    3    3    0    0  0.19299269908E+02 -0.98208712534E+03 -0.82652580249E+02  0.98574795592E+03  0.00000000000E+00 0. -1.
        -11    1    3    3    0    0 -0.27255939118E+02 -0.10348625669E+03 -0.13788945335E+02  0.10790007671E+03  0.00000000000E+00 0.  1.
         22    1    1    2    0    0  0.79566692101E+01  0.10855733820E+04 -0.24282081880E+04  0.26598360628E+04  0.00000000000E+00 0. -1.
<mgrwt>
<rscale>  0 0.27775505E+04</rscale>
<asrwt>0</asrwt>
<pdfrwt beam="1">  1        2 0.48293337E+00 0.27775505E+04</pdfrwt>
<pdfrwt beam="2">  1       -2 0.94525721E-01 0.27775505E+04</pdfrwt>
<totfact> 0.11671948E+00</totfact>
</mgrwt>
</event>
<event>
 6    1  0.2047711E-005  0.1176490E+04  0.7818608E-02  0.9133687E-01
          2   -1    0    0  501    0  0.00000000000E+00  0.00000000000E+00  0.17483397392E+04  0.17483397392E+04  0.00000000000E+00 0. -1.
         -2   -1    0    0    0  501 -0.00000000000E+00 -0.00000000000E+00 -0.19792047451E+03  0.19792047451E+03  0.00000000000E+00 0.  1.
         23    2    1    2    0    0  0.20598096779E+03  0.46070879425E+03  0.29142126502E+03  0.58988389595E+03  0.91410638335E+02 0.  0.
         13    1    3    3    0    0  0.16889208108E+02  0.57785207524E+02  0.71369596033E+02  0.93370202940E+02  0.00000000000E+00 0. -1.
        -13    1    3    3    0    0  0.18909175969E+03  0.40292358673E+03  0.22005166899E+03  0.49651369301E+03  0.00000000000E+00 0.  1.
         22    1    1    2    0    0 -0.20598096779E+03 -0.46070879425E+03  0.12589979997E+04  0.13563763178E+04  0.00000000000E+00 0. -1.
<mgrwt>
<rscale>  0 0.11764901E+04</rscale>
<asrwt>0</asrwt>
<pdfrwt beam="1">  1        2 0.26897533E+00 0.11764901E+04</pdfrwt>
<pdfrwt beam="2">  1       -2 0.30449305E-01 0.11764901E+04</pdfrwt>
<totfact> 0.90858018E+01</totfact>
</mgrwt>
</event>
<event>
 6    1  0.2047711E-005  0.1406808E+04  0.7818608E-02  0.8948905E-01
          2   -1    0    0  501    0  0.00000000000E+00  0.00000000000E+00  0.13035295189E+04  0.13035295189E+04  0.00000000000E+00 0. -1.
         -2   -1    0    0    0  501 -0.00000000000E+00 -0.00000000000E+00 -0.37956743436E+03  0.37956743436E+03  0.00000000000E+00 0.  1.
         23    2    1    2    0    0 -0.16823273686E+03  0.15000052361E+03 -0.33001578130E+03  0.40902360418E+03  0.87106153818E+02 0.  0.
         13    1    3    3    0    0 -0.15715961926E+03  0.15910227186E+03 -0.28801362689E+03  0.36464301462E+03  0.00000000000E+00 0. -1.
        -13    1    3    3    0    0 -0.11073117602E+02 -0.91017482479E+01 -0.42002154407E+02  0.44380589557E+02  0.00000000000E+00 0.  1.
         22    1    1    2    0    0  0.16823273686E+03 -0.15000052361E+03  0.12539778658E+04  0.12740733491E+04  0.00000000000E+00 0. -1.
<mgrwt>
<rscale>  0 0.14068082E+04</rscale>
<asrwt>0</asrwt>
<pdfrwt beam="1">  1        2 0.20054300E+00 0.14068082E+04</pdfrwt>
<pdfrwt beam="2">  1       -2 0.58394991E-01 0.14068082E+04</pdfrwt>
<totfact> 0.43893615E+01</totfact>
</mgrwt>
</event>
<event>
 6    1  0.2047711E-005  0.3445440E+04  0.7818608E-02  0.8126843E-01
          2   -1    0    0  501    0  0.00000000000E+00  0.00000000000E+00  0.31331458041E+04  0.31331458041E+04  0.00000000000E+00 0.  1.
         -2   -1    0    0    0  501 -0.00000000000E+00 -0.00000000000E+00 -0.94721569274E+03  0.94721569274E+03  0.00000000000E+00 0. -1.
         23    2    1    2    0    0 -0.25789432087E+03  0.14291699543E+04 -0.13986050004E+01  0.14548247608E+04  0.86469008218E+02 0.  0.
         13    1    3    3    0    0 -0.14243293046E+03  0.10005117096E+04  0.12376869482E+02  0.10106750258E+04  0.00000000000E+00 0.  1.
        -13    1    3    3    0    0 -0.11546139041E+03  0.42865824469E+03 -0.13775474483E+02  0.44414973502E+03  0.00000000000E+00 0. -1.
         22    1    1    2    0    0  0.25789432087E+03 -0.14291699543E+04  0.21873287164E+04  0.26255367361E+04  0.00000000000E+00 0.  1.
<mgrwt>
<rscale>  0 0.34454404E+04</rscale>
<asrwt>0</asrwt>
<pdfrwt beam="1">  1        2 0.48202243E+00 0.34454404E+04</pdfrwt>
<pdfrwt beam="2">  1       -2 0.14572549E+00 0.34454404E+04</pdfrwt>
<totfact> 0.38213257E-01</totfact>
</mgrwt>
</event>
<event>
 6    1  0.2047711E-005  0.3343591E+04  0.7818608E-02  0.8151891E-01
          2   -1    0    0  501    0  0.00000000000E+00  0.00000000000E+00  0.26902064541E+04  0.26902064541E+04  0.00000000000E+00 0. -1.
         -2   -1    0    0    0  501 -0.00000000000E+00 -0.00000000000E+00 -0.10389167622E+04  0.10389167622E+04  0.00000000000E+00 0.  1.
         23    2    1    2    0    0  0.81686004863E+03  0.78062290086E+03  0.21986694540E+04  0.24736324531E+04  0.89875984818E+02 0.  0.
         13    1    3    3    0    0  0.19227450279E+03  0.18276001772E+03  0.60309637277E+03  0.65885957787E+03  0.00000000000E+00 0. -1.
        -13    1    3    3    0    0  0.62458554584E+03  0.59786288313E+03  0.15955730813E+04  0.18147728752E+04  0.00000000000E+00 0.  1.
         22    1    1    2    0    0 -0.81686004863E+03 -0.78062290086E+03 -0.54737976212E+03  0.12554907632E+04  0.00000000000E+00 0.  1.
<mgrwt>
<rscale>  0 0.33435912E+04</rscale>
<asrwt>0</asrwt>
<pdfrwt beam="1">  1        2 0.41387791E+00 0.33435912E+04</pdfrwt>
<pdfrwt beam="2">  1       -2 0.15983335E+00 0.33435912E+04</pdfrwt>
<totfact> 0.56563559E-01</totfact>
</mgrwt>
</event>
<event>
 6    1  0.2047711E-005  0.2899860E+04  0.7818608E-02  0.8272919E-01
          1   -1    0    0  501    0  0.00000000000E+00  0.00000000000E+00  0.17544402374E+04  0.17544402374E+04  0.00000000000E+00 0.  1.
         -1   -1    0    0    0  501 -0.00000000000E+00 -0.00000000000E+00 -0.11982719396E+04  0.11982719396E+04  0.00000000000E+00 0. -1.
         23    2    1    2    0    0 -0.44325109435E+03 -0.48376929481E+03 -0.10364609738E+04  0.12302220435E+04  0.93223724159E+02 0.  0.
         13    1    3    3    0    0 -0.32769081060E+03 -0.34103677996E+03 -0.81737034438E+03  0.94434190445E+03  0.00000000000E+00 0.  1.
        -13    1    3    3    0    0 -0.11556028375E+03 -0.14273251484E+03 -0.21909062944E+03  0.28588013901E+03  0.00000000000E+00 0. -1.
         22    1    1    2    0    0  0.44325109435E+03  0.48376929481E+03  0.15926292716E+04  0.17224901335E+04  0.00000000000E+00 0.  1.
<mgrwt>
<rscale>  0 0.28998597E+04</rscale>
<asrwt>0</asrwt>
<pdfrwt beam="1">  1        1 0.26991388E+00 0.28998597E+04</pdfrwt>
<pdfrwt beam="2">  1       -1 0.18434953E+00 0.28998597E+04</pdfrwt>
<totfact> 0.72762147E-01</totfact>
</mgrwt>
</event>
<event>
 6    1  0.2047711E-005  0.1472518E+04  0.7818608E-02  0.8902937E-01
          2   -1    0    0  501    0  0.00000000000E+00  0.00000000000E+00  0.32655513314E+03  0.32655513314E+03  0.00000000000E+00 0. -1.
         -2   -1    0    0    0  501 -0.00000000000E+00 -0.00000000000E+00 -0.16599867542E+04  0.16599867542E+04  0.00000000000E+00 0.  1.
         23    2    1    2    0    0 -0.58960441563E+03  0.37679086489E+03 -0.96616566075E+03  0.11962957178E+04  0.89680754510E+02 0.  0.
         11    1    3    3    0    0 -0.27762351908E+03  0.14240831802E+03 -0.48641738789E+03  0.57788997451E+03  0.00000000000E+00 0. -1.
        -11    1    3    3    0    0 -0.31198089655E+03  0.23438254687E+03 -0.47974827285E+03  0.61840574334E+03  0.00000000000E+00 0.  1.
         22    1    1    2    0    0  0.58960441563E+03 -0.37679086489E+03 -0.36726596033E+03  0.79024616950E+03  0.00000000000E+00 0.  1.
<mgrwt>
<rscale>  0 0.14725178E+04</rscale>
<asrwt>0</asrwt>
<pdfrwt beam="1">  1        2 0.50239251E-01 0.14725178E+04</pdfrwt>
<pdfrwt beam="2">  1       -2 0.25538258E+00 0.14725178E+04</pdfrwt>
<totfact> 0.57637016E+00</totfact>
</mgrwt>
</event>
<event>
 6    1  0.2047711E-005  0.1375562E+04  0.7818608E-02  0.8971700E-01
          2   -1    0    0  501    0  0.00000000000E+00  0.00000000000E+00  0.26181738272E+04  0.26181738272E+04  0.00000000000E+00 0. -1.
         -2   -1    0    0    0  501 -0.00000000000E+00 -0.00000000000E+00 -0.18067670999E+03  0.18067670999E+03  0.00000000000E+00 0.  1.
         23    2    1    2    0    0 -0.35321714508E+03  0.70534299444E+02  0.24091670734E+04  0.24375472984E+04  0.88393471385E+02 0.  0.
         11    1    3    3    0    0 -0.21836777386E+03  0.86874268768E+02  0.15412785822E+04  0.15590930989E+04  0.00000000000E+00 0. -1.
        -11    1    3    3    0    0 -0.13484937122E+03 -0.16339969324E+02  0.86788849120E+03  0.87845419953E+03  0.00000000000E+00 0.  1.
         22    1    1    2    0    0  0.35321714508E+03 -0.70534299444E+02  0.28330043885E+02  0.36130323880E+03  0.00000000000E+00 0.  1.
<mgrwt>
<rscale>  0 0.13755625E+04</rscale>
<asrwt>0</asrwt>
<pdfrwt beam="1">  1        2 0.40279595E+00 0.13755625E+04</pdfrwt>
<pdfrwt beam="2">  1       -2 0.27796419E-01 0.13755625E+04</pdfrwt>
<totfact> 0.34378465E+01</totfact>
</mgrwt>
</event>
<event>
 6    1  0.2047711E-005  0.3305204E+04  0.7818608E-02  0.8161572E-01
          1   -1    0    0  501    0  0.00000000000E+00  0.00000000000E+00  0.19909882077E+04  0.19909882077E+04  0.00000000000E+00 0.  1.
         -1   -1    0    0    0  501 -0.00000000000E+00 -0.00000000000E+00 -0.13717278687E+04  0.13717278687E+04  0.00000000000E+00 0. -1.
         23    2    1    2    0    0  0.23949213176E+03 -0.12066666617E+04 -0.81111432842E+03  0.14760861173E+04  0.86734411506E+02 0.  0.
         11    1    3    3    0    0  0.17951326919E+03 -0.92780658496E+03 -0.57848140015E+03  0.11080120953E+04  0.00000000000E+00 0. -1.
        -11    1    3    3    0    0  0.59978862573E+02 -0.27886007677E+03 -0.23263292827E+03  0.36807402202E+03  0.00000000000E+00 0.  1.
         22    1    1    2    0    0 -0.23949213176E+03  0.12066666617E+04  0.14303746674E+04  0.18866299592E+04  0.00000000000E+00 0.  1.
<mgrwt>
<rscale>  0 0.33052044E+04</rscale>
<asrwt>0</asrwt>
<pdfrwt beam="1">  1        1 0.30630588E+00 0.33052044E+04</pdfrwt>
<pdfrwt beam="2">  1       -1 0.21103506E+00 0.33052044E+04</pdfrwt>
<totfact> 0.31704813E-01</totfact>
</mgrwt>
</event>
<event>
 6    1  0.2047711E-005  0.1285875E+04  0.7818608E-02  0.9040842E-01
          2   -1    0    0  501    0  0.00000000000E+00  0.00000000000E+00  0.29654568268E+04  0.29654568268E+04  0.00000000000E+00 0. -1.
         -2   -1    0    0    0  501 -0.00000000000E+00 -0.00000000000E+00 -0.13939468814E+03  0.13939468814E+03  0.00000000000E+00 0.  1.
         23    2    1    2    0    0 -0.36106309683E+03  0.13562408883E+03  0.26524160930E+04  0.26818699521E+04  0.91404901612E+02 0.  0.
         13    1    3    3    0    0 -0.20500514153E+03  0.28370675178E+02  0.13620968638E+04  0.13777299698E+04  0.00000000000E+00 0. -1.
        -13    1    3    3    0    0 -0.15605795530E+03  0.10725341365E+03  0.12903192292E+04  0.13041399823E+04  0.00000000000E+00 0.  1.
         22    1    1    2    0    0  0.36106309683E+03 -0.13562408883E+03  0.17364604565E+03  0.42298156288E+03  0.00000000000E+00 0.  1.
<mgrwt>
<rscale>  0 0.12858755E+04</rscale>
<asrwt>0</asrwt>
<pdfrwt beam="1">  1        2 0.45622408E+00 0.12858755E+04</pdfrwt>
<pdfrwt beam="2">  1       -2 0.21445339E-01 0.12858755E+04</pdfrwt>
<totfact> 0.34306746E+01</totfact>
</mgrwt>
</event>
<event>
 6    1  0.2047711E-005  0.2531424E+04  0.7818608E-02  0.8391875E-01
          2   -1    0    0  501    0  0.00000000000E+00  0.00000000000E+00  0.20487760540E+04  0.20487760540E+04  0.00000000000E+00 0. -1.
         -2   -1    0    0    0  501 -0.00000000000E+00 -0.00000000000E+00 -0.78194324448E+03  0.78194324448E+03  0.00000000000E+00 0.  1.
         23    2    1    2    0    0 -0.15274527187E+03  0.58597067575E+03  0.18750078149E+04  0.19724829743E+04  0.91334696550E+02 0.  0.
         13    1    3    3    0    0 -0.83245699474E+02  0.40235970430E+03  0.11431032925E+04  0.12147050323E+04  0.00000000000E+00 0.  1.
        -13    1    3    3    0    0 -0.69499572396E+02  0.18361097145E+03  0.73190452248E+03  0.75777794203E+03  0.00000000000E+00 0. -1.
         22    1    1    2    0    0  0.15274527187E+03 -0.58597067575E+03 -0.60817500544E+03  0.85823632419E+03  0.00000000000E+00 0.  1.
<mgrwt>
<rscale>  0 0.25314238E+04</rscale>
<asrwt>0</asrwt>
<pdfrwt beam="1">  1        2 0.31519631E+00 0.25314238E+04</pdfrwt>
<pdfrwt beam="2">  1       -2 0.12029896E+00 0.25314238E+04</pdfrwt>
<totfact> 0.29461927E+00</totfact>
</mgrwt>
</event>
<event>
 6    1  0.2047711E-005  0.1260575E+04  0.7818608E-02  0.9061427E-01
         -2   -1    0    0    0  501 -0.00000000000E+00  0.00000000000E+00  0.13776587681E+03  0.13776587681E+03  0.00000000000E+00 0.  1.
          2   -1    0    0  501    0  0.00000000000E+00 -0.00000000000E+00 -0.28836041650E+04  0.28836041650E+04  0.00000000000E+00 0. -1.
         23    2    1    2    0    0  0.26637787029E+03  0.52881636701E+03 -0.88260169511E+03  0.10663113415E+04  0.86198637191E+02 0.  0.
         13    1    3    3    0    0  0.19832891349E+03  0.37132424108E+03 -0.69090705800E+03  0.80905414697E+03  0.00000000000E+00 0. -1.
        -13    1    3    3    0    0  0.68048956797E+02  0.15749212593E+03 -0.19169463711E+03  0.25725719455E+03  0.00000000000E+00 0.  1.
         22    1    1    2    0    0 -0.26637787029E+03 -0.52881636701E+03 -0.18632365931E+04  0.19550587003E+04  0.00000000000E+00 0. -1.
<mgrwt>
<rscale>  0 0.12605749E+04</rscale>
<asrwt>0</asrwt>
<pdfrwt beam="1">  1        2 0.44363140E+00 0.12605749E+04</pdfrwt>
<pdfrwt beam="2">  1       -2 0.21194751E-01 0.12605749E+04</pdfrwt>
<totfact> 0.39403848E+01</totfact>
</mgrwt>
</event>
<event>
 6    1  0.2047711E-005  0.1889546E+04  0.7818608E-02  0.8660077E-01
         -2   -1    0    0    0  501 -0.00000000000E+00  0.00000000000E+00  0.11095707541E+04  0.11095707541E+04  0.00000000000E+00 0.  1.
          2   -1    0    0  501    0  0.00000000000E+00 -0.00000000000E+00 -0.80445187956E+03  0.80445187956E+03  0.00000000000E+00 0. -1.
         23    2    1    2    0    0  0.73693677174E+03 -0.43924651106E+03 -0.24249973515E+03  0.89623117921E+03  0.91710969964E+02 0.  0.
         13    1    3    3    0    0  0.43190980277E+03 -0.23717943542E+03 -0.18250010075E+03  0.52545832289E+03  0.00000000000E+00 0.  1.
        -13    1    3    3    0    0  0.30502696897E+03 -0.20206707564E+03 -0.59999634404E+02  0.37077285632E+03  0.00000000000E+00 0. -1.
         22    1    1    2    0    0 -0.73693677174E+03  0.43924651106E+03  0.54761860966E+03  0.10177914544E+04  0.00000000000E+00 0.  1.
<mgrwt>
<rscale>  0 0.18895463E+04</rscale>
<asrwt>0</asrwt>
<pdfrwt beam="1">  1        2 0.12376183E+00 0.18895463E+04</pdfrwt>
<pdfrwt beam="2">  1       -2 0.17070319E+00 0.18895463E+04</pdfrwt>
<totfact> 0.67493271E+00</totfact>
</mgrwt>
</event>
<event>
 6    1  0.2047711E-005  0.1892099E+04  0.7818608E-02  0.8658799E-01
         -2   -1    0    0    0  501 -0.00000000000E+00  0.00000000000E+00  0.59339078015E+03  0.59339078015E+03  0.00000000000E+00 0.  1.
          2   -1    0    0  501    0  0.00000000000E+00 -0.00000000000E+00 -0.15082970826E+04  0.15082970826E+04  0.00000000000E+00 0. -1.
         23    2    1    2    0    0  0.77093134275E+03 -0.48009420441E+03 -0.74394615771E+03  0.11775380094E+04  0.91182770238E+02 0.  0.
         13    1    3    3    0    0  0.44585558975E+03 -0.22419293934E+03 -0.40786961275E+03  0.64452098644E+03  0.00000000000E+00 0. -1.
        -13    1    3    3    0    0  0.32507575300E+03 -0.25590126507E+03 -0.33607654496E+03  0.53301702293E+03  0.00000000000E+00 0.  1.
         22    1    1    2    0    0 -0.77093134275E+03  0.48009420441E+03 -0.17096014471E+03  0.92414985334E+03  0.00000000000E+00 0.  1.
<mgrwt>
<rscale>  0 0.18920989E+04</rscale>
<asrwt>0</asrwt>
<pdfrwt beam="1">  1        2 0.23204570E+00 0.18920989E+04</pdfrwt>
<pdfrwt beam="2">  1       -2 0.91290890E-01 0.18920989E+04</pdfrwt>
<totfact> 0.12034531E+01</totfact>
</mgrwt>
</event>
<event>
 6    1  0.5694019E-005  0.3018123E+04  0.7818608E-02  0.8238575E-01
          2   -1    0    0  501    0  0.00000000000E+00  0.00000000000E+00  0.24341079619E+04  0.24341079619E+04  0.00000000000E+00 0. -1.
         -2   -1    0    0    0  501 -0.00000000000E+00 -0.00000000000E+00 -0.93556519627E+03  0.93556519627E+03  0.00000000000E+00 0.  1.
         23    2    1    2    0    0 -0.47988599511E+03 -0.35859195923E+03  0.22946717907E+04  0.23733297504E+04  0.91086308895E+02 0.  0.
         11    1    3    3    0    0 -0.14625968058E+03 -0.15777423986E+03  0.74068164688E+03  0.77129365805E+03  0.00000000000E+00 0.  1.
        -11    1    3    3    0    0 -0.33362631453E+03 -0.20081771937E+03  0.15539901438E+04  0.16020360924E+04  0.00000000000E+00 0. -1.
         22    1    1    2    0    0  0.47988599511E+03  0.35859195923E+03 -0.79612902509E+03  0.99634340772E+03  0.00000000000E+00 0.  1.
<mgrwt>
<rscale>  0 0.30181231E+04</rscale>
<asrwt>0</asrwt>
<pdfrwt beam="1">  1        2 0.37447815E+00 0.30181231E+04</pdfrwt>
<pdfrwt beam="2">  1       -2 0.14393311E+00 0.30181231E+04</pdfrwt>
<totfact> 0.10849848E+00</totfact>
</mgrwt>
</event>
<event>
 6    1  0.2047711E-005  0.2264462E+04  0.7818608E-02  0.8492067E-01
          2   -1    0    0  501    0  0.00000000000E+00  0.00000000000E+00  0.10227908050E+04  0.10227908050E+04  0.00000000000E+00 0. -1.
         -2   -1    0    0    0  501 -0.00000000000E+00 -0.00000000000E+00 -0.12533809769E+04  0.12533809769E+04  0.00000000000E+00 0.  1.
         23    2    1    2    0    0 -0.55211212644E+03 -0.63563424975E+02 -0.11049062715E+04  0.12401714194E+04  0.91319064825E+02 0.  0.
         13    1    3    3    0    0 -0.32872571527E+03  0.46258277803E+01 -0.68005093087E+03  0.75534843796E+03  0.00000000000E+00 0.  1.
        -13    1    3    3    0    0 -0.22338641117E+03 -0.68189252756E+02 -0.42485534060E+03  0.48482298143E+03  0.00000000000E+00 0. -1.
         22    1    1    2    0    0  0.55211212644E+03  0.63563424975E+02  0.87431609958E+03  0.10360003625E+04  0.00000000000E+00 0. -1.
<mgrwt>
<rscale>  0 0.22644616E+04</rscale>
<asrwt>0</asrwt>
<pdfrwt beam="1">  1        2 0.15735243E+00 0.22644616E+04</pdfrwt>
<pdfrwt beam="2">  1       -2 0.19282784E+00 0.22644616E+04</pdfrwt>
<totfact> 0.32854444E+00</totfact>
</mgrwt>
</event>
<event>
 6    1  0.2047711E-005  0.1410477E+04  0.7818608E-02  0.8946269E-01
         -2   -1    0    0    0  501 -0.00000000000E+00  0.00000000000E+00  0.35608213433E+03  0.35608213433E+03  0.00000000000E+00 0.  1.
          2   -1    0    0  501    0  0.00000000000E+00 -0.00000000000E+00 -0.13967607350E+04  0.13967607350E+04  0.00000000000E+00 0. -1.
         23    2    1    2    0    0  0.45990010038E+03 -0.17575808188E+02  0.13652316143E+03  0.48887253738E+03  0.92416301814E+02 0.  0.
         11    1    3    3    0    0  0.39416602551E+03  0.22683772780E+01  0.85532192899E+02  0.40334570436E+03  0.00000000000E+00 0.  1.
        -11    1    3    3    0    0  0.65734074866E+02 -0.19844185466E+02  0.50990968536E+02  0.85526833027E+02  0.00000000000E+00 0. -1.
         22    1    1    2    0    0 -0.45990010038E+03  0.17575808188E+02 -0.11772017621E+04  0.12639703320E+04  0.00000000000E+00 0. -1.
<mgrwt>
<rscale>  0 0.14104773E+04</rscale>
<asrwt>0</asrwt>
<pdfrwt beam="1">  1        2 0.21488626E+00 0.14104773E+04</pdfrwt>
<pdfrwt beam="2">  1       -2 0.54781868E-01 0.14104773E+04</pdfrwt>
<totfact> 0.44299852E+01</totfact>
</mgrwt>
</event>
<event>
 6    1  0.2047711E-005  0.2047609E+04  0.7818608E-02  0.8584680E-01
         -2   -1    0    0    0  501 -0.00000000000E+00  0.00000000000E+00  0.13298806201E+04  0.13298806201E+04  0.00000000000E+00 0.  1.
          2   -1    0    0  501    0  0.00000000000E+00 -0.00000000000E+00 -0.78817296009E+03  0.78817296009E+03  0.00000000000E+00 0. -1.
         23    2    1    2    0    0  0.28755010612E+03 -0.43443744295E+03 -0.63714847667E+03  0.82920807108E+03  0.10102914656E+03 0.  0.
         11    1    3    3    0    0  0.77144787017E+02 -0.12283991047E+03 -0.25332309582E+03  0.29191360476E+03  0.00000000000E+00 0. -1.
        -11    1    3    3    0    0  0.21040531910E+03 -0.31159753248E+03 -0.38382538085E+03  0.53729446632E+03  0.00000000000E+00 0.  1.
         22    1    1    2    0    0 -0.28755010612E+03  0.43443744295E+03  0.11788561367E+04  0.12888455091E+04  0.00000000000E+00 0.  1.
<mgrwt>
<rscale>  0 0.20476093E+04</rscale>
<asrwt>0</asrwt>
<pdfrwt beam="1">  1        2 0.12125738E+00 0.20476093E+04</pdfrwt>
<pdfrwt beam="2">  1       -2 0.20459702E+00 0.20476093E+04</pdfrwt>
<totfact> 0.40334914E+00</totfact>
</mgrwt>
</event>
<event>
 6    1  0.2047711E-005  0.9357969E+03  0.7818608E-02  0.9381908E-01
         -2   -1    0    0    0  501 -0.00000000000E+00  0.00000000000E+00  0.19162772593E+03  0.19162772593E+03  0.00000000000E+00 0.  1.
          2   -1    0    0  501    0  0.00000000000E+00 -0.00000000000E+00 -0.11424702551E+04  0.11424702551E+04  0.00000000000E+00 0. -1.
         23    2    1    2    0    0 -0.25320442710E+03 -0.32447115281E+03 -0.17568156739E+03  0.45644854784E+03  0.89929154344E+02 0.  0.
         11    1    3    3    0    0 -0.23758485119E+03 -0.25879119789E+03 -0.16487925744E+03  0.38807810445E+03  0.00000000000E+00 0. -1.
        -11    1    3    3    0    0 -0.15619575914E+02 -0.65679954921E+02 -0.10802309949E+02  0.68370443397E+02  0.00000000000E+00 0.  1.
         22    1    1    2    0    0  0.25320442710E+03  0.32447115281E+03 -0.77516096182E+03  0.87764943322E+03  0.00000000000E+00 0. -1.
<mgrwt>
<rscale>  0 0.93579694E+03</rscale>
<asrwt>0</asrwt>
<pdfrwt beam="1">  1        2 0.17576465E+00 0.93579694E+03</pdfrwt>
<pdfrwt beam="2">  1       -2 0.29481189E-01 0.93579694E+03</pdfrwt>
<totfact> 0.21729476E+02</totfact>
</mgrwt>
</event>
<event>
 6    1  0.2047711E-005  0.2202844E+04  0.7818608E-02  0.8517245E-01
         -2   -1    0    0    0  501 -0.00000000000E+00  0.00000000000E+00  0.10777415631E+04  0.10777415631E+04  0.00000000000E+00 0.  1.
          2   -1    0    0  501    0  0.00000000000E+00 -0.00000000000E+00 -0.11256229455E+04  0.11256229455E+04  0.00000000000E+00 0. -1.
         23    2    1    2    0    0 -0.24552009298E+03  0.91629558015E+03 -0.58011415857E+03  0.11156377809E+04  0.90760756358E+02 0.  0.
         13    1    3    3    0    0 -0.18926695952E+03  0.59849886704E+03 -0.34437501041E+03  0.71597278133E+03  0.00000000000E+00 0. -1.
        -13    1    3    3    0    0 -0.56253133455E+02  0.31779671310E+03 -0.23573914816E+03  0.39966499954E+03  0.00000000000E+00 0.  1.
         22    1    1    2    0    0  0.24552009298E+03 -0.91629558015E+03  0.53223277617E+03  0.10877267278E+04  0.00000000000E+00 0.  1.
<mgrwt>
<rscale>  0 0.22028442E+04</rscale>
<asrwt>0</asrwt>
<pdfrwt beam="1">  1        2 0.17317276E+00 0.22028442E+04</pdfrwt>
<pdfrwt beam="2">  1       -2 0.16580640E+00 0.22028442E+04</pdfrwt>
<totfact> 0.43854564E+00</totfact>
</mgrwt>
</event>
<event>
 6    1  0.2047711E-005  0.2481400E+04  0.7818608E-02  0.8409642E-01
         -2   -1    0    0    0  501 -0.00000000000E+00  0.00000000000E+00  0.62598333057E+03  0.62598333057E+03  0.00000000000E+00 0.  1.
          2   -1    0    0  501    0  0.00000000000E+00 -0.00000000000E+00 -0.24590692798E+04  0.24590692798E+04  0.00000000000E+00 0. -1.
         23    2    1    2    0    0  0.11533270490E+03 -0.11486066463E+04 -0.35467049067E+03  0.12093364461E+04  0.64067324422E+02 0.  0.
         11    1    3    3    0    0  0.96265316430E+02 -0.87379454295E+03 -0.24262651511E+03  0.91194930795E+03  0.00000000000E+00 0.  1.
        -11    1    3    3    0    0  0.19067388469E+02 -0.27481210339E+03 -0.11204397556E+03  0.29738713814E+03  0.00000000000E+00 0. -1.
         22    1    1    2    0    0 -0.11533270490E+03  0.11486066463E+04 -0.14784154585E+04  0.18757161642E+04  0.00000000000E+00 0.  1.
<mgrwt>
<rscale>  0 0.24813999E+04</rscale>
<asrwt>0</asrwt>
<pdfrwt beam="1">  1        2 0.37831835E+00 0.24813999E+04</pdfrwt>
<pdfrwt beam="2">  1       -2 0.96305128E-01 0.24813999E+04</pdfrwt>
<totfact> 0.29637283E+00</totfact>
</mgrwt>
</event>
<event>
 6    1  0.2047711E-005  0.8467848E+03  0.7818608E-02  0.9494662E-01
         -1   -1    0    0    0  501 -0.00000000000E+00  0.00000000000E+00  0.19885927432E+03  0.19885927432E+03  0.00000000000E+00 0.  1.
          1   -1    0    0  501    0  0.00000000000E+00 -0.00000000000E+00 -0.90144714535E+03  0.90144714535E+03  0.00000000000E+00 0. -1.
         23    2    1    2    0    0  0.26196133214E+03 -0.27747314197E+03 -0.13230602292E+03  0.41413117213E+03  0.91567788961E+02 0.  0.
         11    1    3    3    0    0  0.14386641038E+03 -0.21497692326E+03 -0.92492110282E+02  0.27471332700E+03  0.00000000000E+00 0. -1.
        -11    1    3    3    0    0  0.11809492177E+03 -0.62496218716E+02 -0.39813912634E+02  0.13941784513E+03  0.00000000000E+00 0.  1.
         22    1    1    2    0    0 -0.26196133214E+03  0.27747314197E+03 -0.57028184811E+03  0.68617524754E+03  0.00000000000E+00 0. -1.
<mgrwt>
<rscale>  0 0.84678480E+03</rscale>
<asrwt>0</asrwt>
<pdfrwt beam="1">  1        1 0.13868418E+00 0.84678480E+03</pdfrwt>
<pdfrwt beam="2">  1       -1 0.30593734E-01 0.84678480E+03</pdfrwt>
<totfact> 0.18036531E+02</totfact>
</mgrwt>
</event>
<event>
 6    1  0.2047711E-005  0.3914937E+04  0.7818608E-02  0.8021930E-01
          2   -1    0    0  501    0  0.00000000000E+00  0.00000000000E+00  0.23176175830E+04  0.23176175830E+04  0.00000000000E+00 0. -1.
         -2   -1    0    0    0  501 -0.00000000000E+00 -0.00000000000E+00 -0.16532851356E+04  0.16532851356E+04  0.00000000000E+00 0.  1.
         23    2    1    2    0    0 -0.30689289943E+03  0.92600354758E+03 -0.13877255335E+04  0.16987654476E+04  0.91411529535E+02 0.  0.
         11    1    3    3    0    0 -0.13487485343E+03  0.28013401411E+03 -0.46637570879E+03  0.56051101123E+03  0.00000000000E+00 0. -1.
        -11    1    3    3    0    0 -0.17201804601E+03  0.64586953346E+03 -0.92134982467E+03  0.11382544363E+04  0.00000000000E+00 0.  1.
         22    1    1    2    0    0  0.30689289943E+03 -0.92600354758E+03  0.20520579808E+04  0.22721372710E+04  0.00000000000E+00 0. -1.
<mgrwt>
<rscale>  0 0.39149369E+04</rscale>
<asrwt>0</asrwt>
<pdfrwt beam="1">  1        2 0.35655655E+00 0.39149369E+04</pdfrwt>
<pdfrwt beam="2">  1       -2 0.25435156E+00 0.39149369E+04</pdfrwt>
<totfact> 0.21264375E-01</totfact>
</mgrwt>
</event>
<event>
 6    1  0.2047711E-005  0.1284581E+04  0.7818608E-02  0.9041883E-01
         -2   -1    0    0    0  501 -0.00000000000E+00  0.00000000000E+00  0.30818393620E+03  0.30818393620E+03  0.00000000000E+00 0. -1.
          2   -1    0    0  501    0  0.00000000000E+00 -0.00000000000E+00 -0.13386060715E+04  0.13386060715E+04  0.00000000000E+00 0.  1.
         23    2    1    2    0    0 -0.38953669528E+03 -0.15980106988E+03  0.98454596218E+02  0.44195064337E+03  0.91388427885E+02 0.  0.
         13    1    3    3    0    0 -0.32849636866E+03 -0.97716901492E+02  0.90818875055E+02  0.35455116010E+03  0.00000000000E+00 0. -1.
        -13    1    3    3    0    0 -0.61040326620E+02 -0.62084168385E+02  0.76357211631E+01  0.87399483268E+02  0.00000000000E+00 0.  1.
         22    1    1    2    0    0  0.38953669528E+03  0.15980106988E+03 -0.11288767316E+04  0.12048393644E+04  0.00000000000E+00 0.  1.
<mgrwt>
<rscale>  0 0.12845807E+04</rscale>
<asrwt>0</asrwt>
<pdfrwt beam="1">  1        2 0.20593939E+00 0.12845807E+04</pdfrwt>
<pdfrwt beam="2">  1       -2 0.47412914E-01 0.12845807E+04</pdfrwt>
<totfact> 0.64915987E+01</totfact>
</mgrwt>
</event>
<event>
 6    1  0.2047711E-005  0.4935592E+04  0.7818608E-02  0.7838520E-01
          2   -1    0    0  501    0  0.00000000000E+00  0.00000000000E+00  0.33915072942E+04  0.33915072942E+04  0.00000000000E+00 0. -1.
         -2   -1    0    0    0  501 -0.00000000000E+00 -0.00000000000E+00 -0.17956670291E+04  0.17956670291E+04  0.00000000000E+00 0.  1.
         23    2    1    2    0    0 -0.24362469462E+04 -0.14393967526E+03  0.11771404359E+04  0.27110225994E+04  0.89253100472E+02 0.  0.
         13    1    3    3    0    0 -0.13038754087E+04 -0.87669607883E+02  0.67824060346E+03  0.14723407750E+04  0.00000000000E+00 0. -1.
        -13    1    3    3    0    0 -0.11323715374E+04 -0.56270067377E+02  0.49889983246E+03  0.12386818244E+04  0.00000000000E+00 0.  1.
         22    1    1    2    0    0  0.24362469462E+04  0.14393967526E+03  0.41869982920E+03  0.24761517239E+04  0.00000000000E+00 0. -1.
<mgrwt>
<rscale>  0 0.49355923E+04</rscale>
<asrwt>0</asrwt>
<pdfrwt beam="1">  1        2 0.52177035E+00 0.49355923E+04</pdfrwt>
<pdfrwt beam="2">  1       -2 0.27625647E+00 0.49355923E+04</pdfrwt>
<totfact> 0.31333440E-02</totfact>
</mgrwt>
</event>
<event>
 6    1  0.2047711E-005  0.1929569E+04  0.7818608E-02  0.8640276E-01
          2   -1    0    0  501    0  0.00000000000E+00  0.00000000000E+00  0.11233804419E+04  0.11233804419E+04  0.00000000000E+00 0. -1.
         -2   -1    0    0    0  501 -0.00000000000E+00 -0.00000000000E+00 -0.82857912528E+03  0.82857912528E+03  0.00000000000E+00 0.  1.
         23    2    1    2    0    0 -0.56652979382E+03 -0.70999018122E+03 -0.17400707194E+03  0.92979354840E+03  0.95893257556E+02 0.  0.
         11    1    3    3    0    0 -0.18032101076E+02 -0.28693802934E+01 -0.82594949061E+00  0.18277642218E+02  0.00000000000E+00 0. -1.
        -11    1    3    3    0    0 -0.54849769274E+03 -0.70712080093E+03 -0.17318112245E+03  0.91151590618E+03  0.00000000000E+00 0.  1.
         22    1    1    2    0    0  0.56652979382E+03  0.70999018122E+03  0.46880838852E+03  0.10221660187E+04  0.00000000000E+00 0. -1.
<mgrwt>
<rscale>  0 0.19295695E+04</rscale>
<asrwt>0</asrwt>
<pdfrwt beam="1">  1        2 0.17282776E+00 0.19295695E+04</pdfrwt>
<pdfrwt beam="2">  1       -2 0.12747371E+00 0.19295695E+04</pdfrwt>
<totfact> 0.89885740E+00</totfact>
</mgrwt>
</event>
<event>
 6    1  0.2047711E-005  0.2262111E+04  0.7818608E-02  0.8493012E-01
         -2   -1    0    0    0  501 -0.00000000000E+00  0.00000000000E+00  0.10079516901E+04  0.10079516901E+04  0.00000000000E+00 0.  1.
          2   -1    0    0  501    0  0.00000000000E+00 -0.00000000000E+00 -0.12691948464E+04  0.12691948464E+04  0.00000000000E+00 0. -1.
         23    2    1    2    0    0 -0.45922118814E+03  0.10251574737E+04 -0.24696638960E+03  0.11537428817E+04  0.91094972333E+02 0.  0.
         13    1    3    3    0    0 -0.49337572050E+02  0.15960792326E+03 -0.11089077790E+02  0.16742715679E+03  0.00000000000E+00 0.  1.
        -13    1    3    3    0    0 -0.40988361609E+03  0.86554955046E+03 -0.23587731181E+03  0.98631572494E+03  0.00000000000E+00 0. -1.
         22    1    1    2    0    0  0.45922118814E+03 -0.10251574737E+04 -0.14276766636E+02  0.11234036548E+04  0.00000000000E+00 0.  1.
<mgrwt>
<rscale>  0 0.22621115E+04</rscale>
<asrwt>0</asrwt>
<pdfrwt beam="1">  1        2 0.19526075E+00 0.22621115E+04</pdfrwt>
<pdfrwt beam="2">  1       -2 0.15506949E+00 0.22621115E+04</pdfrwt>
<totfact> 0.42976234E+00</totfact>
</mgrwt>
</event>
<event>
 6    1  0.2047711E-005  0.4028400E+04  0.7818608E-02  0.7998842E-01
         -2   -1    0    0    0  501 -0.00000000000E+00  0.00000000000E+00  0.15859113151E+04  0.15859113151E+04  0.00000000000E+00 0. -1.
          2   -1    0    0  501    0  0.00000000000E+00 -0.00000000000E+00 -0.25581515022E+04  0.25581515022E+04  0.00000000000E+00 0.  1.
         23    2    1    2    0    0  0.18964107124E+04  0.62059951496E+03 -0.21233086925E+03  0.20088861222E+04  0.94982660940E+02 0.  0.
         11    1    3    3    0    0  0.64390715239E+03  0.23301763843E+03 -0.32878947150E+02  0.68556156973E+03  0.00000000000E+00 0. -1.
        -11    1    3    3    0    0  0.12525035600E+04  0.38758187654E+03 -0.17945192210E+03  0.13233245524E+04  0.00000000000E+00 0.  1.
         22    1    1    2    0    0 -0.18964107124E+04 -0.62059951496E+03 -0.75990931788E+03  0.21351766951E+04  0.00000000000E+00 0. -1.
<mgrwt>
<rscale>  0 0.40283999E+04</rscale>
<asrwt>0</asrwt>
<pdfrwt beam="1">  1        2 0.39356176E+00 0.40283999E+04</pdfrwt>
<pdfrwt beam="2">  1       -2 0.24398636E+00 0.40283999E+04</pdfrwt>
<totfact> 0.17737188E-01</totfact>
</mgrwt>
</event>
<event>
 6    1  0.2047711E-005  0.1586162E+04  0.7818608E-02  0.8829095E-01
          1   -1    0    0  501    0  0.00000000000E+00  0.00000000000E+00  0.66914670097E+03  0.66914670097E+03  0.00000000000E+00 0. -1.
         -1   -1    0    0    0  501 -0.00000000000E+00 -0.00000000000E+00 -0.93996957766E+03  0.93996957766E+03  0.00000000000E+00 0.  1.
         23    2    1    2    0    0 -0.39485004130E+03  0.42195190250E+01  0.55868363534E+03  0.69041860641E+03  0.92876736772E+02 0.  0.
         11    1    3    3    0    0 -0.26399242085E+03  0.71064880279E+00  0.29398535323E+03  0.39512009719E+03  0.00000000000E+00 0.  1.
        -11    1    3    3    0    0 -0.13085762044E+03  0.35088702222E+01  0.26469828211E+03  0.29529850922E+03  0.00000000000E+00 0. -1.
         22    1    1    2    0    0  0.39485004130E+03 -0.42195190250E+01 -0.82950651203E+03  0.91869767222E+03  0.00000000000E+00 0.  1.
<mgrwt>
<rscale>  0 0.15861621E+04</rscale>
<asrwt>0</asrwt>
<pdfrwt beam="1">  1        1 0.10294565E+00 0.15861621E+04</pdfrwt>
<pdfrwt beam="2">  1       -1 0.14461070E+00 0.15861621E+04</pdfrwt>
<totfact> 0.10782595E+01</totfact>
</mgrwt>
</event>
<event>
 6    1  0.2047711E-005  0.6434109E+04  0.7818608E-02  0.7638790E-01
         -2   -1    0    0    0  501 -0.00000000000E+00  0.00000000000E+00  0.29183643334E+04  0.29183643334E+04  0.00000000000E+00 0.  1.
          2   -1    0    0  501    0  0.00000000000E+00 -0.00000000000E+00 -0.35463150736E+04  0.35463150736E+04  0.00000000000E+00 0. -1.
         23    2    1    2    0    0 -0.20530136686E+04 -0.23524980795E+04 -0.10898083896E+04  0.33083484950E+04  0.91515577245E+02 0.  0.
         11    1    3    3    0    0 -0.30936201012E+03 -0.37045630516E+03 -0.20198004807E+03  0.52320040821E+03  0.00000000000E+00 0. -1.
        -11    1    3    3    0    0 -0.17436516584E+04 -0.19820417743E+04 -0.88782834154E+03  0.27851480868E+04  0.00000000000E+00 0.  1.
         22    1    1    2    0    0  0.20530136686E+04  0.23524980795E+04  0.46185764943E+03  0.31563309119E+04  0.00000000000E+00 0.  1.
<mgrwt>
<rscale>  0 0.64341089E+04</rscale>
<asrwt>0</asrwt>
<pdfrwt beam="1">  1        2 0.54558693E+00 0.64341089E+04</pdfrwt>
<pdfrwt beam="2">  1       -2 0.44897913E+00 0.64341089E+04</pdfrwt>
<totfact> 0.17358101E-03</totfact>
</mgrwt>
</event>
<event>
 6    1  0.2047711E-005  0.2304493E+04  0.7818608E-02  0.8476152E-01
         -2   -1    0    0    0  501 -0.00000000000E+00  0.00000000000E+00  0.86269824597E+03  0.86269824597E+03  0.00000000000E+00 0.  1.
          2   -1    0    0  501    0  0.00000000000E+00 -0.00000000000E+00 -0.15389755620E+04  0.15389755620E+04  0.00000000000E+00 0. -1.
         23    2    1    2    0    0 -0.95402570883E+03  0.61704761917E+03 -0.14759942226E+03  0.11485125522E+04  0.79891650296E+02 0.  0.
         13    1    3    3    0    0 -0.55414920991E+03  0.36865546407E+03 -0.47666761383E+02  0.66727829140E+03  0.00000000000E+00 0. -1.
        -13    1    3    3    0    0 -0.39987649892E+03  0.24839215510E+03 -0.99932660880E+02  0.48123426085E+03  0.00000000000E+00 0.  1.
         22    1    1    2    0    0  0.95402570883E+03 -0.61704761917E+03 -0.52867789373E+03  0.12531612557E+04  0.00000000000E+00 0. -1.
<mgrwt>
<rscale>  0 0.23044926E+04</rscale>
<asrwt>0</asrwt>
<pdfrwt beam="1">  1        2 0.23676547E+00 0.23044926E+04</pdfrwt>
<pdfrwt beam="2">  1       -2 0.13272281E+00 0.23044926E+04</pdfrwt>
<totfact> 0.45067621E+00</totfact>
</mgrwt>
</event>
<event>
 6    1  0.2047711E-005  0.2021796E+04  0.7818608E-02  0.8596498E-01
         -1   -1    0    0    0  501 -0.00000000000E+00  0.00000000000E+00  0.82206593638E+03  0.82206593638E+03  0.00000000000E+00 0.  1.
          1   -1    0    0  501    0  0.00000000000E+00 -0.00000000000E+00 -0.12431056559E+04  0.12431056559E+04  0.00000000000E+00 0. -1.
         23    2    1    2    0    0 -0.82367451680E+03  0.35177976654E+03  0.26339512287E+03  0.93794501026E+03  0.90416468422E+02 0.  0.
         11    1    3    3    0    0 -0.64044918157E+03  0.23528601115E+03  0.18300105843E+03  0.70641634226E+03  0.00000000000E+00 0. -1.
        -11    1    3    3    0    0 -0.18322533522E+03  0.11649375538E+03  0.80394064446E+02  0.23152866801E+03  0.00000000000E+00 0.  1.
         22    1    1    2    0    0  0.82367451680E+03 -0.35177976654E+03 -0.68443484244E+03  0.11272265821E+04  0.00000000000E+00 0. -1.
<mgrwt>
<rscale>  0 0.20217960E+04</rscale>
<asrwt>0</asrwt>
<pdfrwt beam="1">  1        1 0.19124702E+00 0.20217960E+04</pdfrwt>
<pdfrwt beam="2">  1       -1 0.12647168E+00 0.20217960E+04</pdfrwt>
<totfact> 0.50027932E+00</totfact>
</mgrwt>
</event>
<event>
 6    1  0.2047711E-005  0.1636628E+04  0.7818608E-02  0.8798357E-01
          2   -1    0    0  501    0  0.00000000000E+00  0.00000000000E+00  0.12814836422E+04  0.12814836422E+04  0.00000000000E+00 0. -1.
         -2   -1    0    0    0  501 -0.00000000000E+00 -0.00000000000E+00 -0.52254866829E+03  0.52254866829E+03  0.00000000000E+00 0.  1.
         23    2    1    2    0    0 -0.50786192617E+03  0.57371620392E+03  0.68901057553E+03  0.10346407065E+04  0.93122498682E+02 0.  0.
         13    1    3    3    0    0 -0.30362607971E+03  0.40533474360E+03  0.47330132490E+03  0.69318049222E+03  0.00000000000E+00 0. -1.
        -13    1    3    3    0    0 -0.20423584646E+03  0.16838146032E+03  0.21570925063E+03  0.34146021432E+03  0.00000000000E+00 0.  1.
         22    1    1    2    0    0  0.50786192617E+03 -0.57371620392E+03  0.69924398363E+02  0.76939160392E+03  0.00000000000E+00 0.  1.
<mgrwt>
<rscale>  0 0.16366277E+04</rscale>
<asrwt>0</asrwt>
<pdfrwt beam="1">  1        2 0.19715133E+00 0.16366277E+04</pdfrwt>
<pdfrwt beam="2">  1       -2 0.80392103E-01 0.16366277E+04</pdfrwt>
<totfact> 0.22160002E+01</totfact>
</mgrwt>
</event>
<event>
 6    1  0.2047711E-005  0.9746370E+03  0.7818608E-02  0.9336808E-01
         -2   -1    0    0    0  501 -0.00000000000E+00  0.00000000000E+00  0.33547637903E+03  0.33547637903E+03  0.00000000000E+00 0.  1.
          2   -1    0    0  501    0  0.00000000000E+00 -0.00000000000E+00 -0.70788687782E+03  0.70788687782E+03  0.00000000000E+00 0. -1.
         23    2    1    2    0    0  0.63895249710E+02 -0.46417705799E+03 -0.31372321294E+03  0.57114811348E+03  0.90801812221E+02 0.  0.
         11    1    3    3    0    0 -0.57377920196E+01 -0.28170150599E+03 -0.19341558832E+03  0.34175759032E+03  0.00000000000E+00 0. -1.
        -11    1    3    3    0    0  0.69633041730E+02 -0.18247555199E+03 -0.12030762462E+03  0.22939052316E+03  0.00000000000E+00 0.  1.
         22    1    1    2    0    0 -0.63895249710E+02  0.46417705799E+03 -0.58687285851E+02  0.47221514336E+03  0.00000000000E+00 0.  1.
<mgrwt>
<rscale>  0 0.97463701E+03</rscale>
<asrwt>0</asrwt>
<pdfrwt beam="1">  1        2 0.10890567E+00 0.97463701E+03</pdfrwt>
<pdfrwt beam="2">  1       -2 0.51611751E-01 0.97463701E+03</pdfrwt>
<totfact> 0.14321683E+02</totfact>
</mgrwt>
</event>
<event>
 6    1  0.2047711E-005  0.3491620E+04  0.7818608E-02  0.8115779E-01
         -2   -1    0    0    0  501 -0.00000000000E+00  0.00000000000E+00  0.96683519790E+03  0.96683519790E+03  0.00000000000E+00 0.  1.
          2   -1    0    0  501    0  0.00000000000E+00 -0.00000000000E+00 -0.31524020750E+04  0.31524020750E+04  0.00000000000E+00 0. -1.
         23    2    1    2    0    0  0.12800159250E+04  0.24973527541E+03 -0.24606524876E+04  0.27863904816E+04  0.91393516309E+02 0.  0.
         13    1    3    3    0    0  0.96426286833E+03  0.22741155423E+03 -0.18506256754E+04  0.20991270292E+04  0.00000000000E+00 0. -1.
        -13    1    3    3    0    0  0.31575305669E+03  0.22323721186E+02 -0.61002681227E+03  0.68726345241E+03  0.00000000000E+00 0.  1.
         22    1    1    2    0    0 -0.12800159250E+04 -0.24973527541E+03  0.27508561052E+03  0.13328467913E+04  0.00000000000E+00 0.  1.
<mgrwt>
<rscale>  0 0.34916204E+04</rscale>
<asrwt>0</asrwt>
<pdfrwt beam="1">  1        2 0.48498494E+00 0.34916204E+04</pdfrwt>
<pdfrwt beam="2">  1       -2 0.14874388E+00 0.34916204E+04</pdfrwt>
<totfact> 0.35046039E-01</totfact>
</mgrwt>
</event>
<event>
 6    1  0.2047711E-005  0.2401883E+04  0.7818608E-02  0.8438799E-01
          2   -1    0    0  501    0  0.00000000000E+00  0.00000000000E+00  0.14848027036E+04  0.14848027036E+04  0.00000000000E+00 0. -1.
         -2   -1    0    0    0  501 -0.00000000000E+00 -0.00000000000E+00 -0.97134792377E+03  0.97134792377E+03  0.00000000000E+00 0.  1.
         23    2    1    2    0    0  0.29598927060E+03  0.74115015696E+03  0.11724858604E+04  0.14211457151E+04  0.89548016995E+02 0.  0.
         13    1    3    3    0    0  0.90302009974E+01  0.44025108446E+02  0.37133135417E+02  0.58297722508E+02  0.00000000000E+00 0. -1.
        -13    1    3    3    0    0  0.28695906960E+03  0.69712504852E+03  0.11353527249E+04  0.13628479926E+04  0.00000000000E+00 0.  1.
         22    1    1    2    0    0 -0.29598927060E+03 -0.74115015696E+03 -0.65903108048E+03  0.10350049123E+04  0.00000000000E+00 0.  1.
<mgrwt>
<rscale>  0 0.24018826E+04</rscale>
<asrwt>0</asrwt>
<pdfrwt beam="1">  1        2 0.22843119E+00 0.24018826E+04</pdfrwt>
<pdfrwt beam="2">  1       -2 0.14943814E+00 0.24018826E+04</pdfrwt>
<totfact> 0.35233732E+00</totfact>
</mgrwt>
</event>
<event>
 6    1  0.2047711E-005  0.7867203E+03  0.7818608E-02  0.9579440E-01
         -2   -1    0    0    0  501 -0.00000000000E+00  0.00000000000E+00  0.20842117104E+03  0.20842117104E+03  0.00000000000E+00 0.  1.
          2   -1    0    0  501    0  0.00000000000E+00 -0.00000000000E+00 -0.74240156772E+03  0.74240156772E+03  0.00000000000E+00 0. -1.
         23    2    1    2    0    0 -0.27126243601E+03  0.16412436681E+03 -0.54086313626E+03  0.63369896312E+03  0.92311032527E+02 0.  0.
         11    1    3    3    0    0 -0.24740985271E+03  0.10961775444E+03 -0.43694914325E+03  0.51395743121E+03  0.00000000000E+00 0. -1.
        -11    1    3    3    0    0 -0.23852583302E+02  0.54506612371E+02 -0.10391399301E+03  0.11974153192E+03  0.00000000000E+00 0.  1.
         22    1    1    2    0    0  0.27126243601E+03 -0.16412436681E+03  0.68827395855E+01  0.31712377564E+03  0.00000000000E+00 0.  1.
<mgrwt>
<rscale>  0 0.78672029E+03</rscale>
<asrwt>0</asrwt>
<pdfrwt beam="1">  1        2 0.11421563E+00 0.78672029E+03</pdfrwt>
<pdfrwt beam="2">  1       -2 0.32064795E-01 0.78672029E+03</pdfrwt>
<totfact> 0.34557474E+02</totfact>
</mgrwt>
</event>
<event>
 6    1  0.2047711E-005  0.4276914E+04  0.7818608E-02  0.7950901E-01
          2   -1    0    0  501    0  0.00000000000E+00  0.00000000000E+00  0.25443486712E+04  0.25443486712E+04  0.00000000000E+00 0. -1.
         -2   -1    0    0    0  501 -0.00000000000E+00 -0.00000000000E+00 -0.17973158360E+04  0.17973158360E+04  0.00000000000E+00 0.  1.
         23    2    1    2    0    0  0.19843394685E+04 -0.21385295482E+03  0.11504298090E+04  0.23054755841E+04  0.91611740024E+02 0.  0.
         13    1    3    3    0    0  0.13892091981E+04 -0.18301257184E+03  0.83663392646E+03  0.16319779791E+04  0.00000000000E+00 0. -1.
        -13    1    3    3    0    0  0.59513027042E+03 -0.30840382975E+02  0.31379588257E+03  0.67349760497E+03  0.00000000000E+00 0.  1.
         22    1    1    2    0    0 -0.19843394685E+04  0.21385295482E+03 -0.40339697383E+03  0.20361889232E+04  0.00000000000E+00 0.  1.
<mgrwt>
<rscale>  0 0.42769139E+04</rscale>
<asrwt>0</asrwt>
<pdfrwt beam="1">  1        2 0.39143826E+00 0.42769139E+04</pdfrwt>
<pdfrwt beam="2">  1       -2 0.27651013E+00 0.42769139E+04</pdfrwt>
<totfact> 0.11192687E-01</totfact>
</mgrwt>
</event>
<event>
 6    1  0.2047711E-005  0.2623326E+04  0.7818608E-02  0.8360321E-01
          2   -1    0    0  501    0  0.00000000000E+00  0.00000000000E+00  0.17595608217E+04  0.17595608217E+04  0.00000000000E+00 0.  1.
         -2   -1    0    0    0  501 -0.00000000000E+00 -0.00000000000E+00 -0.97777810994E+03  0.97777810994E+03  0.00000000000E+00 0. -1.
         23    2    1    2    0    0  0.12135277458E+04  0.49171687823E+03  0.35254301996E+03  0.13594123040E+04  0.96333552808E+02 0.  0.
         13    1    3    3    0    0  0.90986145708E+03  0.39517625303E+03  0.23209282458E+03  0.10187635748E+04  0.00000000000E+00 0.  1.
        -13    1    3    3    0    0  0.30366628868E+03  0.96540625201E+02  0.12045019538E+03  0.34064872928E+03  0.00000000000E+00 0. -1.
         22    1    1    2    0    0 -0.12135277458E+04 -0.49171687823E+03  0.42923969179E+03  0.13779266276E+04  0.00000000000E+00 0.  1.
<mgrwt>
<rscale>  0 0.26233262E+04</rscale>
<asrwt>0</asrwt>
<pdfrwt beam="1">  1        2 0.27070166E+00 0.26233262E+04</pdfrwt>
<pdfrwt beam="2">  1       -2 0.15042740E+00 0.26233262E+04</pdfrwt>
<totfact> 0.23859052E+00</totfact>
</mgrwt>
</event>
<event>
 6    1  0.3114189E-005  0.2977787E+04  0.7818608E-02  0.8250103E-01
          2   -1    0    0  501    0  0.00000000000E+00  0.00000000000E+00  0.11254498028E+04  0.11254498028E+04  0.00000000000E+00 0. -1.
         -2   -1    0    0    0  501 -0.00000000000E+00 -0.00000000000E+00 -0.19697046718E+04  0.19697046718E+04  0.00000000000E+00 0.  1.
         23    2    1    2    0    0 -0.87442112283E+03 -0.16076655188E+03  0.81708537578E+03  0.12108748793E+04  0.90173598381E+02 0.  0.
         11    1    3    3    0    0 -0.32816077717E+03 -0.57619545462E+02  0.24818075528E+03  0.41545540673E+03  0.00000000000E+00 0.  1.
        -11    1    3    3    0    0 -0.54626034566E+03 -0.10314700642E+03  0.56890462051E+03  0.79541947261E+03  0.00000000000E+00 0. -1.
         22    1    1    2    0    0  0.87442112283E+03  0.16076655188E+03 -0.16613402448E+04  0.18842795953E+04  0.00000000000E+00 0.  1.
<mgrwt>
<rscale>  0 0.29777869E+04</rscale>
<asrwt>0</asrwt>
<pdfrwt beam="1">  1        2 0.17314612E+00 0.29777869E+04</pdfrwt>
<pdfrwt beam="2">  1       -2 0.30303149E+00 0.29777869E+04</pdfrwt>
<totfact> 0.54877663E-01</totfact>
</mgrwt>
</event>
<event>
 6    1  0.2047711E-005  0.3988432E+04  0.7818608E-02  0.8006884E-01
         -2   -1    0    0    0  501 -0.00000000000E+00  0.00000000000E+00  0.17206631057E+04  0.17206631057E+04  0.00000000000E+00 0.  1.
          2   -1    0    0  501    0  0.00000000000E+00 -0.00000000000E+00 -0.23112587364E+04  0.23112587364E+04  0.00000000000E+00 0. -1.
         23    2    1    2    0    0 -0.44632758738E+03 -0.60830988252E+03 -0.21604572849E+04  0.22901655900E+04  0.89629913026E+02 0.  0.
         11    1    3    3    0    0 -0.25640255963E+03 -0.27630876323E+03 -0.10372272498E+04  0.11035982842E+04  0.00000000000E+00 0.  1.
        -11    1    3    3    0    0 -0.18992502776E+03 -0.33200111930E+03 -0.11232300351E+04  0.11865673057E+04  0.00000000000E+00 0. -1.
         22    1    1    2    0    0  0.44632758738E+03  0.60830988252E+03  0.15698616542E+04  0.17417562521E+04  0.00000000000E+00 0.  1.
<mgrwt>
<rscale>  0 0.39884321E+04</rscale>
<asrwt>0</asrwt>
<pdfrwt beam="1">  1        2 0.35557827E+00 0.39884321E+04</pdfrwt>
<pdfrwt beam="2">  1       -2 0.26471740E+00 0.39884321E+04</pdfrwt>
<totfact> 0.18417264E-01</totfact>
</mgrwt>
</event>
<event>
 6    1  0.2047711E-005  0.4123495E+04  0.7818608E-02  0.7980087E-01
          2   -1    0    0  501    0  0.00000000000E+00  0.00000000000E+00  0.27535592437E+04  0.27535592437E+04  0.00000000000E+00 0. -1.
         -2   -1    0    0    0  501 -0.00000000000E+00 -0.00000000000E+00 -0.15437485733E+04  0.15437485733E+04  0.00000000000E+00 0.  1.
         23    2    1    2    0    0 -0.71920531453E+03 -0.19243720449E+04  0.76865087814E+03  0.21960972103E+04  0.10749294280E+03 0.  0.
         13    1    3    3    0    0 -0.14348140887E+03 -0.41322803448E+03  0.11851443694E+03  0.45319972963E+03  0.00000000000E+00 0.  1.
        -13    1    3    3    0    0 -0.57572390565E+03 -0.15111440105E+04  0.65013644120E+03  0.17428974807E+04  0.00000000000E+00 0. -1.
         22    1    1    2    0    0  0.71920531453E+03  0.19243720449E+04  0.44115979224E+03  0.21012106068E+04  0.00000000000E+00 0. -1.
<mgrwt>
<rscale>  0 0.41234952E+04</rscale>
<asrwt>0</asrwt>
<pdfrwt beam="1">  1        2 0.42362450E+00 0.41234952E+04</pdfrwt>
<pdfrwt beam="2">  1       -2 0.23749978E+00 0.41234952E+04</pdfrwt>
<totfact> 0.14786682E-01</totfact>
</mgrwt>
</event>
<event>
 6    1  0.2047711E-005  0.4032290E+03  0.7818608E-02  0.1042667E+00
         -2   -1    0    0    0  501 -0.00000000000E+00  0.00000000000E+00  0.68677149875E+02  0.68677149875E+02  0.00000000000E+00 0.  1.
          2   -1    0    0  501    0  0.00000000000E+00 -0.00000000000E+00 -0.59187681701E+03  0.59187681701E+03  0.00000000000E+00 0. -1.
         23    2    1    2    0    0 -0.48525418963E+02 -0.62363332238E+02 -0.56035691577E+03  0.57323522538E+03  0.91404863457E+02 0.  0.
         11    1    3    3    0    0 -0.57712296960E+02 -0.58598581935E+02 -0.25965914767E+03  0.27237359636E+03  0.00000000000E+00 0. -1.
        -11    1    3    3    0    0  0.91868779975E+01 -0.37647503033E+01 -0.30069776810E+03  0.30086162901E+03  0.00000000000E+00 0.  1.
         22    1    1    2    0    0  0.48525418963E+02  0.62363332238E+02  0.37157248635E+02  0.87318741513E+02  0.00000000000E+00 0.  1.
<mgrwt>
<rscale>  0 0.40322903E+03</rscale>
<asrwt>0</asrwt>
<pdfrwt beam="1">  1        2 0.91057971E-01 0.40322903E+03</pdfrwt>
<pdfrwt beam="2">  1       -2 0.10565715E-01 0.40322903E+03</pdfrwt>
<totfact> 0.31326197E+03</totfact>
</mgrwt>
</event>
<event>
 6    1  0.2047711E-005  0.1803214E+04  0.7818608E-02  0.8704592E-01
         -2   -1    0    0    0  501 -0.00000000000E+00  0.00000000000E+00  0.70170685572E+03  0.70170685572E+03  0.00000000000E+00 0.  1.
          2   -1    0    0  501    0  0.00000000000E+00 -0.00000000000E+00 -0.11584539954E+04  0.11584539954E+04  0.00000000000E+00 0. -1.
         23    2    1    2    0    0  0.60963703924E+03 -0.38498047083E+02  0.45185451703E+03  0.76531091171E+03  0.91590762521E+02 0.  0.
         11    1    3    3    0    0  0.35405690664E+03 -0.47432746307E+02  0.30935338098E+03  0.47255229646E+03  0.00000000000E+00 0.  1.
        -11    1    3    3    0    0  0.25558013260E+03  0.89346992241E+01  0.14250113605E+03  0.29275861525E+03  0.00000000000E+00 0. -1.
         22    1    1    2    0    0 -0.60963703924E+03  0.38498047083E+02 -0.90860165675E+03  0.10948499394E+04  0.00000000000E+00 0. -1.
<mgrwt>
<rscale>  0 0.18032139E+04</rscale>
<asrwt>0</asrwt>
<pdfrwt beam="1">  1        2 0.17822369E+00 0.18032139E+04</pdfrwt>
<pdfrwt beam="2">  1       -2 0.10795490E+00 0.18032139E+04</pdfrwt>
<totfact> 0.13022207E+01</totfact>
</mgrwt>
</event>
<event>
 6    1  0.2047711E-005  0.2059520E+04  0.7818608E-02  0.8579288E-01
         -2   -1    0    0    0  501 -0.00000000000E+00  0.00000000000E+00  0.40351917406E+03  0.40351917406E+03  0.00000000000E+00 0.  1.
          2   -1    0    0  501    0  0.00000000000E+00 -0.00000000000E+00 -0.26278947821E+04  0.26278947821E+04  0.00000000000E+00 0. -1.
         23    2    1    2    0    0  0.51161844736E+03  0.59623196304E+03 -0.13895209845E+03  0.80290835739E+03  0.90045295673E+02 0.  0.
         11    1    3    3    0    0  0.23813785820E+03  0.32418510455E+03 -0.37204088921E+02  0.40396753057E+03  0.00000000000E+00 0.  1.
        -11    1    3    3    0    0  0.27348058917E+03  0.27204685849E+03 -0.10174800953E+03  0.39894082682E+03  0.00000000000E+00 0. -1.
         22    1    1    2    0    0 -0.51161844736E+03 -0.59623196304E+03 -0.20854235096E+04  0.22285055988E+04  0.00000000000E+00 0. -1.
<mgrwt>
<rscale>  0 0.20595203E+04</rscale>
<asrwt>0</asrwt>
<pdfrwt beam="1">  1        2 0.40429149E+00 0.20595203E+04</pdfrwt>
<pdfrwt beam="2">  1       -2 0.62079875E-01 0.20595203E+04</pdfrwt>
<totfact> 0.65314929E+00</totfact>
</mgrwt>
</event>
<event>
 6    1  0.2047711E-005  0.1458066E+04  0.7818608E-02  0.8912828E-01
         -2   -1    0    0    0  501 -0.00000000000E+00  0.00000000000E+00  0.13815807282E+04  0.13815807282E+04  0.00000000000E+00 0. -1.
          2   -1    0    0  501    0  0.00000000000E+00 -0.00000000000E+00 -0.38469630501E+03  0.38469630501E+03  0.00000000000E+00 0.  1.
         23    2    1    2    0    0 -0.55775554007E+03  0.24460977642E+03  0.97981164953E+03  0.11570015087E+04  0.87729341870E+02 0.  0.
         11    1    3    3    0    0 -0.11291821422E+03  0.89578689410E+02  0.22042006976E+03  0.26336262425E+03  0.00000000000E+00 0.  1.
        -11    1    3    3    0    0 -0.44483732585E+03  0.15503108701E+03  0.75939157977E+03  0.89363888447E+03  0.00000000000E+00 0. -1.
         22    1    1    2    0    0  0.55775554007E+03 -0.24460977642E+03  0.17072773712E+02  0.60927552454E+03  0.00000000000E+00 0.  1.
<mgrwt>
<rscale>  0 0.14580658E+04</rscale>
<asrwt>0</asrwt>
<pdfrwt beam="1">  1        2 0.59184048E-01 0.14580658E+04</pdfrwt>
<pdfrwt beam="2">  1       -2 0.21255088E+00 0.14580658E+04</pdfrwt>
<totfact> 0.88738396E+00</totfact>
</mgrwt>
</event>
<event>
 6    1  0.2047711E-005  0.4227462E+04  0.7818608E-02  0.7960169E-01
          2   -1    0    0  501    0  0.00000000000E+00  0.00000000000E+00  0.32379003263E+04  0.32379003263E+04  0.00000000000E+00 0. -1.
         -2   -1    0    0    0  501 -0.00000000000E+00 -0.00000000000E+00 -0.13798627343E+04  0.13798627343E+04  0.00000000000E+00 0.  1.
         23    2    1    2    0    0  0.65056299016E+03 -0.27079663470E+03 -0.12462473101E+04  0.14345025033E+04  0.90011402292E+02 0.  0.
         13    1    3    3    0    0  0.31107527962E+03 -0.13325630580E+03 -0.68940565805E+03  0.76798778244E+03  0.00000000000E+00 0.  1.
        -13    1    3    3    0    0  0.33948771053E+03 -0.13754032891E+03 -0.55684165210E+03  0.66651472091E+03  0.00000000000E+00 0. -1.
         22    1    1    2    0    0 -0.65056299016E+03  0.27079663470E+03  0.31042849022E+04  0.31832605573E+04  0.00000000000E+00 0. -1.
<mgrwt>
<rscale>  0 0.42274616E+04</rscale>
<asrwt>0</asrwt>
<pdfrwt beam="1">  1        2 0.49813851E+00 0.42274616E+04</pdfrwt>
<pdfrwt beam="2">  1       -2 0.21228657E+00 0.42274616E+04</pdfrwt>
<totfact> 0.10488430E-01</totfact>
</mgrwt>
</event>
<event>
 6    1  0.2047711E-005  0.2581465E+04  0.7818608E-02  0.8374524E-01
          2   -1    0    0  501    0  0.00000000000E+00  0.00000000000E+00  0.78134366640E+03  0.78134366640E+03  0.00000000000E+00 0.  1.
         -2   -1    0    0    0  501 -0.00000000000E+00 -0.00000000000E+00 -0.21322127730E+04  0.21322127730E+04  0.00000000000E+00 0. -1.
         23    2    1    2    0    0 -0.50074123962E+03 -0.11721210655E+04 -0.89415837265E+03  0.15596013900E+04  0.90706774359E+02 0.  0.
         11    1    3    3    0    0 -0.47828119936E+03 -0.11211812836E+04 -0.83015570710E+03  0.14747741774E+04  0.00000000000E+00 0. -1.
        -11    1    3    3    0    0 -0.22460040258E+02 -0.50939781901E+02 -0.64002665543E+02  0.84827212527E+02  0.00000000000E+00 0.  1.
         22    1    1    2    0    0  0.50074123962E+03  0.11721210655E+04 -0.45671073391E+03  0.13539550494E+04  0.00000000000E+00 0.  1.
<mgrwt>
<rscale>  0 0.25814654E+04</rscale>
<asrwt>0</asrwt>
<pdfrwt beam="1">  1        2 0.12020672E+00 0.25814654E+04</pdfrwt>
<pdfrwt beam="2">  1       -2 0.32803273E+00 0.25814654E+04</pdfrwt>
<totfact> 0.67245801E-01</totfact>
</mgrwt>
</event>
<event>
 6    1  0.2047711E-005  0.1633682E+04  0.7818608E-02  0.8800119E-01
          2   -1    0    0  501    0  0.00000000000E+00  0.00000000000E+00  0.75120813851E+03  0.75120813851E+03  0.00000000000E+00 0. -1.
         -2   -1    0    0    0  501 -0.00000000000E+00 -0.00000000000E+00 -0.88820821485E+03  0.88820821485E+03  0.00000000000E+00 0.  1.
         23    2    1    2    0    0 -0.26946718138E+02 -0.41603439838E+03 -0.77062069212E+03  0.88094036100E+03  0.91591059948E+02 0.  0.
         13    1    3    3    0    0  0.24819328079E+02 -0.27368509989E+03 -0.47469862044E+03  0.54850552705E+03  0.00000000000E+00 0. -1.
        -13    1    3    3    0    0 -0.51766046217E+02 -0.14234929849E+03 -0.29592207167E+03  0.33243483395E+03  0.00000000000E+00 0.  1.
         22    1    1    2    0    0  0.26946718138E+02  0.41603439838E+03  0.63362061578E+03  0.75847599236E+03  0.00000000000E+00 0. -1.
<mgrwt>
<rscale>  0 0.16336820E+04</rscale>
<asrwt>0</asrwt>
<pdfrwt beam="1">  1        2 0.11557048E+00 0.16336820E+04</pdfrwt>
<pdfrwt beam="2">  1       -2 0.13664742E+00 0.16336820E+04</pdfrwt>
<totfact> 0.13683951E+01</totfact>
</mgrwt>
</event>
<event>
 6    1  0.2047711E-005  0.1806032E+04  0.7818608E-02  0.8703098E-01
          2   -1    0    0  501    0  0.00000000000E+00  0.00000000000E+00  0.12532015347E+04  0.12532015347E+04  0.00000000000E+00 0.  1.
         -2   -1    0    0    0  501 -0.00000000000E+00 -0.00000000000E+00 -0.65068356967E+03  0.65068356967E+03  0.00000000000E+00 0. -1.
         23    2    1    2    0    0 -0.64677485840E+03  0.59624558900E+03  0.50505397946E+03  0.10188281863E+04  0.95419238901E+02 0.  0.
         13    1    3    3    0    0 -0.36023175982E+03  0.30138146287E+03  0.22089541771E+03  0.51903033871E+03  0.00000000000E+00 0.  1.
        -13    1    3    3    0    0 -0.28654309858E+03  0.29486412613E+03  0.28415856175E+03  0.49979784757E+03  0.00000000000E+00 0. -1.
         22    1    1    2    0    0  0.64677485840E+03 -0.59624558900E+03  0.97463985616E+02  0.88505691814E+03  0.00000000000E+00 0. -1.
<mgrwt>
<rscale>  0 0.18060317E+04</rscale>
<asrwt>0</asrwt>
<pdfrwt beam="1">  1        2 0.19280024E+00 0.18060317E+04</pdfrwt>
<pdfrwt beam="2">  1       -2 0.10010516E+00 0.18060317E+04</pdfrwt>
<totfact> 0.13694695E+01</totfact>
</mgrwt>
</event>
<event>
 6    1  0.2047711E-005  0.1758254E+04  0.7818608E-02  0.8728820E-01
          2   -1    0    0  501    0  0.00000000000E+00  0.00000000000E+00  0.18128485410E+04  0.18128485410E+04  0.00000000000E+00 0. -1.
         -2   -1    0    0    0  501 -0.00000000000E+00 -0.00000000000E+00 -0.42632584427E+03  0.42632584427E+03  0.00000000000E+00 0.  1.
         23    2    1    2    0    0  0.53838079483E+03  0.12795832660E+03  0.15611763295E+04  0.16588890200E+04  0.91728050719E+02 0.  0.
         13    1    3    3    0    0  0.18230867966E+03  0.36527349511E+02  0.40425095073E+03  0.44496014778E+03  0.00000000000E+00 0. -1.
        -13    1    3    3    0    0  0.35607211517E+03  0.91430977093E+02  0.11569253788E+04  0.12139288723E+04  0.00000000000E+00 0.  1.
         22    1    1    2    0    0 -0.53838079483E+03 -0.12795832660E+03 -0.17465363286E+03  0.58028536519E+03  0.00000000000E+00 0.  1.
<mgrwt>
<rscale>  0 0.17582539E+04</rscale>
<asrwt>0</asrwt>
<pdfrwt beam="1">  1        2 0.27889977E+00 0.17582539E+04</pdfrwt>
<pdfrwt beam="2">  1       -2 0.65588592E-01 0.17582539E+04</pdfrwt>
<totfact> 0.17213382E+01</totfact>
</mgrwt>
</event>
<event>
 6    1  0.2047711E-005  0.3759008E+04  0.7818608E-02  0.8055009E-01
         -2   -1    0    0    0  501 -0.00000000000E+00  0.00000000000E+00  0.20364327485E+04  0.20364327485E+04  0.00000000000E+00 0.  1.
          2   -1    0    0  501    0  0.00000000000E+00 -0.00000000000E+00 -0.17346682889E+04  0.17346682889E+04  0.00000000000E+00 0. -1.
         23    2    1    2    0    0  0.56264758493E+03  0.16430664338E+04 -0.56673022032E+03  0.18293176768E+04  0.94765022554E+02 0.  0.
         11    1    3    3    0    0  0.13656827759E+03  0.53218780387E+03 -0.17006870521E+03  0.57515051728E+03  0.00000000000E+00 0. -1.
        -11    1    3    3    0    0  0.42607930734E+03  0.11108786299E+04 -0.39666151511E+03  0.12541671595E+04  0.00000000000E+00 0.  1.
         22    1    1    2    0    0 -0.56264758493E+03 -0.16430664338E+04  0.86849467992E+03  0.19417833606E+04  0.00000000000E+00 0.  1.
<mgrwt>
<rscale>  0 0.37590080E+04</rscale>
<asrwt>0</asrwt>
<pdfrwt beam="1">  1        2 0.26687204E+00 0.37590080E+04</pdfrwt>
<pdfrwt beam="2">  1       -2 0.31329735E+00 0.37590080E+04</pdfrwt>
<totfact> 0.19873381E-01</totfact>
</mgrwt>
</event>
<event>
 6    1  0.2047711E-005  0.8300864E+03  0.7818608E-02  0.9517461E-01
          2   -1    0    0  501    0  0.00000000000E+00  0.00000000000E+00  0.12615898072E+04  0.12615898072E+04  0.00000000000E+00 0. -1.
         -2   -1    0    0    0  501 -0.00000000000E+00 -0.00000000000E+00 -0.13654269114E+03  0.13654269114E+03  0.00000000000E+00 0.  1.
         23    2    1    2    0    0 -0.30644598755E+03  0.22772496305E+03  0.31727616719E+03  0.50467757059E+03  0.90925694434E+02 0.  0.
         11    1    3    3    0    0 -0.16494950229E+03  0.66227638323E+02  0.14547075898E+03  0.22968713525E+03  0.00000000000E+00 0.  1.
        -11    1    3    3    0    0 -0.14149648526E+03  0.16149732473E+03  0.17180540821E+03  0.27499043533E+03  0.00000000000E+00 0. -1.
         22    1    1    2    0    0  0.30644598755E+03 -0.22772496305E+03  0.80777094888E+03  0.89345492776E+03  0.00000000000E+00 0. -1.
<mgrwt>
<rscale>  0 0.83008642E+03</rscale>
<asrwt>0</asrwt>
<pdfrwt beam="1">  1        2 0.19409073E+00 0.83008642E+03</pdfrwt>
<pdfrwt beam="2">  1       -2 0.21006569E-01 0.83008642E+03</pdfrwt>
<totfact> 0.34257352E+02</totfact>
</mgrwt>
</event>
<event>
 6    1  0.2047711E-005  0.2191353E+04  0.7818608E-02  0.8522036E-01
          2   -1    0    0  501    0  0.00000000000E+00  0.00000000000E+00  0.13937536737E+04  0.13937536737E+04  0.00000000000E+00 0. -1.
         -2   -1    0    0    0  501 -0.00000000000E+00 -0.00000000000E+00 -0.86134767799E+03  0.86134767799E+03  0.00000000000E+00 0.  1.
         23    2    1    2    0    0 -0.84615241391E+02  0.10682770632E+04  0.49228911622E+03  0.11827278221E+04  0.90116060536E+02 0.  0.
         11    1    3    3    0    0 -0.94981834997E+02  0.69303970637E+03  0.33760628397E+03  0.77672619794E+03  0.00000000000E+00 0. -1.
        -11    1    3    3    0    0  0.10366593606E+02  0.37523735684E+03  0.15468283225E+03  0.40600162416E+03  0.00000000000E+00 0.  1.
         22    1    1    2    0    0  0.84615241391E+02 -0.10682770632E+04  0.40116879447E+02  0.10723735295E+04  0.00000000000E+00 0.  1.
<mgrwt>
<rscale>  0 0.21913525E+04</rscale>
<asrwt>0</asrwt>
<pdfrwt beam="1">  1        2 0.21442364E+00 0.21913525E+04</pdfrwt>
<pdfrwt beam="2">  1       -2 0.13251503E+00 0.21913525E+04</pdfrwt>
<totfact> 0.55217077E+00</totfact>
</mgrwt>
</event>
<event>
 6    1  0.2047711E-005  0.1075191E+04  0.7818608E-02  0.9229715E-01
         -2   -1    0    0    0  501 -0.00000000000E+00  0.00000000000E+00  0.15426403074E+03  0.15426403074E+03  0.00000000000E+00 0.  1.
          2   -1    0    0  501    0  0.00000000000E+00 -0.00000000000E+00 -0.18734694294E+04  0.18734694294E+04  0.00000000000E+00 0. -1.
         23    2    1    2    0    0 -0.15599296001E+03  0.35006724183E+03 -0.16703400027E+03  0.42894738084E+03  0.95992816969E+02 0.  0.
         11    1    3    3    0    0 -0.85047500149E+02  0.15147882396E+03 -0.26999077841E+02  0.17580631842E+03  0.00000000000E+00 0. -1.
        -11    1    3    3    0    0 -0.70945459859E+02  0.19858841786E+03 -0.14003492243E+03  0.25314106242E+03  0.00000000000E+00 0.  1.
         22    1    1    2    0    0  0.15599296001E+03 -0.35006724183E+03 -0.15521713983E+04  0.15987860793E+04  0.00000000000E+00 0. -1.
<mgrwt>
<rscale>  0 0.10751910E+04</rscale>
<asrwt>0</asrwt>
<pdfrwt beam="1">  1        2 0.28822608E+00 0.10751910E+04</pdfrwt>
<pdfrwt beam="2">  1       -2 0.23732927E-01 0.10751910E+04</pdfrwt>
<totfact> 0.12326239E+02</totfact>
</mgrwt>
</event>
<event>
 6    1  0.2047711E-005  0.2513905E+04  0.7818608E-02  0.8398049E-01
         -2   -1    0    0    0  501 -0.00000000000E+00  0.00000000000E+00  0.11408599774E+04  0.11408599774E+04  0.00000000000E+00 0.  1.
          2   -1    0    0  501    0  0.00000000000E+00 -0.00000000000E+00 -0.13848584048E+04  0.13848584048E+04  0.00000000000E+00 0. -1.
         23    2    1    2    0    0 -0.95796757863E+03  0.77270780330E+03 -0.37083984735E+03  0.12884358855E+04  0.88122685368E+02 0.  0.
         13    1    3    3    0    0 -0.45707557371E+03  0.38359334543E+03 -0.13542720053E+03  0.61188435295E+03  0.00000000000E+00 0. -1.
        -13    1    3    3    0    0 -0.50089200492E+03  0.38911445787E+03 -0.23541264681E+03  0.67655153255E+03  0.00000000000E+00 0.  1.
         22    1    1    2    0    0  0.95796757863E+03 -0.77270780330E+03  0.12684141997E+03  0.12372824968E+04  0.00000000000E+00 0.  1.
<mgrwt>
<rscale>  0 0.25139050E+04</rscale>
<asrwt>0</asrwt>
<pdfrwt beam="1">  1        2 0.21305514E+00 0.25139050E+04</pdfrwt>
<pdfrwt beam="2">  1       -2 0.17551692E+00 0.25139050E+04</pdfrwt>
<totfact> 0.25628333E+00</totfact>
</mgrwt>
</event>
<event>
 6    1  0.2047711E-005  0.9879713E+03  0.7818608E-02  0.9321837E-01
          2   -1    0    0  501    0  0.00000000000E+00  0.00000000000E+00  0.25916719410E+04  0.25916719410E+04  0.00000000000E+00 0. -1.
         -2   -1    0    0    0  501 -0.00000000000E+00 -0.00000000000E+00 -0.94156143866E+02  0.94156143866E+02  0.00000000000E+00 0.  1.
         23    2    1    2    0    0 -0.24839574404E+03  0.42211226192E+03  0.12405312591E+04  0.13367953439E+04  0.90690569421E+02 0.  0.
         13    1    3    3    0    0 -0.22122253325E+03  0.39462974975E+03  0.11905853943E+04  0.12736426617E+04  0.00000000000E+00 0.  1.
        -13    1    3    3    0    0 -0.27173210794E+02  0.27482512161E+02  0.49945864852E+02  0.63152682249E+02  0.00000000000E+00 0. -1.
         22    1    1    2    0    0  0.24839574404E+03 -0.42211226192E+03  0.12569845380E+04  0.13490327410E+04  0.00000000000E+00 0.  1.
<mgrwt>
<rscale>  0 0.98797133E+03</rscale>
<asrwt>0</asrwt>
<pdfrwt beam="1">  1        2 0.39871871E+00 0.98797133E+03</pdfrwt>
<pdfrwt beam="2">  1       -2 0.14485563E-01 0.98797133E+03</pdfrwt>
<totfact> 0.11624934E+02</totfact>
</mgrwt>
</event>
<event>
 6    1  0.3011608E-005  0.4117780E+04  0.7818608E-02  0.7981199E-01
         -2   -1    0    0    0  501 -0.00000000000E+00  0.00000000000E+00  0.19460157324E+04  0.19460157324E+04  0.00000000000E+00 0.  1.
          2   -1    0    0  501    0  0.00000000000E+00 -0.00000000000E+00 -0.21783115977E+04  0.21783115977E+04  0.00000000000E+00 0. -1.
         23    2    1    2    0    0  0.85580901207E+02 -0.65884253711E+03 -0.20673092189E+04  0.21727455135E+04  0.75220214503E+02 0.  0.
         11    1    3    3    0    0  0.54370852937E+02 -0.40448001604E+03 -0.11480394299E+04  0.12184230816E+04  0.00000000000E+00 0. -1.
        -11    1    3    3    0    0  0.31210048269E+02 -0.25436252107E+03 -0.91926978892E+03  0.95432243192E+03  0.00000000000E+00 0.  1.
         22    1    1    2    0    0 -0.85580901207E+02  0.65884253711E+03  0.18350133535E+04  0.19515818166E+04  0.00000000000E+00 0.  1.
<mgrwt>
<rscale>  0 0.41177803E+04</rscale>
<asrwt>0</asrwt>
<pdfrwt beam="1">  1        2 0.33512486E+00 0.41177803E+04</pdfrwt>
<pdfrwt beam="2">  1       -2 0.29938704E+00 0.41177803E+04</pdfrwt>
<totfact> 0.13305522E-01</totfact>
</mgrwt>
</event>
<event>
 6    1  0.2047711E-005  0.1584815E+04  0.7818608E-02  0.8829931E-01
          1   -1    0    0  501    0  0.00000000000E+00  0.00000000000E+00  0.19315874034E+04  0.19315874034E+04  0.00000000000E+00 0. -1.
         -1   -1    0    0    0  501 -0.00000000000E+00 -0.00000000000E+00 -0.32507448052E+03  0.32507448052E+03  0.00000000000E+00 0.  1.
         23    2    1    2    0    0 -0.51005145763E+03  0.60275355838E+03  0.83557305991E+03  0.11531164096E+04  0.89614586131E+02 0.  0.
         11    1    3    3    0    0 -0.26435861172E+03  0.32732009409E+03  0.38141908900E+03  0.56789474469E+03  0.00000000000E+00 0. -1.
        -11    1    3    3    0    0 -0.24569284590E+03  0.27543346429E+03  0.45415397090E+03  0.58522166490E+03  0.00000000000E+00 0.  1.
         22    1    1    2    0    0  0.51005145763E+03 -0.60275355838E+03  0.77093986295E+03  0.11035454743E+04  0.00000000000E+00 0.  1.
<mgrwt>
<rscale>  0 0.15848152E+04</rscale>
<asrwt>0</asrwt>
<pdfrwt beam="1">  1        1 0.29716728E+00 0.15848152E+04</pdfrwt>
<pdfrwt beam="2">  1       -1 0.50011460E-01 0.15848152E+04</pdfrwt>
<totfact> 0.12786870E+01</totfact>
</mgrwt>
</event>
<event>
 6    1  0.2047711E-005  0.4355803E+04  0.7818608E-02  0.7936379E-01
          2   -1    0    0  501    0  0.00000000000E+00  0.00000000000E+00  0.31911123665E+04  0.31911123665E+04  0.00000000000E+00 0. -1.
         -2   -1    0    0    0  501 -0.00000000000E+00 -0.00000000000E+00 -0.14863952058E+04  0.14863952058E+04  0.00000000000E+00 0.  1.
         23    2    1    2    0    0 -0.77545200109E+03  0.20203397394E+04  0.59830181268E+03  0.22470233838E+04  0.89724910312E+02 0.  0.
         13    1    3    3    0    0 -0.33710081722E+03  0.87451114551E+03  0.21308519055E+03  0.96115139443E+03  0.00000000000E+00 0.  1.
        -13    1    3    3    0    0 -0.43835118387E+03  0.11458285939E+04  0.38521662213E+03  0.12858719893E+04  0.00000000000E+00 0. -1.
         22    1    1    2    0    0  0.77545200109E+03 -0.20203397394E+04  0.11064153480E+04  0.24304841886E+04  0.00000000000E+00 0. -1.
<mgrwt>
<rscale>  0 0.43558026E+04</rscale>
<asrwt>0</asrwt>
<pdfrwt beam="1">  1        2 0.49094036E+00 0.43558026E+04</pdfrwt>
<pdfrwt beam="2">  1       -2 0.22867619E+00 0.43558026E+04</pdfrwt>
<totfact> 0.87711187E-02</totfact>
</mgrwt>
</event>
<event>
 6    1  0.2047711E-005  0.2069821E+04  0.7818608E-02  0.8574655E-01
         -2   -1    0    0    0  501 -0.00000000000E+00  0.00000000000E+00  0.95024363061E+03  0.95024363061E+03  0.00000000000E+00 0.  1.
          2   -1    0    0  501    0  0.00000000000E+00 -0.00000000000E+00 -0.11271206950E+04  0.11271206950E+04  0.00000000000E+00 0. -1.
         23    2    1    2    0    0 -0.73949454811E+02  0.10053368740E+04  0.13735149637E+03  0.10214711774E+04  0.91472293330E+02 0.  0.
         13    1    3    3    0    0 -0.85206424921E+02  0.54705567637E+03  0.83082931801E+02  0.55985071354E+03  0.00000000000E+00 0. -1.
        -13    1    3    3    0    0  0.11256970110E+02  0.45828119767E+03  0.54268564569E+02  0.46162046381E+03  0.00000000000E+00 0.  1.
         22    1    1    2    0    0  0.73949454811E+02 -0.10053368740E+04 -0.31422856078E+03  0.10558931483E+04  0.00000000000E+00 0.  1.
<mgrwt>
<rscale>  0 0.20698205E+04</rscale>
<asrwt>0</asrwt>
<pdfrwt beam="1">  1        2 0.17340318E+00 0.20698205E+04</pdfrwt>
<pdfrwt beam="2">  1       -2 0.14619133E+00 0.20698205E+04</pdfrwt>
<totfact> 0.62115563E+00</totfact>
</mgrwt>
</event>
<event>
 6    1  0.2047711E-005  0.1867923E+04  0.7818608E-02  0.8670990E-01
         -2   -1    0    0    0  501 -0.00000000000E+00  0.00000000000E+00  0.92981099467E+03  0.92981099467E+03  0.00000000000E+00 0.  1.
          2   -1    0    0  501    0  0.00000000000E+00 -0.00000000000E+00 -0.93813096582E+03  0.93813096582E+03  0.00000000000E+00 0. -1.
         23    2    1    2    0    0  0.25354686692E+02 -0.88173279400E+03 -0.30417743742E+03  0.93755106388E+03  0.91556014572E+02 0.  0.
         11    1    3    3    0    0  0.17418473705E+02 -0.41372753281E+03 -0.19083282728E+03  0.45595070194E+03  0.00000000000E+00 0.  1.
        -11    1    3    3    0    0  0.79362129867E+01 -0.46800526119E+03 -0.11334461014E+03  0.48160036195E+03  0.00000000000E+00 0. -1.
         22    1    1    2    0    0 -0.25354686692E+02  0.88173279400E+03  0.29585746627E+03  0.93039089661E+03  0.00000000000E+00 0. -1.
<mgrwt>
<rscale>  0 0.18679234E+04</rscale>
<asrwt>0</asrwt>
<pdfrwt beam="1">  1        2 0.14432784E+00 0.18679234E+04</pdfrwt>
<pdfrwt beam="2">  1       -2 0.14304784E+00 0.18679234E+04</pdfrwt>
<totfact> 0.88123610E+00</totfact>
</mgrwt>
</event>
<event>
 6    1  0.2047711E-005  0.1245880E+04  0.7818608E-02  0.9073620E-01
          2   -1    0    0  501    0  0.00000000000E+00  0.00000000000E+00  0.17437642375E+04  0.17437642375E+04  0.00000000000E+00 0. -1.
         -2   -1    0    0    0  501 -0.00000000000E+00 -0.00000000000E+00 -0.22253815746E+03  0.22253815746E+03  0.00000000000E+00 0.  1.
         23    2    1    2    0    0  0.98613347559E+02 -0.36272144625E+03  0.15418991654E+04  0.15898467981E+04  0.94171999551E+02 0.  0.
         11    1    3    3    0    0  0.50422376706E+02 -0.59305568334E+02  0.38929678966E+03  0.39700322032E+03  0.00000000000E+00 0.  1.
        -11    1    3    3    0    0  0.48190970853E+02 -0.30341587792E+03  0.11526023757E+04  0.11928435778E+04  0.00000000000E+00 0. -1.
         22    1    1    2    0    0 -0.98613347559E+02  0.36272144625E+03 -0.20673085373E+02  0.37645559678E+03  0.00000000000E+00 0.  1.
<mgrwt>
<rscale>  0 0.12458797E+04</rscale>
<asrwt>0</asrwt>
<pdfrwt beam="1">  1        2 0.26827141E+00 0.12458797E+04</pdfrwt>
<pdfrwt beam="2">  1       -2 0.34236641E-01 0.12458797E+04</pdfrwt>
<totfact> 0.72887057E+01</totfact>
</mgrwt>
</event>
<event>
 6    1  0.2047711E-005  0.2121043E+04  0.7818608E-02  0.8552030E-01
         -2   -1    0    0    0  501 -0.00000000000E+00  0.00000000000E+00  0.62848796380E+03  0.62848796380E+03  0.00000000000E+00 0.  1.
          2   -1    0    0  501    0  0.00000000000E+00 -0.00000000000E+00 -0.17895426282E+04  0.17895426282E+04  0.00000000000E+00 0. -1.
         23    2    1    2    0    0 -0.42262935057E+03 -0.57920660643E+03 -0.14679642877E+04  0.16381015070E+04  0.11983962674E+03 0.  0.
         11    1    3    3    0    0 -0.14093904217E+03 -0.29409268191E+03 -0.65091359644E+03  0.72804040355E+03  0.00000000000E+00 0.  1.
        -11    1    3    3    0    0 -0.28169030840E+03 -0.28511392451E+03 -0.81705069130E+03  0.91006110341E+03  0.00000000000E+00 0. -1.
         22    1    1    2    0    0  0.42262935057E+03  0.57920660643E+03  0.30690962330E+03  0.77992908508E+03  0.00000000000E+00 0.  1.
<mgrwt>
<rscale>  0 0.21210431E+04</rscale>
<asrwt>0</asrwt>
<pdfrwt beam="1">  1        2 0.27531425E+00 0.21210431E+04</pdfrwt>
<pdfrwt beam="2">  1       -2 0.96690457E-01 0.21210431E+04</pdfrwt>
<totfact> 0.71943632E+00</totfact>
</mgrwt>
</event>
<event>
 6    1  0.2379695E-005  0.3187158E+04  0.7818608E-02  0.8192217E-01
          1   -1    0    0  501    0  0.00000000000E+00  0.00000000000E+00  0.25515962247E+04  0.25515962247E+04  0.00000000000E+00 0. -1.
         -1   -1    0    0    0  501 -0.00000000000E+00 -0.00000000000E+00 -0.99525701050E+03  0.99525701050E+03  0.00000000000E+00 0.  1.
         23    2    1    2    0    0  0.47753072258E+03 -0.40872649173E+02 -0.91121642553E+03  0.10331832092E+04  0.86290237997E+02 0.  0.
         13    1    3    3    0    0  0.26107528825E+03 -0.39676986580E+02 -0.58296908292E+03  0.63999025074E+03  0.00000000000E+00 0.  1.
        -13    1    3    3    0    0  0.21645543432E+03 -0.11956625930E+01 -0.32824734261E+03  0.39319295847E+03  0.00000000000E+00 0. -1.
         22    1    1    2    0    0 -0.47753072258E+03  0.40872649173E+02  0.24675556398E+04  0.25136700260E+04  0.00000000000E+00 0. -1.
<mgrwt>
<rscale>  0 0.31871580E+04</rscale>
<asrwt>0</asrwt>
<pdfrwt beam="1">  1        1 0.39255326E+00 0.31871580E+04</pdfrwt>
<pdfrwt beam="2">  1       -1 0.15311646E+00 0.31871580E+04</pdfrwt>
<totfact> 0.34458198E-01</totfact>
</mgrwt>
</event>
<event>
 6    1  0.2047711E-005  0.6081944E+03  0.7818608E-02  0.9888550E-01
         -2   -1    0    0    0  501 -0.00000000000E+00  0.00000000000E+00  0.68701474255E+02  0.68701474255E+02  0.00000000000E+00 0.  1.
          2   -1    0    0  501    0  0.00000000000E+00 -0.00000000000E+00 -0.13460426233E+04  0.13460426233E+04  0.00000000000E+00 0. -1.
         23    2    1    2    0    0  0.43061116014E+02  0.25644397417E+03 -0.31648064758E+03  0.41931922602E+03  0.89726481120E+02 0.  0.
         11    1    3    3    0    0  0.15339076424E+02  0.14034922802E+03 -0.23717214829E+03  0.27601416811E+03  0.00000000000E+00 0.  1.
        -11    1    3    3    0    0  0.27722039590E+02  0.11609474615E+03 -0.79308499291E+02  0.14330505791E+03  0.00000000000E+00 0. -1.
         22    1    1    2    0    0 -0.43061116014E+02 -0.25644397417E+03 -0.96086050151E+03  0.99542487158E+03  0.00000000000E+00 0. -1.
<mgrwt>
<rscale>  0 0.60819442E+03</rscale>
<asrwt>0</asrwt>
<pdfrwt beam="1">  1        2 0.20708347E+00 0.60819442E+03</pdfrwt>
<pdfrwt beam="2">  1       -2 0.10569458E-01 0.60819442E+03</pdfrwt>
<totfact> 0.98913480E+02</totfact>
</mgrwt>
</event>
<event>
 6    1  0.2047711E-005  0.9921691E+03  0.7818608E-02  0.9317176E-01
         -2   -1    0    0    0  501 -0.00000000000E+00  0.00000000000E+00  0.28967595005E+03  0.28967595005E+03  0.00000000000E+00 0.  1.
          2   -1    0    0  501    0  0.00000000000E+00 -0.00000000000E+00 -0.84956961479E+03  0.84956961479E+03  0.00000000000E+00 0. -1.
         23    2    1    2    0    0  0.25270849873E+03  0.33797062118E+03 -0.57254996310E+03  0.71705377431E+03  0.90922653370E+02 0.  0.
         11    1    3    3    0    0  0.66996514563E+02  0.42455603942E+02 -0.14358630836E+03  0.16403670083E+03  0.00000000000E+00 0. -1.
        -11    1    3    3    0    0  0.18571198416E+03  0.29551501724E+03 -0.42896365474E+03  0.55301707348E+03  0.00000000000E+00 0.  1.
         22    1    1    2    0    0 -0.25270849873E+03 -0.33797062118E+03  0.12656298364E+02  0.42219179054E+03  0.00000000000E+00 0.  1.
<mgrwt>
<rscale>  0 0.99216911E+03</rscale>
<asrwt>0</asrwt>
<pdfrwt beam="1">  1        2 0.13070301E+00 0.99216911E+03</pdfrwt>
<pdfrwt beam="2">  1       -2 0.44565532E-01 0.99216911E+03</pdfrwt>
<totfact> 0.15140968E+02</totfact>
</mgrwt>
</event>
<event>
 6    1  0.2047711E-005  0.1012518E+04  0.7818608E-02  0.9294921E-01
         -2   -1    0    0    0  501 -0.00000000000E+00  0.00000000000E+00  0.27068747739E+03  0.27068747739E+03  0.00000000000E+00 0.  1.
          2   -1    0    0  501    0  0.00000000000E+00 -0.00000000000E+00 -0.94684076246E+03  0.94684076246E+03  0.00000000000E+00 0. -1.
         23    2    1    2    0    0  0.29514266669E+03 -0.28396924024E+03 -0.69025904670E+03  0.80771523906E+03  0.90546301737E+02 0.  0.
         13    1    3    3    0    0  0.25403330290E+03 -0.21088704302E+03 -0.59767372984E+03  0.68280315703E+03  0.00000000000E+00 0.  1.
        -13    1    3    3    0    0  0.41109363783E+02 -0.73082197219E+02 -0.92585316855E+02  0.12491208203E+03  0.00000000000E+00 0. -1.
         22    1    1    2    0    0 -0.29514266669E+03  0.28396924024E+03  0.14105761635E+02  0.40981300079E+03  0.00000000000E+00 0.  1.
<mgrwt>
<rscale>  0 0.10125175E+04</rscale>
<asrwt>0</asrwt>
<pdfrwt beam="1">  1        2 0.14566781E+00 0.10125175E+04</pdfrwt>
<pdfrwt beam="2">  1       -2 0.41644227E-01 0.10125175E+04</pdfrwt>
<totfact> 0.14860652E+02</totfact>
</mgrwt>
</event>
<event>
 6    1  0.2047711E-005  0.1000677E+04  0.7818608E-02  0.9307802E-01
         -2   -1    0    0    0  501 -0.00000000000E+00  0.00000000000E+00  0.99355713676E+03  0.99355713676E+03  0.00000000000E+00 0.  1.
          2   -1    0    0  501    0  0.00000000000E+00 -0.00000000000E+00 -0.25196211429E+03  0.25196211429E+03  0.00000000000E+00 0. -1.
         23    2    1    2    0    0  0.23120276620E+03 -0.23430539920E+02  0.91952369156E+03  0.95283798998E+03  0.91502494598E+02 0.  0.
         13    1    3    3    0    0  0.71921015986E+02 -0.49137073201E+02  0.37027132415E+03  0.38037867710E+03  0.00000000000E+00 0. -1.
        -13    1    3    3    0    0  0.15928175021E+03  0.25706533281E+02  0.54925236741E+03  0.57245931288E+03  0.00000000000E+00 0.  1.
         22    1    1    2    0    0 -0.23120276620E+03  0.23430539920E+02 -0.17792866909E+03  0.29268126107E+03  0.00000000000E+00 0. -1.
<mgrwt>
<rscale>  0 0.10006773E+04</rscale>
<asrwt>0</asrwt>
<pdfrwt beam="1">  1        2 0.38763403E-01 0.10006773E+04</pdfrwt>
<pdfrwt beam="2">  1       -2 0.15285494E+00 0.10006773E+04</pdfrwt>
<totfact> 0.37919950E+01</totfact>
</mgrwt>
</event>
<event>
 6    1  0.2047711E-005  0.2223225E+04  0.7818608E-02  0.8508823E-01
          2   -1    0    0  501    0  0.00000000000E+00  0.00000000000E+00  0.14099306428E+04  0.14099306428E+04  0.00000000000E+00 0. -1.
         -2   -1    0    0    0  501 -0.00000000000E+00 -0.00000000000E+00 -0.87641364794E+03  0.87641364794E+03  0.00000000000E+00 0.  1.
         23    2    1    2    0    0  0.29513551127E+02  0.45592583067E+03  0.13061715007E+04  0.13887171978E+04  0.11709847749E+03 0.  0.
         13    1    3    3    0    0  0.66096956657E+02  0.26266345817E+03  0.66464768395E+03  0.71771682697E+03  0.00000000000E+00 0.  1.
        -13    1    3    3    0    0 -0.36583405530E+02  0.19326237250E+03  0.64152381674E+03  0.67100037081E+03  0.00000000000E+00 0. -1.
         22    1    1    2    0    0 -0.29513551127E+02 -0.45592583067E+03 -0.77265450579E+03  0.89762709300E+03  0.00000000000E+00 0.  1.
<mgrwt>
<rscale>  0 0.22232251E+04</rscale>
<asrwt>0</asrwt>
<pdfrwt beam="1">  1        2 0.21691241E+00 0.22232251E+04</pdfrwt>
<pdfrwt beam="2">  1       -2 0.13483287E+00 0.22232251E+04</pdfrwt>
<totfact> 0.51576919E+00</totfact>
</mgrwt>
</event>
<event>
 6    1  0.2047711E-005  0.1591737E+04  0.7818608E-02  0.8825641E-01
         -2   -1    0    0    0  501 -0.00000000000E+00  0.00000000000E+00  0.27200280695E+03  0.27200280695E+03  0.00000000000E+00 0.  1.
          2   -1    0    0  501    0  0.00000000000E+00 -0.00000000000E+00 -0.23286762240E+04  0.23286762240E+04  0.00000000000E+00 0. -1.
         23    2    1    2    0    0 -0.30393504217E+02  0.65684602974E+03 -0.17570293287E+04  0.18780746775E+04  0.87418308158E+02 0.  0.
         11    1    3    3    0    0 -0.31613343446E+02  0.24415897036E+03 -0.76458595412E+03  0.80324634299E+03  0.00000000000E+00 0. -1.
        -11    1    3    3    0    0  0.12198392291E+01  0.41268705939E+03 -0.99244337453E+03  0.10748283345E+04  0.00000000000E+00 0.  1.
         22    1    1    2    0    0  0.30393504217E+02 -0.65684602974E+03 -0.29964408837E+03  0.72260435342E+03  0.00000000000E+00 0.  1.
<mgrwt>
<rscale>  0 0.15917367E+04</rscale>
<asrwt>0</asrwt>
<pdfrwt beam="1">  1        2 0.35825789E+00 0.15917367E+04</pdfrwt>
<pdfrwt beam="2">  1       -2 0.41846584E-01 0.15917367E+04</pdfrwt>
<totfact> 0.22703337E+01</totfact>
</mgrwt>
</event>
<event>
 6    1  0.2047711E-005  0.2910826E+04  0.7818608E-02  0.8269664E-01
         -2   -1    0    0    0  501 -0.00000000000E+00  0.00000000000E+00  0.68340251556E+03  0.68340251556E+03  0.00000000000E+00 0.  1.
          2   -1    0    0  501    0  0.00000000000E+00 -0.00000000000E+00 -0.30995310498E+04  0.30995310498E+04  0.00000000000E+00 0. -1.
         23    2    1    2    0    0 -0.51896144994E+02 -0.50248008880E+03 -0.29811104302E+04  0.30250523133E+04  0.93502148072E+02 0.  0.
         13    1    3    3    0    0  0.16778054848E+01 -0.20990201364E+03 -0.14739358370E+04  0.14888077519E+04  0.00000000000E+00 0. -1.
        -13    1    3    3    0    0 -0.53573950479E+02 -0.29257807516E+03 -0.15071745932E+04  0.15362445615E+04  0.00000000000E+00 0.  1.
         22    1    1    2    0    0  0.51896144994E+02  0.50248008880E+03  0.56498189595E+03  0.75788125208E+03  0.00000000000E+00 0.  1.
<mgrwt>
<rscale>  0 0.29108262E+04</rscale>
<asrwt>0</asrwt>
<pdfrwt beam="1">  1        2 0.47685093E+00 0.29108262E+04</pdfrwt>
<pdfrwt beam="2">  1       -2 0.10513885E+00 0.29108262E+04</pdfrwt>
<totfact> 0.95096203E-01</totfact>
</mgrwt>
</event>
<event>
 6    1  0.2047711E-005  0.2470762E+04  0.7818608E-02  0.8413476E-01
          2   -1    0    0  501    0  0.00000000000E+00  0.00000000000E+00  0.15448647162E+04  0.15448647162E+04  0.00000000000E+00 0. -1.
         -2   -1    0    0    0  501 -0.00000000000E+00 -0.00000000000E+00 -0.98789608601E+03  0.98789608601E+03  0.00000000000E+00 0.  1.
         23    2    1    2    0    0 -0.10000349603E+04 -0.29922273456E+03  0.95303192441E+03  0.14163064593E+04  0.89721630731E+02 0.  0.
         11    1    3    3    0    0 -0.78657416081E+03 -0.22436981139E+03  0.79272191108E+03  0.11390560790E+04  0.00000000000E+00 0. -1.
        -11    1    3    3    0    0 -0.21346079947E+03 -0.74852923166E+02  0.16031001333E+03  0.27725038033E+03  0.00000000000E+00 0.  1.
         22    1    1    2    0    0  0.10000349603E+04  0.29922273456E+03 -0.39606329427E+03  0.11164543429E+04  0.00000000000E+00 0.  1.
<mgrwt>
<rscale>  0 0.24707617E+04</rscale>
<asrwt>0</asrwt>
<pdfrwt beam="1">  1        2 0.23767149E+00 0.24707617E+04</pdfrwt>
<pdfrwt beam="2">  1       -2 0.15198401E+00 0.24707617E+04</pdfrwt>
<totfact> 0.30981996E+00</totfact>
</mgrwt>
</event>
<event>
 6    1  0.2047711E-005  0.3102415E+04  0.7818608E-02  0.8215076E-01
          2   -1    0    0  501    0  0.00000000000E+00  0.00000000000E+00  0.17853824414E+04  0.17853824414E+04  0.00000000000E+00 0. -1.
         -2   -1    0    0    0  501 -0.00000000000E+00 -0.00000000000E+00 -0.13477471844E+04  0.13477471844E+04  0.00000000000E+00 0.  1.
         23    2    1    2    0    0 -0.82664544156E+03 -0.11269332058E+04 -0.45757180084E+03  0.14733956673E+04  0.90563255828E+02 0.  0.
         13    1    3    3    0    0 -0.22225060030E+03 -0.36014025911E+03 -0.16397532628E+03  0.45385487019E+03  0.00000000000E+00 0.  1.
        -13    1    3    3    0    0 -0.60439484127E+03 -0.76679294664E+03 -0.29359647456E+03  0.10195407971E+04  0.00000000000E+00 0. -1.
         22    1    1    2    0    0  0.82664544156E+03  0.11269332058E+04  0.89520705788E+03  0.16597339584E+04  0.00000000000E+00 0. -1.
<mgrwt>
<rscale>  0 0.31024146E+04</rscale>
<asrwt>0</asrwt>
<pdfrwt beam="1">  1        2 0.27467422E+00 0.31024146E+04</pdfrwt>
<pdfrwt beam="2">  1       -2 0.20734572E+00 0.31024146E+04</pdfrwt>
<totfact> 0.88900841E-01</totfact>
</mgrwt>
</event>
<event>
 6    1  0.2047711E-005  0.2243484E+04  0.7818608E-02  0.8500544E-01
          2   -1    0    0  501    0  0.00000000000E+00  0.00000000000E+00  0.16984818031E+04  0.16984818031E+04  0.00000000000E+00 0. -1.
         -2   -1    0    0    0  501 -0.00000000000E+00 -0.00000000000E+00 -0.74084132921E+03  0.74084132921E+03  0.00000000000E+00 0.  1.
         23    2    1    2    0    0  0.50260422263E+03  0.58917720551E+03  0.13591122009E+04  0.15670156569E+04  0.92797146626E+02 0.  0.
         13    1    3    3    0    0  0.15411692328E+03  0.17999345653E+03  0.33357495552E+03  0.40917223927E+03  0.00000000000E+00 0.  1.
        -13    1    3    3    0    0  0.34848729934E+03  0.40918374898E+03  0.10255372453E+04  0.11578434177E+04  0.00000000000E+00 0. -1.
         22    1    1    2    0    0 -0.50260422263E+03 -0.58917720551E+03 -0.40147172695E+03  0.87230747540E+03  0.00000000000E+00 0.  1.
<mgrwt>
<rscale>  0 0.22434844E+04</rscale>
<asrwt>0</asrwt>
<pdfrwt beam="1">  1        2 0.26130489E+00 0.22434844E+04</pdfrwt>
<pdfrwt beam="2">  1       -2 0.11397559E+00 0.22434844E+04</pdfrwt>
<totfact> 0.53941440E+00</totfact>
</mgrwt>
</event>
<event>
 6    1  0.2047711E-005  0.2933760E+04  0.7818608E-02  0.8262903E-01
         -2   -1    0    0    0  501 -0.00000000000E+00  0.00000000000E+00  0.97697358207E+03  0.97697358207E+03  0.00000000000E+00 0.  1.
          2   -1    0    0  501    0  0.00000000000E+00 -0.00000000000E+00 -0.22024522272E+04  0.22024522272E+04  0.00000000000E+00 0. -1.
         23    2    1    2    0    0  0.42130789877E+03 -0.23807553106E+03  0.88558167858E+03  0.10136104906E+04  0.94715432942E+02 0.  0.
         13    1    3    3    0    0  0.36971212221E+03 -0.23994792147E+03  0.77485445549E+03  0.89143787530E+03  0.00000000000E+00 0. -1.
        -13    1    3    3    0    0  0.51595776568E+02  0.18723904159E+01  0.11072722309E+03  0.12217261534E+03  0.00000000000E+00 0.  1.
         22    1    1    2    0    0 -0.42130789877E+03  0.23807553106E+03 -0.21110603237E+04  0.21658153186E+04  0.00000000000E+00 0. -1.
<mgrwt>
<rscale>  0 0.29337605E+04</rscale>
<asrwt>0</asrwt>
<pdfrwt beam="1">  1        2 0.33883880E+00 0.29337605E+04</pdfrwt>
<pdfrwt beam="2">  1       -2 0.15030363E+00 0.29337605E+04</pdfrwt>
<totfact> 0.13202479E+00</totfact>
</mgrwt>
</event>
<event>
 6    1  0.2047711E-005  0.1352357E+04  0.7818608E-02  0.8989046E-01
          1   -1    0    0  501    0  0.00000000000E+00  0.00000000000E+00  0.29599919192E+04  0.29599919192E+04  0.00000000000E+00 0. -1.
         -1   -1    0    0    0  501 -0.00000000000E+00 -0.00000000000E+00 -0.15446564592E+03  0.15446564592E+03  0.00000000000E+00 0.  1.
         23    2    1    2    0    0 -0.50519053768E+03  0.43581767116E+03  0.12104150107E+04  0.13854305376E+04  0.95701382188E+02 0.  0.
         11    1    3    3    0    0 -0.19111609707E+03  0.21924898731E+03  0.47570527993E+03  0.55757599872E+03  0.00000000000E+00 0. -1.
        -11    1    3    3    0    0 -0.31407444061E+03  0.21656868385E+03  0.73470973078E+03  0.82785453890E+03  0.00000000000E+00 0.  1.
         22    1    1    2    0    0  0.50519053768E+03 -0.43581767116E+03  0.15951112625E+04  0.17290270275E+04  0.00000000000E+00 0.  1.
<mgrwt>
<rscale>  0 0.13523566E+04</rscale>
<asrwt>0</asrwt>
<pdfrwt beam="1">  1        1 0.45538333E+00 0.13523566E+04</pdfrwt>
<pdfrwt beam="2">  1       -1 0.23763948E-01 0.13523566E+04</pdfrwt>
<totfact> 0.96388448E+00</totfact>
</mgrwt>
</event>
<event>
 6    1  0.2047711E-005  0.5533900E+03  0.7818608E-02  0.1000712E+00
         -2   -1    0    0    0  501 -0.00000000000E+00  0.00000000000E+00  0.15030689747E+04  0.15030689747E+04  0.00000000000E+00 0.  1.
          2   -1    0    0  501    0  0.00000000000E+00 -0.00000000000E+00 -0.50935876474E+02  0.50935876474E+02  0.00000000000E+00 0. -1.
         23    2    1    2    0    0 -0.12352199655E+03  0.87273901467E+02  0.13731500226E+04  0.13833802816E+04  0.72976717971E+02 0.  0.
         11    1    3    3    0    0 -0.86575954402E+02  0.16757007172E+02  0.69374435768E+03  0.69932640947E+03  0.00000000000E+00 0. -1.
        -11    1    3    3    0    0 -0.36946042152E+02  0.70516894294E+02  0.67940566493E+03  0.68405387211E+03  0.00000000000E+00 0.  1.
         22    1    1    2    0    0  0.12352199655E+03 -0.87273901467E+02  0.78983075588E+02  0.17062456956E+03  0.00000000000E+00 0. -1.
<mgrwt>
<rscale>  0 0.55339005E+03</rscale>
<asrwt>0</asrwt>
<pdfrwt beam="1">  1        2 0.78362898E-02 0.55339005E+03</pdfrwt>
<pdfrwt beam="2">  1       -2 0.23124135E+00 0.55339005E+03</pdfrwt>
<totfact> 0.79227738E+01</totfact>
</mgrwt>
</event>
<event>
 6    1  0.2047711E-005  0.1548474E+04  0.7818608E-02  0.8852843E-01
          2   -1    0    0  501    0  0.00000000000E+00  0.00000000000E+00  0.54771423021E+03  0.54771423021E+03  0.00000000000E+00 0. -1.
         -2   -1    0    0    0  501 -0.00000000000E+00 -0.00000000000E+00 -0.10944441578E+04  0.10944441578E+04  0.00000000000E+00 0.  1.
         23    2    1    2    0    0  0.57384661654E+03  0.35749145799E+03 -0.66814386462E+03  0.95525124294E+03  0.94808393322E+02 0.  0.
         11    1    3    3    0    0  0.10126874449E+03  0.24554374540E+02 -0.11443924687E+03  0.15477279200E+03  0.00000000000E+00 0. -1.
        -11    1    3    3    0    0  0.47257787206E+03  0.33293708345E+03 -0.55370461775E+03  0.80047845093E+03  0.00000000000E+00 0.  1.
         22    1    1    2    0    0 -0.57384661654E+03 -0.35749145799E+03  0.12141393702E+03  0.68690714508E+03  0.00000000000E+00 0. -1.
<mgrwt>
<rscale>  0 0.15484736E+04</rscale>
<asrwt>0</asrwt>
<pdfrwt beam="1">  1        2 0.84263729E-01 0.15484736E+04</pdfrwt>
<pdfrwt beam="2">  1       -2 0.16837602E+00 0.15484736E+04</pdfrwt>
<totfact> 0.11647296E+01</totfact>
</mgrwt>
</event>
<event>
 6    1  0.2047711E-005  0.2450749E+04  0.7818608E-02  0.8420745E-01
          2   -1    0    0  501    0  0.00000000000E+00  0.00000000000E+00  0.24591382561E+04  0.24591382561E+04  0.00000000000E+00 0. -1.
         -2   -1    0    0    0  501 -0.00000000000E+00 -0.00000000000E+00 -0.61059694538E+03  0.61059694538E+03  0.00000000000E+00 0.  1.
         23    2    1    2    0    0 -0.25344382401E+02 -0.43787840787E+03 -0.50540001355E+03  0.67527918897E+03  0.90515035002E+02 0.  0.
         13    1    3    3    0    0 -0.42685772198E+02 -0.34636066383E+03 -0.43938255178E+03  0.56111033800E+03  0.00000000000E+00 0. -1.
        -13    1    3    3    0    0  0.17341389797E+02 -0.91517744036E+02 -0.66017461768E+02  0.11416885097E+03  0.00000000000E+00 0.  1.
         22    1    1    2    0    0  0.25344382401E+02  0.43787840787E+03  0.23539413243E+04  0.23944560125E+04  0.00000000000E+00 0. -1.
<mgrwt>
<rscale>  0 0.24507487E+04</rscale>
<asrwt>0</asrwt>
<pdfrwt beam="1">  1        2 0.37832896E+00 0.24507487E+04</pdfrwt>
<pdfrwt beam="2">  1       -2 0.93937993E-01 0.24507487E+04</pdfrwt>
<totfact> 0.31491059E+00</totfact>
</mgrwt>
</event>
<event>
 6    1  0.2047711E-005  0.1918631E+04  0.7818608E-02  0.8645638E-01
         -2   -1    0    0    0  501 -0.00000000000E+00  0.00000000000E+00  0.12776946725E+04  0.12776946725E+04  0.00000000000E+00 0.  1.
          2   -1    0    0  501    0  0.00000000000E+00 -0.00000000000E+00 -0.72027081318E+03  0.72027081318E+03  0.00000000000E+00 0. -1.
         23    2    1    2    0    0 -0.34548968893E+03  0.85635870264E+03  0.54154314450E+03  0.10744041450E+04  0.91443626257E+02 0.  0.
         13    1    3    3    0    0 -0.89778249955E+02  0.14982874562E+03  0.12970003972E+03  0.21755663052E+03  0.00000000000E+00 0. -1.
        -13    1    3    3    0    0 -0.25571143898E+03  0.70652995702E+03  0.41184310478E+03  0.85684751452E+03  0.00000000000E+00 0.  1.
         22    1    1    2    0    0  0.34548968893E+03 -0.85635870264E+03  0.15880714771E+02  0.92356134060E+03  0.00000000000E+00 0. -1.
<mgrwt>
<rscale>  0 0.19186310E+04</rscale>
<asrwt>0</asrwt>
<pdfrwt beam="1">  1        2 0.11081089E+00 0.19186310E+04</pdfrwt>
<pdfrwt beam="2">  1       -2 0.19656841E+00 0.19186310E+04</pdfrwt>
<totfact> 0.51736086E+00</totfact>
</mgrwt>
</event>
<event>
 6    1  0.2047711E-005  0.1402159E+04  0.7818608E-02  0.8952257E-01
         -2   -1    0    0    0  501 -0.00000000000E+00  0.00000000000E+00  0.70961082315E+03  0.70961082315E+03  0.00000000000E+00 0.  1.
          2   -1    0    0  501    0  0.00000000000E+00 -0.00000000000E+00 -0.69265091912E+03  0.69265091912E+03  0.00000000000E+00 0. -1.
         23    2    1    2    0    0  0.64885452963E+03 -0.10350345593E+03  0.24438665276E+03  0.70695742613E+03  0.91317031857E+02 0.  0.
         13    1    3    3    0    0  0.42857829631E+03 -0.11068961775E+03  0.17374402475E+03  0.47551922535E+03  0.00000000000E+00 0. -1.
        -13    1    3    3    0    0  0.22027623332E+03  0.71861618229E+01  0.70642628013E+02  0.23143820078E+03  0.00000000000E+00 0.  1.
         22    1    1    2    0    0 -0.64885452963E+03  0.10350345593E+03 -0.22742674873E+03  0.69530431614E+03  0.00000000000E+00 0. -1.
<mgrwt>
<rscale>  0 0.14021592E+04</rscale>
<asrwt>0</asrwt>
<pdfrwt beam="1">  1        2 0.10656168E+00 0.14021592E+04</pdfrwt>
<pdfrwt beam="2">  1       -2 0.10917090E+00 0.14021592E+04</pdfrwt>
<totfact> 0.27043003E+01</totfact>
</mgrwt>
</event>
<event>
 6    1  0.2047711E-005  0.3812628E+04  0.7818608E-02  0.8043450E-01
          2   -1    0    0  501    0  0.00000000000E+00  0.00000000000E+00  0.22534435910E+04  0.22534435910E+04  0.00000000000E+00 0. -1.
         -2   -1    0    0    0  501 -0.00000000000E+00 -0.00000000000E+00 -0.16126577838E+04  0.16126577838E+04  0.00000000000E+00 0.  1.
         23    2    1    2    0    0 -0.15549208678E+04 -0.24099555360E+03  0.14098243086E+04  0.21147367701E+04  0.93001416454E+02 0.  0.
         13    1    3    3    0    0 -0.77095230159E+03 -0.16359464663E+03  0.68332018252E+03  0.10430997707E+04  0.00000000000E+00 0. -1.
        -13    1    3    3    0    0 -0.78396856625E+03 -0.77400906963E+02  0.72650412608E+03  0.10716369994E+04  0.00000000000E+00 0.  1.
         22    1    1    2    0    0  0.15549208678E+04  0.24099555360E+03 -0.76903850141E+03  0.17513646047E+04  0.00000000000E+00 0.  1.
<mgrwt>
<rscale>  0 0.38126281E+04</rscale>
<asrwt>0</asrwt>
<pdfrwt beam="1">  1        2 0.34668363E+00 0.38126281E+04</pdfrwt>
<pdfrwt beam="2">  1       -2 0.24810120E+00 0.38126281E+04</pdfrwt>
<totfact> 0.25475383E-01</totfact>
</mgrwt>
</event>
<event>
 6    1  0.2047711E-005  0.1211879E+04  0.7818608E-02  0.9102522E-01
          2   -1    0    0  501    0  0.00000000000E+00  0.00000000000E+00  0.19994706855E+04  0.19994706855E+04  0.00000000000E+00 0. -1.
         -2   -1    0    0    0  501 -0.00000000000E+00 -0.00000000000E+00 -0.18363002030E+03  0.18363002030E+03  0.00000000000E+00 0.  1.
         23    2    1    2    0    0  0.13289507853E+03 -0.48022461248E+03  0.30277116000E+03  0.59009847482E+03  0.90934340746E+02 0.  0.
         13    1    3    3    0    0  0.16457379385E+02 -0.21953826968E+03  0.14873594351E+03  0.26568831002E+03  0.00000000000E+00 0. -1.
        -13    1    3    3    0    0  0.11643769915E+03 -0.26068634280E+03  0.15403521650E+03  0.32441016480E+03  0.00000000000E+00 0.  1.
         22    1    1    2    0    0 -0.13289507853E+03  0.48022461248E+03  0.15130695052E+04  0.15930022310E+04  0.00000000000E+00 0. -1.
<mgrwt>
<rscale>  0 0.12118793E+04</rscale>
<asrwt>0</asrwt>
<pdfrwt beam="1">  1        2 0.30761086E+00 0.12118793E+04</pdfrwt>
<pdfrwt beam="2">  1       -2 0.28250774E-01 0.12118793E+04</pdfrwt>
<totfact> 0.75684245E+01</totfact>
</mgrwt>
</event>
<event>
 6    1  0.2047711E-005  0.3232095E+04  0.7818608E-02  0.8180392E-01
         -2   -1    0    0    0  501 -0.00000000000E+00  0.00000000000E+00  0.78947147539E+03  0.78947147539E+03  0.00000000000E+00 0.  1.
          2   -1    0    0  501    0  0.00000000000E+00 -0.00000000000E+00 -0.33080471232E+04  0.33080471232E+04  0.00000000000E+00 0. -1.
         23    2    1    2    0    0  0.16082584852E+04 -0.12053793427E+03 -0.13622469744E+04  0.21130487072E+04  0.90737372802E+02 0.  0.
         11    1    3    3    0    0  0.67762645262E+03 -0.72059479670E+02 -0.52400048754E+03  0.85962008402E+03  0.00000000000E+00 0. -1.
        -11    1    3    3    0    0  0.93063203261E+03 -0.48478454605E+02 -0.83824648691E+03  0.12534286232E+04  0.00000000000E+00 0.  1.
         22    1    1    2    0    0 -0.16082584852E+04  0.12053793427E+03 -0.11563286734E+04  0.19844698914E+04  0.00000000000E+00 0.  1.
<mgrwt>
<rscale>  0 0.32320946E+04</rscale>
<asrwt>0</asrwt>
<pdfrwt beam="1">  1        2 0.50893032E+00 0.32320946E+04</pdfrwt>
<pdfrwt beam="2">  1       -2 0.12145715E+00 0.32320946E+04</pdfrwt>
<totfact> 0.47555566E-01</totfact>
</mgrwt>
</event>
<event>
 6    1  0.2047711E-005  0.4984952E+04  0.7818608E-02  0.7830833E-01
          2   -1    0    0  501    0  0.00000000000E+00  0.00000000000E+00  0.30841560775E+04  0.30841560775E+04  0.00000000000E+00 0. -1.
         -2   -1    0    0    0  501 -0.00000000000E+00 -0.00000000000E+00 -0.20143071970E+04  0.20143071970E+04  0.00000000000E+00 0.  1.
         23    2    1    2    0    0  0.20549487689E+04  0.13775478383E+04  0.83812245715E+03  0.26136796571E+04  0.91758419681E+02 0.  0.
         13    1    3    3    0    0  0.15867070978E+04  0.10221083954E+04  0.61973848334E+03  0.19865600353E+04  0.00000000000E+00 0.  1.
        -13    1    3    3    0    0  0.46824167111E+03  0.35543944288E+03  0.21838397381E+03  0.62711962187E+03  0.00000000000E+00 0. -1.
         22    1    1    2    0    0 -0.20549487689E+04 -0.13775478383E+04  0.23172642333E+03  0.24847836173E+04  0.00000000000E+00 0.  1.
<mgrwt>
<rscale>  0 0.49849525E+04</rscale>
<asrwt>0</asrwt>
<pdfrwt beam="1">  1        2 0.47448555E+00 0.49849525E+04</pdfrwt>
<pdfrwt beam="2">  1       -2 0.30989342E+00 0.49849525E+04</pdfrwt>
<totfact> 0.31008103E-02</totfact>
</mgrwt>
</event>
<event>
 6    1  0.2047711E-005  0.1936574E+04  0.7818608E-02  0.8636862E-01
          2   -1    0    0  501    0  0.00000000000E+00  0.00000000000E+00  0.82370757320E+03  0.82370757320E+03  0.00000000000E+00 0. -1.
         -2   -1    0    0    0  501 -0.00000000000E+00 -0.00000000000E+00 -0.11382439917E+04  0.11382439917E+04  0.00000000000E+00 0.  1.
         23    2    1    2    0    0 -0.71293472564E+03  0.13538022243E+02 -0.81807123239E+03  0.10890217224E+04  0.90931675426E+02 0.  0.
         11    1    3    3    0    0 -0.19032040582E+03  0.40699186901E+02 -0.19807925864E+03  0.27769348820E+03  0.00000000000E+00 0.  1.
        -11    1    3    3    0    0 -0.52261431982E+03 -0.27161164657E+02 -0.61999197375E+03  0.81132823423E+03  0.00000000000E+00 0. -1.
         22    1    1    2    0    0  0.71293472564E+03 -0.13538022243E+02  0.50353481389E+03  0.87292984247E+03  0.00000000000E+00 0. -1.
<mgrwt>
<rscale>  0 0.19365745E+04</rscale>
<asrwt>0</asrwt>
<pdfrwt beam="1">  1        2 0.12672424E+00 0.19365745E+04</pdfrwt>
<pdfrwt beam="2">  1       -2 0.17511446E+00 0.19365745E+04</pdfrwt>
<totfact> 0.60631723E+00</totfact>
</mgrwt>
</event>
<event>
 6    1  0.2047711E-005  0.1751588E+04  0.7818608E-02  0.8732476E-01
          2   -1    0    0  501    0  0.00000000000E+00  0.00000000000E+00  0.69653721447E+03  0.69653721447E+03  0.00000000000E+00 0. -1.
         -2   -1    0    0    0  501 -0.00000000000E+00 -0.00000000000E+00 -0.11011837304E+04  0.11011837304E+04  0.00000000000E+00 0.  1.
         23    2    1    2    0    0 -0.62872944931E+03  0.23931749416E+03  0.36879739786E+03  0.77264091324E+03  0.91590811199E+02 0.  0.
         11    1    3    3    0    0 -0.56860647546E+02  0.67194877011E+01  0.86419917092E+01  0.57904825144E+02  0.00000000000E+00 0. -1.
        -11    1    3    3    0    0 -0.57186880176E+03  0.23259800646E+03  0.36015540616E+03  0.71473608809E+03  0.00000000000E+00 0.  1.
         22    1    1    2    0    0  0.62872944931E+03 -0.23931749416E+03 -0.77344391377E+03  0.10250800316E+04  0.00000000000E+00 0.  1.
<mgrwt>
<rscale>  0 0.17515884E+04</rscale>
<asrwt>0</asrwt>
<pdfrwt beam="1">  1        2 0.10715957E+00 0.17515884E+04</pdfrwt>
<pdfrwt beam="2">  1       -2 0.16941288E+00 0.17515884E+04</pdfrwt>
<totfact> 0.84029421E+00</totfact>
</mgrwt>
</event>
<event>
 6    1  0.2047711E-005  0.3223869E+04  0.7818608E-02  0.8182542E-01
          2   -1    0    0  501    0  0.00000000000E+00  0.00000000000E+00  0.16242417845E+04  0.16242417845E+04  0.00000000000E+00 0. -1.
         -2   -1    0    0    0  501 -0.00000000000E+00 -0.00000000000E+00 -0.15997206149E+04  0.15997206149E+04  0.00000000000E+00 0.  1.
         23    2    1    2    0    0  0.11252525620E+04  0.60061357026E+03  0.99588850735E+03  0.16206893428E+04  0.88938392901E+02 0.  0.
         13    1    3    3    0    0  0.10324727300E+04  0.52272175665E+03  0.89272159815E+03  0.14615710126E+04  0.00000000000E+00 0. -1.
        -13    1    3    3    0    0  0.92779832027E+02  0.77891813610E+02  0.10316690920E+03  0.15911833022E+03  0.00000000000E+00 0.  1.
         22    1    1    2    0    0 -0.11252525620E+04 -0.60061357026E+03 -0.97136733776E+03  0.16032730566E+04  0.00000000000E+00 0.  1.
<mgrwt>
<rscale>  0 0.32238691E+04</rscale>
<asrwt>0</asrwt>
<pdfrwt beam="1">  1        2 0.24988335E+00 0.32238691E+04</pdfrwt>
<pdfrwt beam="2">  1       -2 0.24611086E+00 0.32238691E+04</pdfrwt>
<totfact> 0.61689627E-01</totfact>
</mgrwt>
</event>
<event>
 6    1  0.2047711E-005  0.9759186E+03  0.7818608E-02  0.9335358E-01
          2   -1    0    0  501    0  0.00000000000E+00  0.00000000000E+00  0.93919112819E+03  0.93919112819E+03  0.00000000000E+00 0. -1.
         -2   -1    0    0    0  501 -0.00000000000E+00 -0.00000000000E+00 -0.25352057957E+03  0.25352057957E+03  0.00000000000E+00 0.  1.
         23    2    1    2    0    0 -0.26780086024E+03  0.36190737556E+03  0.12955384227E+03  0.47719787818E+03  0.90770962662E+02 0.  0.
         11    1    3    3    0    0 -0.12926584602E+03  0.10334767007E+03  0.36732474302E+02  0.16952779868E+03  0.00000000000E+00 0. -1.
        -11    1    3    3    0    0 -0.13853501422E+03  0.25855970549E+03  0.92821367969E+02  0.30767007950E+03  0.00000000000E+00 0.  1.
         22    1    1    2    0    0  0.26780086024E+03 -0.36190737556E+03  0.55611670635E+03  0.71551382957E+03  0.00000000000E+00 0. -1.
<mgrwt>
<rscale>  0 0.97591860E+03</rscale>
<asrwt>0</asrwt>
<pdfrwt beam="1">  1        2 0.14449094E+00 0.97591860E+03</pdfrwt>
<pdfrwt beam="2">  1       -2 0.39003167E-01 0.97591860E+03</pdfrwt>
<totfact> 0.17126448E+02</totfact>
</mgrwt>
</event>
<event>
 6    1  0.2047711E-005  0.1256075E+04  0.7818608E-02  0.9065142E-01
          2   -1    0    0  501    0  0.00000000000E+00  0.00000000000E+00  0.10457862585E+04  0.10457862585E+04  0.00000000000E+00 0. -1.
         -2   -1    0    0    0  501 -0.00000000000E+00 -0.00000000000E+00 -0.37716230921E+03  0.37716230921E+03  0.00000000000E+00 0.  1.
         23    2    1    2    0    0 -0.66675198747E+02 -0.46791202021E+03 -0.12687696964E+03  0.49763297139E+03  0.90297109608E+02 0.  0.
         13    1    3    3    0    0 -0.62984435725E+02 -0.43311892475E+03 -0.90063448219E+02  0.44684501433E+03  0.00000000000E+00 0. -1.
        -13    1    3    3    0    0 -0.36907630222E+01 -0.34793095455E+02 -0.36813521421E+02  0.50787957061E+02  0.00000000000E+00 0.  1.
         22    1    1    2    0    0  0.66675198747E+02  0.46791202021E+03  0.79550091893E+03  0.92531559632E+03  0.00000000000E+00 0. -1.
<mgrwt>
<rscale>  0 0.12560751E+04</rscale>
<asrwt>0</asrwt>
<pdfrwt beam="1">  1        2 0.16089019E+00 0.12560751E+04</pdfrwt>
<pdfrwt beam="2">  1       -2 0.58024971E-01 0.12560751E+04</pdfrwt>
<totfact> 0.64358475E+01</totfact>
</mgrwt>
</event>
<event>
 6    1  0.2047711E-005  0.6895789E+03  0.7818608E-02  0.9735221E-01
          2   -1    0    0  501    0  0.00000000000E+00  0.00000000000E+00  0.34614946205E+03  0.34614946205E+03  0.00000000000E+00 0. -1.
         -2   -1    0    0    0  501 -0.00000000000E+00 -0.00000000000E+00 -0.34343479390E+03  0.34343479390E+03  0.00000000000E+00 0.  1.
         23    2    1    2    0    0 -0.21046560824E+03  0.20332607074E+03  0.17151787994E+03  0.35175029141E+03  0.93126908438E+02 0.  0.
         11    1    3    3    0    0 -0.64095580372E+02  0.10586564548E+02  0.32365133078E+02  0.72579753453E+02  0.00000000000E+00 0. -1.
        -11    1    3    3    0    0 -0.14637002787E+03  0.19273950619E+03  0.13915274686E+03  0.27917053796E+03  0.00000000000E+00 0.  1.
         22    1    1    2    0    0  0.21046560824E+03 -0.20332607074E+03 -0.16880321179E+03  0.33783396455E+03  0.00000000000E+00 0.  1.
<mgrwt>
<rscale>  0 0.68957891E+03</rscale>
<asrwt>0</asrwt>
<pdfrwt beam="1">  1        2 0.53253764E-01 0.68957891E+03</pdfrwt>
<pdfrwt beam="2">  1       -2 0.52836122E-01 0.68957891E+03</pdfrwt>
<totfact> 0.31912714E+02</totfact>
</mgrwt>
</event>
<event>
 6    1  0.2047711E-005  0.2473575E+04  0.7818608E-02  0.8412460E-01
         -2   -1    0    0    0  501 -0.00000000000E+00  0.00000000000E+00  0.82227117433E+03  0.82227117433E+03  0.00000000000E+00 0.  1.
          2   -1    0    0  501    0  0.00000000000E+00 -0.00000000000E+00 -0.18602664214E+04  0.18602664214E+04  0.00000000000E+00 0. -1.
         23    2    1    2    0    0  0.38280956402E+03 -0.10299040440E+03 -0.17881674696E+04  0.18340633480E+04  0.95369173898E+02 0.  0.
         11    1    3    3    0    0  0.11652902763E+03 -0.64006019341E+02 -0.74319542570E+03  0.75499352684E+03  0.00000000000E+00 0. -1.
        -11    1    3    3    0    0  0.26628053638E+03 -0.38984385058E+02 -0.10449720439E+04  0.10790698211E+04  0.00000000000E+00 0.  1.
         22    1    1    2    0    0 -0.38280956402E+03  0.10299040440E+03  0.75017222251E+03  0.84847424777E+03  0.00000000000E+00 0.  1.
<mgrwt>
<rscale>  0 0.24735751E+04</rscale>
<asrwt>0</asrwt>
<pdfrwt beam="1">  1        2 0.28619483E+00 0.24735751E+04</pdfrwt>
<pdfrwt beam="2">  1       -2 0.12650326E+00 0.24735751E+04</pdfrwt>
<totfact> 0.33226969E+00</totfact>
</mgrwt>
</event>
<event>
 6    1  0.2047711E-005  0.1676842E+04  0.7818608E-02  0.8774684E-01
         -2   -1    0    0    0  501 -0.00000000000E+00  0.00000000000E+00  0.88176835710E+03  0.88176835710E+03  0.00000000000E+00 0.  1.
          2   -1    0    0  501    0  0.00000000000E+00 -0.00000000000E+00 -0.79720420087E+03  0.79720420087E+03  0.00000000000E+00 0. -1.
         23    2    1    2    0    0  0.28967476203E+03 -0.76956382793E+03 -0.10443949015E+03  0.83525321401E+03  0.10295810503E+03 0.  0.
         11    1    3    3    0    0  0.18674906158E+03 -0.35495201196E+03 -0.63870474497E+02  0.40613492870E+03  0.00000000000E+00 0. -1.
        -11    1    3    3    0    0  0.10292570044E+03 -0.41461181597E+03 -0.40569015655E+02  0.42911828531E+03  0.00000000000E+00 0.  1.
         22    1    1    2    0    0 -0.28967476203E+03  0.76956382793E+03  0.18900364638E+03  0.84371934396E+03  0.00000000000E+00 0.  1.
<mgrwt>
<rscale>  0 0.16768416E+04</rscale>
<asrwt>0</asrwt>
<pdfrwt beam="1">  1        2 0.12264680E+00 0.16768416E+04</pdfrwt>
<pdfrwt beam="2">  1       -2 0.13565667E+00 0.16768416E+04</pdfrwt>
<totfact> 0.12851023E+01</totfact>
</mgrwt>
</event>
<event>
 6    1  0.2047711E-005  0.2739267E+04  0.7818608E-02  0.8322376E-01
          2   -1    0    0  501    0  0.00000000000E+00  0.00000000000E+00  0.22110261082E+04  0.22110261082E+04  0.00000000000E+00 0.  1.
         -2   -1    0    0    0  501 -0.00000000000E+00 -0.00000000000E+00 -0.84842778162E+03  0.84842778162E+03  0.00000000000E+00 0. -1.
         23    2    1    2    0    0  0.97123827383E+03  0.28385028315E+02  0.17576450319E+04  0.20105633360E+04  0.94548272141E+02 0.  0.
         13    1    3    3    0    0  0.57163063755E+03 -0.27749809287E+02  0.10592878516E+04  0.12040026537E+04  0.00000000000E+00 0. -1.
        -13    1    3    3    0    0  0.39960763628E+03  0.56134837603E+02  0.69835718031E+03  0.80656068231E+03  0.00000000000E+00 0.  1.
         22    1    1    2    0    0 -0.97123827383E+03 -0.28385028315E+02 -0.39504670532E+03  0.10488905538E+04  0.00000000000E+00 0. -1.
<mgrwt>
<rscale>  0 0.27392670E+04</rscale>
<asrwt>0</asrwt>
<pdfrwt beam="1">  1        2 0.34015786E+00 0.27392670E+04</pdfrwt>
<pdfrwt beam="2">  1       -2 0.13052735E+00 0.27392670E+04</pdfrwt>
<totfact> 0.19134459E+00</totfact>
</mgrwt>
</event>
<event>
 6    1  0.2047711E-005  0.2755184E+04  0.7818608E-02  0.8317319E-01
          2   -1    0    0  501    0  0.00000000000E+00  0.00000000000E+00  0.13119873719E+04  0.13119873719E+04  0.00000000000E+00 0. -1.
         -2   -1    0    0    0  501 -0.00000000000E+00 -0.00000000000E+00 -0.14464772583E+04  0.14464772583E+04  0.00000000000E+00 0.  1.
         23    2    1    2    0    0 -0.39087561064E+03 -0.12082436936E+04  0.46375098419E+03  0.13547094146E+04  0.86810462756E+02 0.  0.
         13    1    3    3    0    0 -0.13573655624E+03 -0.54475949847E+03  0.22522968816E+03  0.60490969268E+03  0.00000000000E+00 0. -1.
        -13    1    3    3    0    0 -0.25513905440E+03 -0.66348419516E+03  0.23852129603E+03  0.74979972190E+03  0.00000000000E+00 0.  1.
         22    1    1    2    0    0  0.39087561064E+03  0.12082436936E+04 -0.59824087054E+03  0.14037552156E+04  0.00000000000E+00 0.  1.
<mgrwt>
<rscale>  0 0.27551841E+04</rscale>
<asrwt>0</asrwt>
<pdfrwt beam="1">  1        2 0.20184421E+00 0.27551841E+04</pdfrwt>
<pdfrwt beam="2">  1       -2 0.22253496E+00 0.27551841E+04</pdfrwt>
<totfact> 0.13532914E+00</totfact>
</mgrwt>
</event>
<event>
 6    1  0.2047711E-005  0.1547243E+04  0.7818608E-02  0.8853630E-01
          2   -1    0    0  501    0  0.00000000000E+00  0.00000000000E+00  0.99331279687E+03  0.99331279687E+03  0.00000000000E+00 0. -1.
         -2   -1    0    0    0  501 -0.00000000000E+00 -0.00000000000E+00 -0.60251975378E+03  0.60251975378E+03  0.00000000000E+00 0.  1.
         23    2    1    2    0    0  0.26628326174E+03  0.72300480356E+03  0.18618426516E+03  0.79864532455E+03  0.97606620573E+02 0.  0.
         13    1    3    3    0    0  0.12721859259E+02  0.76094418115E+02  0.45979243341E+02  0.89812565878E+02  0.00000000000E+00 0. -1.
        -13    1    3    3    0    0  0.25356140248E+03  0.64691038544E+03  0.14020502182E+03  0.70883275867E+03  0.00000000000E+00 0.  1.
         22    1    1    2    0    0 -0.26628326174E+03 -0.72300480356E+03  0.20460877793E+03  0.79718722610E+03  0.00000000000E+00 0.  1.
<mgrwt>
<rscale>  0 0.15472435E+04</rscale>
<asrwt>0</asrwt>
<pdfrwt beam="1">  1        2 0.15281735E+00 0.15472435E+04</pdfrwt>
<pdfrwt beam="2">  1       -2 0.92695346E-01 0.15472435E+04</pdfrwt>
<totfact> 0.24178647E+01</totfact>
</mgrwt>
</event>
<event>
 6    1  0.2047711E-005  0.1191789E+04  0.7818608E-02  0.9120074E-01
          2   -1    0    0  501    0  0.00000000000E+00  0.00000000000E+00  0.34242581255E+03  0.34242581255E+03  0.00000000000E+00 0. -1.
         -2   -1    0    0    0  501 -0.00000000000E+00 -0.00000000000E+00 -0.10369842506E+04  0.10369842506E+04  0.00000000000E+00 0.  1.
         23    2    1    2    0    0 -0.62968775952E+02 -0.34301613319E+03 -0.90350952970E+03  0.97285663119E+03  0.92170603861E+02 0.  0.
         11    1    3    3    0    0 -0.23307665255E+02 -0.19689438409E+03 -0.62707786788E+03  0.65767567854E+03  0.00000000000E+00 0.  1.
        -11    1    3    3    0    0 -0.39661110697E+02 -0.14612174910E+03 -0.27643166182E+03  0.31518095266E+03  0.00000000000E+00 0. -1.
         22    1    1    2    0    0  0.62968775952E+02  0.34301613319E+03  0.20895109162E+03  0.40655343199E+03  0.00000000000E+00 0. -1.
<mgrwt>
<rscale>  0 0.11917889E+04</rscale>
<asrwt>0</asrwt>
<pdfrwt beam="1">  1        2 0.52680894E-01 0.11917889E+04</pdfrwt>
<pdfrwt beam="2">  1       -2 0.15953604E+00 0.11917889E+04</pdfrwt>
<totfact> 0.23710212E+01</totfact>
</mgrwt>
</event>
<event>
 6    1  0.2047711E-005  0.2989255E+04  0.7818608E-02  0.8246806E-01
          2   -1    0    0  501    0  0.00000000000E+00  0.00000000000E+00  0.31368192330E+04  0.31368192330E+04  0.00000000000E+00 0.  1.
         -2   -1    0    0    0  501 -0.00000000000E+00 -0.00000000000E+00 -0.71215813540E+03  0.71215813540E+03  0.00000000000E+00 0. -1.
         23    2    1    2    0    0 -0.75226284118E+03 -0.43137264374E+03 -0.35175770648E+03  0.94028640584E+03  0.91778543037E+02 0.  0.
         13    1    3    3    0    0 -0.52321847396E+03 -0.31600153567E+03 -0.20442592348E+03  0.64451881294E+03  0.00000000000E+00 0.  1.
        -13    1    3    3    0    0 -0.22904436721E+03 -0.11537110807E+03 -0.14733178300E+03  0.29576759291E+03  0.00000000000E+00 0. -1.
         22    1    1    2    0    0  0.75226284118E+03  0.43137264374E+03  0.27764188041E+04  0.29086909625E+04  0.00000000000E+00 0.  1.
<mgrwt>
<rscale>  0 0.29892550E+04</rscale>
<asrwt>0</asrwt>
<pdfrwt beam="1">  1        2 0.48258757E+00 0.29892550E+04</pdfrwt>
<pdfrwt beam="2">  1       -2 0.10956279E+00 0.29892550E+04</pdfrwt>
<totfact> 0.80945199E-01</totfact>
</mgrwt>
</event>
<event>
 6    1  0.2047711E-005  0.2641299E+04  0.7818608E-02  0.8354307E-01
         -1   -1    0    0    0  501 -0.00000000000E+00  0.00000000000E+00  0.16720994168E+04  0.16720994168E+04  0.00000000000E+00 0.  1.
          1   -1    0    0  501    0  0.00000000000E+00 -0.00000000000E+00 -0.10430692807E+04  0.10430692807E+04  0.00000000000E+00 0. -1.
         23    2    1    2    0    0  0.68500290332E+03  0.42203579140E+02 -0.84329448045E+03  0.10907457550E+04  0.87009204566E+02 0.  0.
         11    1    3    3    0    0  0.23215264749E+03  0.82762179722E+01 -0.35177383018E+03  0.42155447468E+03  0.00000000000E+00 0. -1.
        -11    1    3    3    0    0  0.45285025583E+03  0.33927361168E+02 -0.49152065027E+03  0.66919128034E+03  0.00000000000E+00 0.  1.
         22    1    1    2    0    0 -0.68500290332E+03 -0.42203579140E+02  0.14723246165E+04  0.16244229425E+04  0.00000000000E+00 0.  1.
<mgrwt>
<rscale>  0 0.26412993E+04</rscale>
<asrwt>0</asrwt>
<pdfrwt beam="1">  1        1 0.16047220E+00 0.26412993E+04</pdfrwt>
<pdfrwt beam="2">  1       -1 0.25724606E+00 0.26412993E+04</pdfrwt>
<totfact> 0.76875891E-01</totfact>
</mgrwt>
</event>
<event>
 6    1  0.2047711E-005  0.4943506E+04  0.7818608E-02  0.7837281E-01
         -2   -1    0    0    0  501 -0.00000000000E+00  0.00000000000E+00  0.23027059786E+04  0.23027059786E+04  0.00000000000E+00 0.  1.
          2   -1    0    0  501    0  0.00000000000E+00 -0.00000000000E+00 -0.26532103152E+04  0.26532103152E+04  0.00000000000E+00 0. -1.
         23    2    1    2    0    0 -0.13679803050E+04  0.13664473241E+04 -0.17174585490E+04  0.25879821259E+04  0.97155607786E+02 0.  0.
         11    1    3    3    0    0 -0.82786016343E+03  0.87207140203E+03 -0.11134805174E+04  0.16388104964E+04  0.00000000000E+00 0. -1.
        -11    1    3    3    0    0 -0.54012014156E+03  0.49437592210E+03 -0.60397803159E+03  0.94917162954E+03  0.00000000000E+00 0.  1.
         22    1    1    2    0    0  0.13679803050E+04 -0.13664473241E+04  0.13669542124E+04  0.23679341679E+04  0.00000000000E+00 0.  1.
<mgrwt>
<rscale>  0 0.49435061E+04</rscale>
<asrwt>0</asrwt>
<pdfrwt beam="1">  1        2 0.40818620E+00 0.49435061E+04</pdfrwt>
<pdfrwt beam="2">  1       -2 0.35426246E+00 0.49435061E+04</pdfrwt>
<totfact> 0.30275327E-02</totfact>
</mgrwt>
</event>
<event>
 6    1  0.2047711E-005  0.2782003E+04  0.7818608E-02  0.8308878E-01
          2   -1    0    0  501    0  0.00000000000E+00  0.00000000000E+00  0.95757889230E+03  0.95757889230E+03  0.00000000000E+00 0. -1.
         -2   -1    0    0    0  501 -0.00000000000E+00 -0.00000000000E+00 -0.20206010838E+04  0.20206010838E+04  0.00000000000E+00 0.  1.
         23    2    1    2    0    0 -0.13365342833E+04 -0.12287348876E+03 -0.91734634053E+03  0.16281269259E+04  0.88606962915E+02 0.  0.
         11    1    3    3    0    0 -0.70370981117E+03 -0.10663954996E+03 -0.46790558167E+03  0.85177175658E+03  0.00000000000E+00 0. -1.
        -11    1    3    3    0    0 -0.63282447210E+03 -0.16233938799E+02 -0.44944075886E+03  0.77635516935E+03  0.00000000000E+00 0.  1.
         22    1    1    2    0    0  0.13365342833E+04  0.12287348876E+03 -0.14567585092E+03  0.13500530501E+04  0.00000000000E+00 0.  1.
<mgrwt>
<rscale>  0 0.27820028E+04</rscale>
<asrwt>0</asrwt>
<pdfrwt beam="1">  1        2 0.14731983E+00 0.27820028E+04</pdfrwt>
<pdfrwt beam="2">  1       -2 0.31086171E+00 0.27820028E+04</pdfrwt>
<totfact> 0.63760545E-01</totfact>
</mgrwt>
</event>
<event>
 6    1  0.2047711E-005  0.3758200E+04  0.7818608E-02  0.8055185E-01
         -2   -1    0    0    0  501 -0.00000000000E+00  0.00000000000E+00  0.10517334585E+04  0.10517334585E+04  0.00000000000E+00 0.  1.
          2   -1    0    0  501    0  0.00000000000E+00 -0.00000000000E+00 -0.33573297841E+04  0.33573297841E+04  0.00000000000E+00 0. -1.
         23    2    1    2    0    0  0.16566189647E+04  0.85454382978E+03 -0.14223599031E+04  0.23463615848E+04  0.87598183980E+02 0.  0.
         11    1    3    3    0    0  0.90216780294E+03  0.41750720721E+03 -0.74513217977E+03  0.12423530006E+04  0.00000000000E+00 0.  1.
        -11    1    3    3    0    0  0.75445116172E+03  0.43703662258E+03 -0.67722772332E+03  0.11040085843E+04  0.00000000000E+00 0. -1.
         22    1    1    2    0    0 -0.16566189647E+04 -0.85454382978E+03 -0.88323642249E+03  0.20627016578E+04  0.00000000000E+00 0.  1.
<mgrwt>
<rscale>  0 0.37581996E+04</rscale>
<asrwt>0</asrwt>
<pdfrwt beam="1">  1        2 0.51651227E+00 0.37581996E+04</pdfrwt>
<pdfrwt beam="2">  1       -2 0.16180515E+00 0.37581996E+04</pdfrwt>
<totfact> 0.20005600E-01</totfact>
</mgrwt>
</event>
<event>
 6    1  0.2047711E-005  0.9183290E+03  0.7818608E-02  0.9402955E-01
          2   -1    0    0  501    0  0.00000000000E+00  0.00000000000E+00  0.12853545473E+04  0.12853545473E+04  0.00000000000E+00 0. -1.
         -2   -1    0    0    0  501 -0.00000000000E+00 -0.00000000000E+00 -0.16402638313E+03  0.16402638313E+03  0.00000000000E+00 0.  1.
         23    2    1    2    0    0 -0.16819784094E+03 -0.93205756864E+02  0.12159673447E+04  0.12350578069E+04  0.99062486147E+02 0.  0.
         11    1    3    3    0    0 -0.10906324848E+03 -0.10428430021E+03  0.97959275150E+03  0.99114679348E+03  0.00000000000E+00 0.  1.
        -11    1    3    3    0    0 -0.59134592463E+02  0.11078543349E+02  0.23637459319E+03  0.24391101339E+03  0.00000000000E+00 0. -1.
         22    1    1    2    0    0  0.16819784094E+03  0.93205756864E+02 -0.94639180507E+02  0.21432312357E+03  0.00000000000E+00 0.  1.
<mgrwt>
<rscale>  0 0.91832904E+03</rscale>
<asrwt>0</asrwt>
<pdfrwt beam="1">  1        2 0.19774685E+00 0.91832904E+03</pdfrwt>
<pdfrwt beam="2">  1       -2 0.25234829E-01 0.91832904E+03</pdfrwt>
<totfact> 0.23794537E+02</totfact>
</mgrwt>
</event>
<event>
 6    1  0.2047711E-005  0.2029504E+04  0.7818608E-02  0.8592950E-01
         -1   -1    0    0    0  501 -0.00000000000E+00  0.00000000000E+00  0.18056351225E+04  0.18056351225E+04  0.00000000000E+00 0.  1.
          1   -1    0    0  501    0  0.00000000000E+00 -0.00000000000E+00 -0.57028196797E+03  0.57028196797E+03  0.00000000000E+00 0. -1.
         23    2    1    2    0    0 -0.53499568238E+03  0.74486101692E+03  0.11212666621E+04  0.14517666468E+04  0.96691026270E+02 0.  0.
         13    1    3    3    0    0 -0.16351161180E+03  0.29609537216E+03  0.37447033849E+03  0.50461525048E+03  0.00000000000E+00 0. -1.
        -13    1    3    3    0    0 -0.37148407058E+03  0.44876564475E+03  0.74679632366E+03  0.94715139636E+03  0.00000000000E+00 0.  1.
         22    1    1    2    0    0  0.53499568238E+03 -0.74486101692E+03  0.11408649238E+03  0.92415044361E+03  0.00000000000E+00 0. -1.
<mgrwt>
<rscale>  0 0.20295035E+04</rscale>
<asrwt>0</asrwt>
<pdfrwt beam="1">  1        1 0.87735688E-01 0.20295035E+04</pdfrwt>
<pdfrwt beam="2">  1       -1 0.27779002E+00 0.20295035E+04</pdfrwt>
<totfact> 0.15686115E+00</totfact>
</mgrwt>
</event>
<event>
 6    1  0.2047711E-005  0.4042039E+04  0.7818608E-02  0.7996119E-01
          1   -1    0    0  501    0  0.00000000000E+00  0.00000000000E+00  0.13909735047E+04  0.13909735047E+04  0.00000000000E+00 0. -1.
         -1   -1    0    0    0  501 -0.00000000000E+00 -0.00000000000E+00 -0.29364468448E+04  0.29364468448E+04  0.00000000000E+00 0.  1.
         23    2    1    2    0    0  0.19416301367E+04 -0.38629595004E+03 -0.12027178171E+04  0.23182828486E+04  0.93557840984E+02 0.  0.
         11    1    3    3    0    0  0.98816916085E+03 -0.24206035571E+03 -0.63395448884E+03  0.11987367518E+04  0.00000000000E+00 0. -1.
        -11    1    3    3    0    0  0.95346097587E+03 -0.14423559433E+03 -0.56876332827E+03  0.11195460968E+04  0.00000000000E+00 0.  1.
         22    1    1    2    0    0 -0.19416301367E+04  0.38629595004E+03 -0.34275552300E+03  0.20091375009E+04  0.00000000000E+00 0. -1.
<mgrwt>
<rscale>  0 0.40420390E+04</rscale>
<asrwt>0</asrwt>
<pdfrwt beam="1">  1        1 0.21399593E+00 0.40420390E+04</pdfrwt>
<pdfrwt beam="2">  1       -1 0.45176105E+00 0.40420390E+04</pdfrwt>
<totfact> 0.19133761E-02</totfact>
</mgrwt>
</event>
<event>
 6    1  0.2047711E-005  0.1724970E+04  0.7818608E-02  0.8747250E-01
         -2   -1    0    0    0  501 -0.00000000000E+00  0.00000000000E+00  0.29796537390E+03  0.29796537390E+03  0.00000000000E+00 0.  1.
          2   -1    0    0  501    0  0.00000000000E+00 -0.00000000000E+00 -0.24965330891E+04  0.24965330891E+04  0.00000000000E+00 0. -1.
         23    2    1    2    0    0  0.86018122466E+02 -0.74623940550E+03 -0.42423147501E+03  0.86770281712E+03  0.93077745694E+02 0.  0.
         13    1    3    3    0    0  0.49156429954E+02 -0.13226652052E+03 -0.64456567471E+02  0.15513038434E+03  0.00000000000E+00 0. -1.
        -13    1    3    3    0    0  0.36861692511E+02 -0.61397288498E+03 -0.35977490754E+03  0.71257243278E+03  0.00000000000E+00 0.  1.
         22    1    1    2    0    0 -0.86018122466E+02  0.74623940550E+03 -0.17743362402E+04  0.19267956458E+04  0.00000000000E+00 0. -1.
<mgrwt>
<rscale>  0 0.17249700E+04</rscale>
<asrwt>0</asrwt>
<pdfrwt beam="1">  1        2 0.38408202E+00 0.17249700E+04</pdfrwt>
<pdfrwt beam="2">  1       -2 0.45840826E-01 0.17249700E+04</pdfrwt>
<totfact> 0.15009731E+01</totfact>
</mgrwt>
</event>
<event>
 6    1  0.2047711E-005  0.3306650E+04  0.7818608E-02  0.8161205E-01
         -2   -1    0    0    0  501 -0.00000000000E+00  0.00000000000E+00  0.73866248132E+03  0.73866248132E+03  0.00000000000E+00 0.  1.
          2   -1    0    0  501    0  0.00000000000E+00 -0.00000000000E+00 -0.37005864368E+04  0.37005864368E+04  0.00000000000E+00 0. -1.
         23    2    1    2    0    0 -0.35759647087E+02 -0.85626702362E+03  0.41420481220E+03  0.95604386760E+03  0.89343618918E+02 0.  0.
         13    1    3    3    0    0 -0.27264586027E+02 -0.45483070343E+03  0.17143254884E+03  0.48682999624E+03  0.00000000000E+00 0. -1.
        -13    1    3    3    0    0 -0.84950610600E+01 -0.40143632019E+03  0.24277226336E+03  0.46921387137E+03  0.00000000000E+00 0.  1.
         22    1    1    2    0    0  0.35759647087E+02  0.85626702362E+03 -0.33761287677E+04  0.34832050505E+04  0.00000000000E+00 0. -1.
<mgrwt>
<rscale>  0 0.33066505E+04</rscale>
<asrwt>0</asrwt>
<pdfrwt beam="1">  1        2 0.56932099E+00 0.33066505E+04</pdfrwt>
<pdfrwt beam="2">  1       -2 0.11364038E+00 0.33066505E+04</pdfrwt>
<totfact> 0.29496955E-01</totfact>
</mgrwt>
</event>
<event>
 6    1  0.2047711E-005  0.2835165E+04  0.7818608E-02  0.8292433E-01
          2   -1    0    0  501    0  0.00000000000E+00  0.00000000000E+00  0.19850897409E+04  0.19850897409E+04  0.00000000000E+00 0. -1.
         -2   -1    0    0    0  501 -0.00000000000E+00 -0.00000000000E+00 -0.10123171495E+04  0.10123171495E+04  0.00000000000E+00 0.  1.
         23    2    1    2    0    0  0.69366527719E+02 -0.13993739407E+04  0.26861188930E+03  0.14293184250E+04  0.87975405274E+02 0.  0.
         13    1    3    3    0    0  0.73105392030E+02 -0.85678376093E+03  0.19517091982E+03  0.88176782617E+03  0.00000000000E+00 0. -1.
        -13    1    3    3    0    0 -0.37388643108E+01 -0.54259017975E+03  0.73440969481E+02  0.54755059881E+03  0.00000000000E+00 0.  1.
         22    1    1    2    0    0 -0.69366527719E+02  0.13993739407E+04  0.70416070203E+03  0.15680884654E+04  0.00000000000E+00 0. -1.
<mgrwt>
<rscale>  0 0.28351652E+04</rscale>
<asrwt>0</asrwt>
<pdfrwt beam="1">  1        2 0.30539842E+00 0.28351652E+04</pdfrwt>
<pdfrwt beam="2">  1       -2 0.15574110E+00 0.28351652E+04</pdfrwt>
<totfact> 0.16015271E+00</totfact>
</mgrwt>
</event>
<event>
 6    1  0.2047711E-005  0.3097240E+04  0.7818608E-02  0.8216496E-01
         -1   -1    0    0    0  501 -0.00000000000E+00  0.00000000000E+00  0.11899578146E+04  0.11899578146E+04  0.00000000000E+00 0.  1.
          1   -1    0    0  501    0  0.00000000000E+00 -0.00000000000E+00 -0.20153857268E+04  0.20153857268E+04  0.00000000000E+00 0. -1.
         23    2    1    2    0    0  0.46197319371E+03  0.13533756529E+04  0.19893756960E+03  0.14462615281E+04  0.83972385244E+02 0.  0.
         13    1    3    3    0    0  0.18172260339E+03  0.45187996679E+03  0.37359953119E+02  0.48848170392E+03  0.00000000000E+00 0. -1.
        -13    1    3    3    0    0  0.28025059033E+03  0.90149568609E+03  0.16157761648E+03  0.95777982415E+03  0.00000000000E+00 0.  1.
         22    1    1    2    0    0 -0.46197319371E+03 -0.13533756529E+04 -0.10243654817E+04  0.17590820133E+04  0.00000000000E+00 0. -1.
<mgrwt>
<rscale>  0 0.30972401E+04</rscale>
<asrwt>0</asrwt>
<pdfrwt beam="1">  1        1 0.31005934E+00 0.30972401E+04</pdfrwt>
<pdfrwt beam="2">  1       -1 0.18307043E+00 0.30972401E+04</pdfrwt>
<totfact> 0.48576183E-01</totfact>
</mgrwt>
</event>
<event>
 6    1  0.2047711E-005  0.1905686E+04  0.7818608E-02  0.8652031E-01
         -2   -1    0    0    0  501 -0.00000000000E+00  0.00000000000E+00  0.57929912828E+03  0.57929912828E+03  0.00000000000E+00 0.  1.
          2   -1    0    0  501    0  0.00000000000E+00 -0.00000000000E+00 -0.15672561279E+04  0.15672561279E+04  0.00000000000E+00 0. -1.
         23    2    1    2    0    0 -0.48084124692E+03  0.76067877493E+03 -0.84010387431E+03  0.12345788036E+04  0.92573210360E+02 0.  0.
         11    1    3    3    0    0 -0.12614475778E+03  0.25232593266E+03 -0.30785620258E+03  0.41755995698E+03  0.00000000000E+00 0. -1.
        -11    1    3    3    0    0 -0.35469648914E+03  0.50835284227E+03 -0.53224767174E+03  0.81701884661E+03  0.00000000000E+00 0.  1.
         22    1    1    2    0    0  0.48084124692E+03 -0.76067877493E+03 -0.14785312527E+03  0.91197645256E+03  0.00000000000E+00 0. -1.
<mgrwt>
<rscale>  0 0.19056863E+04</rscale>
<asrwt>0</asrwt>
<pdfrwt beam="1">  1        2 0.24111632E+00 0.19056863E+04</pdfrwt>
<pdfrwt beam="2">  1       -2 0.89122944E-01 0.19056863E+04</pdfrwt>
<totfact> 0.11772473E+01</totfact>
</mgrwt>
</event>
<event>
 6    1  0.2047711E-005  0.6321529E+03  0.7818608E-02  0.9840856E-01
          2   -1    0    0  501    0  0.00000000000E+00  0.00000000000E+00  0.94816342125E+03  0.94816342125E+03  0.00000000000E+00 0.  1.
         -2   -1    0    0    0  501 -0.00000000000E+00 -0.00000000000E+00 -0.10536615804E+03  0.10536615804E+03  0.00000000000E+00 0. -1.
         23    2    1    2    0    0  0.29511024570E+03  0.10256166183E+02  0.28208188157E+03  0.41981277719E+03  0.97351599489E+02 0.  0.
         11    1    3    3    0    0  0.22244544361E+03  0.42316008186E+02  0.23989022470E+03  0.32987867442E+03  0.00000000000E+00 0.  1.
        -11    1    3    3    0    0  0.72664802086E+02 -0.32059842004E+02  0.42191656871E+02  0.89934102770E+02  0.00000000000E+00 0. -1.
         22    1    1    2    0    0 -0.29511024570E+03 -0.10256166183E+02  0.56071538164E+03  0.63371680211E+03  0.00000000000E+00 0.  1.
<mgrwt>
<rscale>  0 0.63215295E+03</rscale>
<asrwt>0</asrwt>
<pdfrwt beam="1">  1        2 0.14587129E+00 0.63215295E+03</pdfrwt>
<pdfrwt beam="2">  1       -2 0.16210179E-01 0.63215295E+03</pdfrwt>
<totfact> 0.84192414E+02</totfact>
</mgrwt>
</event>
<event>
 6    1  0.2047711E-005  0.1285839E+04  0.7818608E-02  0.9040871E-01
          4   -1    0    0  501    0  0.00000000000E+00  0.00000000000E+00  0.57810148829E+03  0.57810148829E+03  0.00000000000E+00 0.  1.
         -4   -1    0    0    0  501 -0.00000000000E+00 -0.00000000000E+00 -0.71500483474E+03  0.71500483474E+03  0.00000000000E+00 0. -1.
         23    2    1    2    0    0 -0.33009375224E+03  0.54438946994E+03 -0.13202694187E+03  0.65643878061E+03  0.90327067134E+02 0.  0.
         13    1    3    3    0    0 -0.16829602373E+03  0.34105948743E+03 -0.10866436349E+03  0.39554148893E+03  0.00000000000E+00 0. -1.
        -13    1    3    3    0    0 -0.16179772850E+03  0.20332998251E+03 -0.23362578377E+02  0.26089729168E+03  0.00000000000E+00 0.  1.
         22    1    1    2    0    0  0.33009375224E+03 -0.54438946994E+03 -0.48764045693E+01  0.63666754242E+03  0.00000000000E+00 0. -1.
<mgrwt>
<rscale>  0 0.12858388E+04</rscale>
<asrwt>0</asrwt>
<pdfrwt beam="1">  1        4 0.88938690E-01 0.12858388E+04</pdfrwt>
<pdfrwt beam="2">  1       -4 0.11000074E+00 0.12858388E+04</pdfrwt>
<totfact> 0.13973050E+00</totfact>
</mgrwt>
</event>
<event>
 6    1  0.2047711E-005  0.3528366E+04  0.7818608E-02  0.8107100E-01
          1   -1    0    0  501    0  0.00000000000E+00  0.00000000000E+00  0.32066524304E+04  0.32066524304E+04  0.00000000000E+00 0. -1.
         -1   -1    0    0    0  501 -0.00000000000E+00 -0.00000000000E+00 -0.97058915515E+03  0.97058915515E+03  0.00000000000E+00 0.  1.
         23    2    1    2    0    0  0.33717700082E+03  0.43434170407E+03 -0.86426667639E+03  0.10285296497E+04  0.92602951681E+02 0.  0.
         13    1    3    3    0    0  0.17264325405E+03  0.14958630486E+03 -0.33793355847E+03  0.40789808251E+03  0.00000000000E+00 0.  1.
        -13    1    3    3    0    0  0.16453374676E+03  0.28475539921E+03 -0.52633311792E+03  0.62063156721E+03  0.00000000000E+00 0. -1.
         22    1    1    2    0    0 -0.33717700082E+03 -0.43434170407E+03  0.31003299517E+04  0.31487119358E+04  0.00000000000E+00 0. -1.
<mgrwt>
<rscale>  0 0.35283662E+04</rscale>
<asrwt>0</asrwt>
<pdfrwt beam="1">  1        1 0.49333114E+00 0.35283662E+04</pdfrwt>
<pdfrwt beam="2">  1       -1 0.14932141E+00 0.35283662E+04</pdfrwt>
<totfact> 0.12067014E-01</totfact>
</mgrwt>
</event>
<event>
 6    1  0.2047711E-005  0.4454734E+04  0.7818608E-02  0.7918610E-01
          2   -1    0    0  501    0  0.00000000000E+00  0.00000000000E+00  0.29641259646E+04  0.29641259646E+04  0.00000000000E+00 0. -1.
         -2   -1    0    0    0  501 -0.00000000000E+00 -0.00000000000E+00 -0.16737359355E+04  0.16737359355E+04  0.00000000000E+00 0.  1.
         23    2    1    2    0    0 -0.70839040981E+02 -0.14967193050E+04  0.23599163882E+04  0.27969182614E+04  0.91430595572E+02 0.  0.
         11    1    3    3    0    0 -0.55343894282E+02 -0.42886134186E+03  0.72185796455E+03  0.84146533984E+03  0.00000000000E+00 0. -1.
        -11    1    3    3    0    0 -0.15495146700E+02 -0.10678579632E+04  0.16380584237E+04  0.19554529216E+04  0.00000000000E+00 0.  1.
         22    1    1    2    0    0  0.70839040981E+02  0.14967193050E+04 -0.10695263591E+04  0.18409436386E+04  0.00000000000E+00 0.  1.
<mgrwt>
<rscale>  0 0.44547342E+04</rscale>
<asrwt>0</asrwt>
<pdfrwt beam="1">  1        2 0.45601938E+00 0.44547342E+04</pdfrwt>
<pdfrwt beam="2">  1       -2 0.25749784E+00 0.44547342E+04</pdfrwt>
<totfact> 0.80547508E-02</totfact>
</mgrwt>
</event>
<event>
 6    1  0.2047711E-005  0.6157140E+04  0.7818608E-02  0.7671218E-01
         -2   -1    0    0    0  501 -0.00000000000E+00  0.00000000000E+00  0.35735167544E+04  0.35735167544E+04  0.00000000000E+00 0.  1.
          2   -1    0    0  501    0  0.00000000000E+00 -0.00000000000E+00 -0.26521757530E+04  0.26521757530E+04  0.00000000000E+00 0. -1.
         23    2    1    2    0    0  0.19485346163E+04 -0.15400061353E+04  0.22989818517E+04  0.33855692072E+04  0.91407082966E+02 0.  0.
         13    1    3    3    0    0  0.10196352203E+04 -0.75531623508E+03  0.12049031057E+04  0.17498428762E+04  0.00000000000E+00 0. -1.
        -13    1    3    3    0    0  0.92889939602E+03 -0.78468990027E+03  0.10940787460E+04  0.16357263310E+04  0.00000000000E+00 0.  1.
         22    1    1    2    0    0 -0.19485346163E+04  0.15400061353E+04 -0.13776408503E+04  0.28401233002E+04  0.00000000000E+00 0. -1.
<mgrwt>
<rscale>  0 0.61571404E+04</rscale>
<asrwt>0</asrwt>
<pdfrwt beam="1">  1        2 0.40802703E+00 0.61571404E+04</pdfrwt>
<pdfrwt beam="2">  1       -2 0.54977181E+00 0.61571404E+04</pdfrwt>
<totfact> 0.16450767E-03</totfact>
</mgrwt>
</event>
<event>
 6    1  0.2047711E-005  0.2150425E+04  0.7818608E-02  0.8539350E-01
         -2   -1    0    0    0  501 -0.00000000000E+00  0.00000000000E+00  0.39015676858E+03  0.39015676858E+03  0.00000000000E+00 0.  1.
          2   -1    0    0  501    0  0.00000000000E+00 -0.00000000000E+00 -0.29631214107E+04  0.29631214107E+04  0.00000000000E+00 0. -1.
         23    2    1    2    0    0 -0.36870533639E+03  0.97952217709E+03 -0.16598179020E+04  0.19643057931E+04  0.89969220299E+02 0.  0.
         11    1    3    3    0    0 -0.36056287415E+03  0.92296099547E+03 -0.15352119401E+04  0.18272214662E+04  0.00000000000E+00 0. -1.
        -11    1    3    3    0    0 -0.81424622349E+01  0.56561181616E+02 -0.12460596188E+03  0.13708432694E+03  0.00000000000E+00 0.  1.
         22    1    1    2    0    0  0.36870533639E+03 -0.97952217709E+03 -0.91314674008E+03  0.13889723861E+04  0.00000000000E+00 0. -1.
<mgrwt>
<rscale>  0 0.21504250E+04</rscale>
<asrwt>0</asrwt>
<pdfrwt beam="1">  1        2 0.45586483E+00 0.21504250E+04</pdfrwt>
<pdfrwt beam="2">  1       -2 0.60024118E-01 0.21504250E+04</pdfrwt>
<totfact> 0.43665265E+00</totfact>
</mgrwt>
</event>
<event>
 6    1  0.2047711E-005  0.3046657E+04  0.7818608E-02  0.8230532E-01
         -2   -1    0    0    0  501 -0.00000000000E+00  0.00000000000E+00  0.15853142263E+04  0.15853142263E+04  0.00000000000E+00 0. -1.
          2   -1    0    0  501    0  0.00000000000E+00 -0.00000000000E+00 -0.14637662035E+04  0.14637662035E+04  0.00000000000E+00 0.  1.
         23    2    1    2    0    0 -0.48039451622E+03  0.12352153715E+04  0.80850551507E+03  0.15562822179E+04  0.10861523165E+03 0.  0.
         13    1    3    3    0    0 -0.14501006971E+03  0.51999180351E+03  0.32841009924E+03  0.63188020172E+03  0.00000000000E+00 0. -1.
        -13    1    3    3    0    0 -0.33538444650E+03  0.71522356801E+03  0.48009541584E+03  0.92440201617E+03  0.00000000000E+00 0.  1.
         22    1    1    2    0    0  0.48039451622E+03 -0.12352153715E+04 -0.68695749225E+03  0.14927982119E+04  0.00000000000E+00 0.  1.
<mgrwt>
<rscale>  0 0.30466568E+04</rscale>
<asrwt>0</asrwt>
<pdfrwt beam="1">  1        2 0.22519480E+00 0.30466568E+04</pdfrwt>
<pdfrwt beam="2">  1       -2 0.24389450E+00 0.30466568E+04</pdfrwt>
<totfact> 0.79531690E-01</totfact>
</mgrwt>
</event>
<event>
 6    1  0.2047711E-005  0.1997635E+04  0.7818608E-02  0.8607727E-01
         -2   -1    0    0    0  501 -0.00000000000E+00  0.00000000000E+00  0.11746977915E+04  0.11746977915E+04  0.00000000000E+00 0.  1.
          2   -1    0    0  501    0  0.00000000000E+00 -0.00000000000E+00 -0.84927079713E+03  0.84927079713E+03  0.00000000000E+00 0. -1.
         23    2    1    2    0    0 -0.15707898667E+03  0.35333537951E+03 -0.76782072753E+03  0.86435215208E+03  0.89645271484E+02 0.  0.
         11    1    3    3    0    0 -0.88388057549E+02  0.14614831684E+03 -0.25394065728E+03  0.30603535196E+03  0.00000000000E+00 0. -1.
        -11    1    3    3    0    0 -0.68690929123E+02  0.20718706267E+03 -0.51388007026E+03  0.55831680011E+03  0.00000000000E+00 0.  1.
         22    1    1    2    0    0  0.15707898667E+03 -0.35333537951E+03  0.10932477219E+04  0.11596164365E+04  0.00000000000E+00 0.  1.
<mgrwt>
<rscale>  0 0.19976351E+04</rscale>
<asrwt>0</asrwt>
<pdfrwt beam="1">  1        2 0.13065705E+00 0.19976351E+04</pdfrwt>
<pdfrwt beam="2">  1       -2 0.18072274E+00 0.19976351E+04</pdfrwt>
<totfact> 0.52906441E+00</totfact>
</mgrwt>
</event>
<event>
 6    1  0.2047711E-005  0.1547351E+04  0.7818608E-02  0.8853561E-01
          2   -1    0    0  501    0  0.00000000000E+00  0.00000000000E+00  0.90668275431E+03  0.90668275431E+03  0.00000000000E+00 0. -1.
         -2   -1    0    0    0  501 -0.00000000000E+00 -0.00000000000E+00 -0.66018021313E+03  0.66018021313E+03  0.00000000000E+00 0.  1.
         23    2    1    2    0    0  0.69875249693E+03  0.22618693453E+02 -0.20225613334E+03  0.73610969166E+03  0.11037788466E+03 0.  0.
         13    1    3    3    0    0  0.40874950788E+03 -0.16462021990E+02 -0.16507990818E+03  0.44113323888E+03  0.00000000000E+00 0.  1.
        -13    1    3    3    0    0  0.29000298905E+03  0.39080715443E+02 -0.37176225166E+02  0.29497645279E+03  0.00000000000E+00 0. -1.
         22    1    1    2    0    0 -0.69875249693E+03 -0.22618693453E+02  0.44875867452E+03  0.83075327578E+03  0.00000000000E+00 0. -1.
<mgrwt>
<rscale>  0 0.15473513E+04</rscale>
<asrwt>0</asrwt>
<pdfrwt beam="1">  1        2 0.13948965E+00 0.15473513E+04</pdfrwt>
<pdfrwt beam="2">  1       -2 0.10156619E+00 0.15473513E+04</pdfrwt>
<totfact> 0.22242573E+01</totfact>
</mgrwt>
</event>
<event>
 6    1  0.2047711E-005  0.4868362E+04  0.7818608E-02  0.7849141E-01
         -2   -1    0    0    0  501 -0.00000000000E+00  0.00000000000E+00  0.29353858170E+04  0.29353858170E+04  0.00000000000E+00 0.  1.
          2   -1    0    0  501    0  0.00000000000E+00 -0.00000000000E+00 -0.20185546331E+04  0.20185546331E+04  0.00000000000E+00 0. -1.
         23    2    1    2    0    0 -0.12999581824E+04  0.21874224904E+03 -0.16224891424E+04  0.20928415061E+04  0.98869130614E+02 0.  0.
         11    1    3    3    0    0 -0.12258475068E+04  0.20877090614E+03 -0.14901185004E+04  0.19408092504E+04  0.00000000000E+00 0.  1.
        -11    1    3    3    0    0 -0.74110675634E+02  0.99713428972E+01 -0.13237064198E+03  0.15203225572E+03  0.00000000000E+00 0. -1.
         22    1    1    2    0    0  0.12999581824E+04 -0.21874224904E+03  0.25393203263E+04  0.28610989440E+04  0.00000000000E+00 0.  1.
<mgrwt>
<rscale>  0 0.48683618E+04</rscale>
<asrwt>0</asrwt>
<pdfrwt beam="1">  1        2 0.31054687E+00 0.48683618E+04</pdfrwt>
<pdfrwt beam="2">  1       -2 0.45159782E+00 0.48683618E+04</pdfrwt>
<totfact> 0.16298707E-02</totfact>
</mgrwt>
</event>
<event>
 6    1  0.2047711E-005  0.9553165E+03  0.7818608E-02  0.9358958E-01
          2   -1    0    0  501    0  0.00000000000E+00  0.00000000000E+00  0.16886931234E+04  0.16886931234E+04  0.00000000000E+00 0. -1.
         -2   -1    0    0    0  501 -0.00000000000E+00 -0.00000000000E+00 -0.13510886108E+03  0.13510886108E+03  0.00000000000E+00 0.  1.
         23    2    1    2    0    0 -0.47263898160E+03 -0.61862830366E+01  0.74409070068E+03  0.88640894880E+03  0.92865368342E+02 0.  0.
         11    1    3    3    0    0 -0.20298643152E+03  0.39076861970E+02  0.35617762054E+03  0.41181669454E+03  0.00000000000E+00 0.  1.
        -11    1    3    3    0    0 -0.26965255008E+03 -0.45263145006E+02  0.38791308014E+03  0.47459225426E+03  0.00000000000E+00 0. -1.
         22    1    1    2    0    0  0.47263898160E+03  0.61862830366E+01  0.80949356169E+03  0.93739303573E+03  0.00000000000E+00 0. -1.
<mgrwt>
<rscale>  0 0.95531650E+03</rscale>
<asrwt>0</asrwt>
<pdfrwt beam="1">  1        2 0.25979893E+00 0.95531650E+03</pdfrwt>
<pdfrwt beam="2">  1       -2 0.20785980E-01 0.95531650E+03</pdfrwt>
<totfact> 0.19897601E+02</totfact>
</mgrwt>
</event>
<event>
 6    1  0.2047711E-005  0.2349104E+04  0.7818608E-02  0.8458808E-01
          2   -1    0    0  501    0  0.00000000000E+00  0.00000000000E+00  0.16133737059E+04  0.16133737059E+04  0.00000000000E+00 0. -1.
         -2   -1    0    0    0  501 -0.00000000000E+00 -0.00000000000E+00 -0.85508514415E+03  0.85508514415E+03  0.00000000000E+00 0.  1.
         23    2    1    2    0    0 -0.42297609570E+02 -0.32413953672E+03  0.15630132991E+04  0.15998752732E+04  0.98665037425E+02 0.  0.
         11    1    3    3    0    0 -0.40499900108E+02 -0.39508891716E+02  0.28211693330E+03  0.28773452780E+03  0.00000000000E+00 0. -1.
        -11    1    3    3    0    0 -0.17977094617E+01 -0.28463064500E+03  0.12808963658E+04  0.13121407454E+04  0.00000000000E+00 0.  1.
         22    1    1    2    0    0  0.42297609570E+02  0.32413953672E+03 -0.80472473736E+03  0.86858357684E+03  0.00000000000E+00 0.  1.
<mgrwt>
<rscale>  0 0.23491036E+04</rscale>
<asrwt>0</asrwt>
<pdfrwt beam="1">  1        2 0.24821134E+00 0.23491036E+04</pdfrwt>
<pdfrwt beam="2">  1       -2 0.13155156E+00 0.23491036E+04</pdfrwt>
<totfact> 0.41718331E+00</totfact>
</mgrwt>
</event>
<event>
 6    1  0.2047711E-005  0.2785975E+04  0.7818608E-02  0.8307636E-01
          2   -1    0    0  501    0  0.00000000000E+00  0.00000000000E+00  0.16629003586E+04  0.16629003586E+04  0.00000000000E+00 0. -1.
         -2   -1    0    0    0  501 -0.00000000000E+00 -0.00000000000E+00 -0.11668854878E+04  0.11668854878E+04  0.00000000000E+00 0.  1.
         23    2    1    2    0    0  0.13776519067E+04  0.49520853104E+02  0.44092890275E+03  0.14501440252E+04  0.90123836280E+02 0.  0.
         13    1    3    3    0    0  0.12135020256E+04  0.25990876124E+02  0.41209084334E+03  0.12818274279E+04  0.00000000000E+00 0. -1.
        -13    1    3    3    0    0  0.16414988105E+03  0.23529976980E+02  0.28838059403E+02  0.16831659733E+03  0.00000000000E+00 0.  1.
         22    1    1    2    0    0 -0.13776519067E+04 -0.49520853104E+02  0.55085967965E+02  0.13796418212E+04  0.00000000000E+00 0. -1.
<mgrwt>
<rscale>  0 0.27859751E+04</rscale>
<asrwt>0</asrwt>
<pdfrwt beam="1">  1        2 0.25583082E+00 0.27859751E+04</pdfrwt>
<pdfrwt beam="2">  1       -2 0.17952084E+00 0.27859751E+04</pdfrwt>
<totfact> 0.16373619E+00</totfact>
</mgrwt>
</event>
<event>
 6    1  0.2047711E-005  0.8198288E+03  0.7818608E-02  0.9531751E-01
          2   -1    0    0  501    0  0.00000000000E+00  0.00000000000E+00  0.10512336621E+04  0.10512336621E+04  0.00000000000E+00 0. -1.
         -2   -1    0    0    0  501 -0.00000000000E+00 -0.00000000000E+00 -0.15984059590E+03  0.15984059590E+03  0.00000000000E+00 0.  1.
         23    2    1    2    0    0  0.11806562839E+03 -0.17984763006E+03  0.95789577640E+03  0.98589150308E+03  0.90183561448E+02 0.  0.
         13    1    3    3    0    0  0.11148435317E+03 -0.11408387497E+03  0.77933349777E+03  0.79549015850E+03  0.00000000000E+00 0.  1.
        -13    1    3    3    0    0  0.65812752191E+01 -0.65763755088E+02  0.17856227863E+03  0.19040134457E+03  0.00000000000E+00 0. -1.
         22    1    1    2    0    0 -0.11806562839E+03  0.17984763006E+03 -0.66502710201E+02  0.22518275491E+03  0.00000000000E+00 0.  1.
<mgrwt>
<rscale>  0 0.81982880E+03</rscale>
<asrwt>0</asrwt>
<pdfrwt beam="1">  1        2 0.16172825E+00 0.81982880E+03</pdfrwt>
<pdfrwt beam="2">  1       -2 0.24590862E-01 0.81982880E+03</pdfrwt>
<totfact> 0.34656192E+02</totfact>
</mgrwt>
</event>
<event>
 6    1  0.2488270E-005  0.2659560E+04  0.7818608E-02  0.8348247E-01
          2   -1    0    0  501    0  0.00000000000E+00  0.00000000000E+00  0.13604577397E+04  0.13604577397E+04  0.00000000000E+00 0.  1.
         -2   -1    0    0    0  501 -0.00000000000E+00 -0.00000000000E+00 -0.12997936365E+04  0.12997936365E+04  0.00000000000E+00 0. -1.
         23    2    1    2    0    0 -0.91399185458E+03 -0.29016290081E+03 -0.88853737567E+03  0.13109704318E+04  0.97822215422E+02 0.  0.
         11    1    3    3    0    0 -0.36046363028E+03 -0.85323414416E+02 -0.39594436252E+03  0.54220480634E+03  0.00000000000E+00 0. -1.
        -11    1    3    3    0    0 -0.55352822430E+03 -0.20483948639E+03 -0.49259301316E+03  0.76876562546E+03  0.00000000000E+00 0.  1.
         22    1    1    2    0    0  0.91399185458E+03  0.29016290081E+03  0.94920147893E+03  0.13492809444E+04  0.00000000000E+00 0.  1.
<mgrwt>
<rscale>  0 0.26595596E+04</rscale>
<asrwt>0</asrwt>
<pdfrwt beam="1">  1        2 0.20930119E+00 0.26595596E+04</pdfrwt>
<pdfrwt beam="2">  1       -2 0.19996825E+00 0.26595596E+04</pdfrwt>
<totfact> 0.17860961E+00</totfact>
</mgrwt>
</event>
<event>
 6    1  0.2047711E-005  0.1987037E+04  0.7818608E-02  0.8612706E-01
         -2   -1    0    0    0  501 -0.00000000000E+00  0.00000000000E+00  0.27662002148E+03  0.27662002148E+03  0.00000000000E+00 0. -1.
          2   -1    0    0  501    0  0.00000000000E+00 -0.00000000000E+00 -0.35683557333E+04  0.35683557333E+04  0.00000000000E+00 0.  1.
         23    2    1    2    0    0 -0.17870852443E+03  0.86003123298E+03 -0.76055585299E+03  0.11657105689E+04  0.94050340713E+02 0.  0.
         13    1    3    3    0    0 -0.53249452549E+02  0.20787221331E+03 -0.13599936544E+03  0.25405154726E+03  0.00000000000E+00 0.  1.
        -13    1    3    3    0    0 -0.12545907188E+03  0.65215901967E+03 -0.62455648755E+03  0.91165902167E+03  0.00000000000E+00 0. -1.
         22    1    1    2    0    0  0.17870852443E+03 -0.86003123298E+03 -0.25311798589E+04  0.26792651859E+04  0.00000000000E+00 0.  1.
<mgrwt>
<rscale>  0 0.19870366E+04</rscale>
<asrwt>0</asrwt>
<pdfrwt beam="1">  1        2 0.54897774E+00 0.19870366E+04</pdfrwt>
<pdfrwt beam="2">  1       -2 0.42556931E-01 0.19870366E+04</pdfrwt>
<totfact> 0.35634835E+00</totfact>
</mgrwt>
</event>
<event>
 6    1  0.2047711E-005  0.1044134E+04  0.7818608E-02  0.9261421E-01
         -2   -1    0    0    0  501 -0.00000000000E+00  0.00000000000E+00  0.25485602298E+03  0.25485602298E+03  0.00000000000E+00 0.  1.
          2   -1    0    0  501    0  0.00000000000E+00 -0.00000000000E+00 -0.10694438477E+04  0.10694438477E+04  0.00000000000E+00 0. -1.
         23    2    1    2    0    0  0.28911253557E+03 -0.22274691913E+03  0.57276890725E+02  0.37912775395E+03  0.85176072951E+02 0.  0.
         13    1    3    3    0    0  0.14994696439E+03 -0.62275129852E+02  0.25243689291E+02  0.16431533032E+03  0.00000000000E+00 0. -1.
        -13    1    3    3    0    0  0.13916557118E+03 -0.16047178927E+03  0.32033201434E+02  0.21481242363E+03  0.00000000000E+00 0.  1.
         22    1    1    2    0    0 -0.28911253557E+03  0.22274691913E+03 -0.87186471543E+03  0.94517211672E+03  0.00000000000E+00 0. -1.
<mgrwt>
<rscale>  0 0.10441345E+04</rscale>
<asrwt>0</asrwt>
<pdfrwt beam="1">  1        2 0.16452982E+00 0.10441345E+04</pdfrwt>
<pdfrwt beam="2">  1       -2 0.39208619E-01 0.10441345E+04</pdfrwt>
<totfact> 0.13929536E+02</totfact>
</mgrwt>
</event>
<event>
 6    1  0.2047711E-005  0.1373462E+04  0.7818608E-02  0.8973255E-01
         -2   -1    0    0    0  501 -0.00000000000E+00  0.00000000000E+00  0.20312455222E+03  0.20312455222E+03  0.00000000000E+00 0.  1.
          2   -1    0    0  501    0  0.00000000000E+00 -0.00000000000E+00 -0.23217267660E+04  0.23217267660E+04  0.00000000000E+00 0. -1.
         23    2    1    2    0    0  0.61094754150E+03 -0.12231802262E+03 -0.54686998994E+03  0.83412343337E+03  0.92068013331E+02 0.  0.
         13    1    3    3    0    0  0.27147708597E+03 -0.84762140666E+02 -0.29489554546E+03  0.40969233752E+03  0.00000000000E+00 0.  1.
        -13    1    3    3    0    0  0.33947045554E+03 -0.37555881952E+02 -0.25197444448E+03  0.42443109585E+03  0.00000000000E+00 0. -1.
         22    1    1    2    0    0 -0.61094754150E+03  0.12231802262E+03 -0.15717322239E+04  0.16907278849E+04  0.00000000000E+00 0. -1.
<mgrwt>
<rscale>  0 0.13734624E+04</rscale>
<asrwt>0</asrwt>
<pdfrwt beam="1">  1        2 0.35718874E+00 0.13734624E+04</pdfrwt>
<pdfrwt beam="2">  1       -2 0.31249931E-01 0.13734624E+04</pdfrwt>
<totfact> 0.40920136E+01</totfact>
</mgrwt>
</event>
<event>
 6    1  0.2047711E-005  0.2431631E+04  0.7818608E-02  0.8427756E-01
          2   -1    0    0  501    0  0.00000000000E+00  0.00000000000E+00  0.18269269277E+04  0.18269269277E+04  0.00000000000E+00 0. -1.
         -2   -1    0    0    0  501 -0.00000000000E+00 -0.00000000000E+00 -0.80912207842E+03  0.80912207842E+03  0.00000000000E+00 0.  1.
         23    2    1    2    0    0  0.11282183615E+04 -0.30307325523E+03  0.86820680469E+03  0.14582928157E+04  0.90026725690E+02 0.  0.
         11    1    3    3    0    0  0.76757612632E+03 -0.24811375277E+03  0.58550529002E+03  0.99676977715E+03  0.00000000000E+00 0. -1.
        -11    1    3    3    0    0  0.36064223517E+03 -0.54959502459E+02  0.28270151467E+03  0.46152303853E+03  0.00000000000E+00 0.  1.
         22    1    1    2    0    0 -0.11282183615E+04  0.30307325523E+03  0.14959804463E+03  0.11777561905E+04  0.00000000000E+00 0.  1.
<mgrwt>
<rscale>  0 0.24316307E+04</rscale>
<asrwt>0</asrwt>
<pdfrwt beam="1">  1        2 0.28106568E+00 0.24316307E+04</pdfrwt>
<pdfrwt beam="2">  1       -2 0.12448032E+00 0.24316307E+04</pdfrwt>
<totfact> 0.36232425E+00</totfact>
</mgrwt>
</event>
<event>
 6    1  0.2047711E-005  0.6259851E+03  0.7818608E-02  0.9852915E-01
          1   -1    0    0  501    0  0.00000000000E+00  0.00000000000E+00  0.35198039535E+03  0.35198039535E+03  0.00000000000E+00 0. -1.
         -1   -1    0    0    0  501 -0.00000000000E+00 -0.00000000000E+00 -0.27832323234E+03  0.27832323234E+03  0.00000000000E+00 0.  1.
         23    2    1    2    0    0 -0.12421681682E+03  0.12076682888E+03  0.29204701928E+03  0.35154105154E+03  0.90968153280E+02 0.  0.
         13    1    3    3    0    0 -0.43794727786E+02  0.10414648839E+03  0.18229075609E+03  0.21446302474E+03  0.00000000000E+00 0.  1.
        -13    1    3    3    0    0 -0.80422089035E+02  0.16620340494E+02  0.10975626319E+03  0.13707802681E+03  0.00000000000E+00 0. -1.
         22    1    1    2    0    0  0.12421681682E+03 -0.12076682888E+03 -0.21838985627E+03  0.27876257615E+03  0.00000000000E+00 0.  1.
<mgrwt>
<rscale>  0 0.62598505E+03</rscale>
<asrwt>0</asrwt>
<pdfrwt beam="1">  1        1 0.54150830E-01 0.62598505E+03</pdfrwt>
<pdfrwt beam="2">  1       -1 0.42818959E-01 0.62598505E+03</pdfrwt>
<totfact> 0.38677852E+02</totfact>
</mgrwt>
</event>
<event>
 6    1  0.2047711E-005  0.1051399E+04  0.7818608E-02  0.9253901E-01
          2   -1    0    0  501    0  0.00000000000E+00  0.00000000000E+00  0.92328197481E+03  0.92328197481E+03  0.00000000000E+00 0. -1.
         -2   -1    0    0    0  501 -0.00000000000E+00 -0.00000000000E+00 -0.29932321371E+03  0.29932321371E+03  0.00000000000E+00 0.  1.
         23    2    1    2    0    0 -0.20885743631E+03 -0.37881270283E+03  0.65509303944E+03  0.78891193769E+03  0.78196308063E+02 0.  0.
         13    1    3    3    0    0 -0.40232198975E+02 -0.14171026613E+03  0.19192305506E+03  0.24193984464E+03  0.00000000000E+00 0.  1.
        -13    1    3    3    0    0 -0.16862523733E+03 -0.23710243670E+03  0.46316998437E+03  0.54697209305E+03  0.00000000000E+00 0. -1.
         22    1    1    2    0    0  0.20885743631E+03  0.37881270283E+03 -0.31134278343E+02  0.43369325083E+03  0.00000000000E+00 0.  1.
<mgrwt>
<rscale>  0 0.10513986E+04</rscale>
<asrwt>0</asrwt>
<pdfrwt beam="1">  1        2 0.14204338E+00 0.10513986E+04</pdfrwt>
<pdfrwt beam="2">  1       -2 0.46049726E-01 0.10513986E+04</pdfrwt>
<totfact> 0.12586177E+02</totfact>
</mgrwt>
</event>
<event>
 6    1  0.2047711E-005  0.1134487E+04  0.7818608E-02  0.9172216E-01
          2   -1    0    0  501    0  0.00000000000E+00  0.00000000000E+00  0.46319259962E+03  0.46319259962E+03  0.00000000000E+00 0. -1.
         -2   -1    0    0    0  501 -0.00000000000E+00 -0.00000000000E+00 -0.69466764820E+03  0.69466764820E+03  0.00000000000E+00 0.  1.
         23    2    1    2    0    0 -0.33183770918E+03  0.81782213278E+02 -0.57385664343E+03  0.67409403141E+03  0.91031425005E+02 0.  0.
         11    1    3    3    0    0 -0.17856602132E+03  0.26005886393E+02 -0.38058039768E+03  0.42119303080E+03  0.00000000000E+00 0. -1.
        -11    1    3    3    0    0 -0.15327168786E+03  0.55776326885E+02 -0.19327624575E+03  0.25290100061E+03  0.00000000000E+00 0.  1.
         22    1    1    2    0    0  0.33183770918E+03 -0.81782213278E+02  0.34238159485E+03  0.48376621640E+03  0.00000000000E+00 0. -1.
<mgrwt>
<rscale>  0 0.11344865E+04</rscale>
<asrwt>0</asrwt>
<pdfrwt beam="1">  1        2 0.71260400E-01 0.11344865E+04</pdfrwt>
<pdfrwt beam="2">  1       -2 0.10687195E+00 0.11344865E+04</pdfrwt>
<totfact> 0.46963421E+01</totfact>
</mgrwt>
</event>
<event>
 6    1  0.2047711E-005  0.5069503E+03  0.7818608E-02  0.1011981E+00
         -2   -1    0    0    0  501 -0.00000000000E+00  0.00000000000E+00  0.45433124687E+02  0.45433124687E+02  0.00000000000E+00 0.  1.
          2   -1    0    0  501    0  0.00000000000E+00 -0.00000000000E+00 -0.14141587505E+04  0.14141587505E+04  0.00000000000E+00 0. -1.
         23    2    1    2    0    0 -0.15179300197E+03 -0.19023204975E+03 -0.79810086645E+03  0.83923555484E+03  0.90122002178E+02 0.  0.
         13    1    3    3    0    0 -0.82728713645E+02 -0.52241132881E+02 -0.21778194074E+03  0.23875122982E+03  0.00000000000E+00 0.  1.
        -13    1    3    3    0    0 -0.69064288326E+02 -0.13799091687E+03 -0.58031892571E+03  0.60048432502E+03  0.00000000000E+00 0. -1.
         22    1    1    2    0    0  0.15179300197E+03  0.19023204975E+03 -0.57062475935E+03  0.62035632034E+03  0.00000000000E+00 0. -1.
<mgrwt>
<rscale>  0 0.50695030E+03</rscale>
<asrwt>0</asrwt>
<pdfrwt beam="1">  1        2 0.21756286E+00 0.50695030E+03</pdfrwt>
<pdfrwt beam="2">  1       -2 0.69897122E-02 0.50695030E+03</pdfrwt>
<totfact> 0.17623196E+03</totfact>
</mgrwt>
</event>
<event>
 6    1  0.2047711E-005  0.2824063E+04  0.7818608E-02  0.8295837E-01
          2   -1    0    0  501    0  0.00000000000E+00  0.00000000000E+00  0.15558728359E+04  0.15558728359E+04  0.00000000000E+00 0. -1.
         -2   -1    0    0    0  501 -0.00000000000E+00 -0.00000000000E+00 -0.12814881406E+04  0.12814881406E+04  0.00000000000E+00 0.  1.
         23    2    1    2    0    0 -0.10360884597E+04 -0.42502975430E+03  0.99901338635E+03  0.15034882959E+04  0.91212506676E+02 0.  0.
         11    1    3    3    0    0 -0.31758159141E+03 -0.86459103763E+02  0.28096875267E+03  0.43275476174E+03  0.00000000000E+00 0. -1.
        -11    1    3    3    0    0 -0.71850686826E+03 -0.33857065054E+03  0.71804463368E+03  0.10707335341E+04  0.00000000000E+00 0.  1.
         22    1    1    2    0    0  0.10360884597E+04  0.42502975430E+03 -0.72462869101E+03  0.13338726806E+04  0.00000000000E+00 0.  1.
<mgrwt>
<rscale>  0 0.28240627E+04</rscale>
<asrwt>0</asrwt>
<pdfrwt beam="1">  1        2 0.23936505E+00 0.28240627E+04</pdfrwt>
<pdfrwt beam="2">  1       -2 0.19715202E+00 0.28240627E+04</pdfrwt>
<totfact> 0.14240599E+00</totfact>
</mgrwt>
</event>
<event>
 6    1  0.2047711E-005  0.1448571E+04  0.7818608E-02  0.8919391E-01
          2   -1    0    0  501    0  0.00000000000E+00  0.00000000000E+00  0.12405716608E+04  0.12405716608E+04  0.00000000000E+00 0. -1.
         -2   -1    0    0    0  501 -0.00000000000E+00 -0.00000000000E+00 -0.42286137159E+03  0.42286137159E+03  0.00000000000E+00 0.  1.
         23    2    1    2    0    0 -0.95920806236E+02 -0.24993641718E+03  0.11796696717E+04  0.12132290694E+04  0.92925921349E+02 0.  0.
         11    1    3    3    0    0 -0.57281110806E+02 -0.84554997818E+02  0.28909476117E+03  0.30660471987E+03  0.00000000000E+00 0. -1.
        -11    1    3    3    0    0 -0.38639695430E+02 -0.16538141937E+03  0.89057491049E+03  0.90662434951E+03  0.00000000000E+00 0.  1.
         22    1    1    2    0    0  0.95920806236E+02  0.24993641718E+03 -0.36195938249E+03  0.45020396297E+03  0.00000000000E+00 0.  1.
<mgrwt>
<rscale>  0 0.14485715E+04</rscale>
<asrwt>0</asrwt>
<pdfrwt beam="1">  1        2 0.19085718E+00 0.14485715E+04</pdfrwt>
<pdfrwt beam="2">  1       -2 0.65055596E-01 0.14485715E+04</pdfrwt>
<totfact> 0.37866824E+01</totfact>
</mgrwt>
</event>
<event>
 6    1  0.2047711E-005  0.4233316E+04  0.7818608E-02  0.7959065E-01
         -2   -1    0    0    0  501 -0.00000000000E+00  0.00000000000E+00  0.14079521838E+04  0.14079521838E+04  0.00000000000E+00 0.  1.
          2   -1    0    0  501    0  0.00000000000E+00 -0.00000000000E+00 -0.31820981099E+04  0.31820981099E+04  0.00000000000E+00 0. -1.
         23    2    1    2    0    0 -0.10486034694E+04  0.16456283082E+04 -0.17739199504E+04  0.26387272000E+04  0.91801312309E+02 0.  0.
         11    1    3    3    0    0 -0.50410873131E+03  0.78455169869E+03 -0.90960446993E+03  0.13026999933E+04  0.00000000000E+00 0. -1.
        -11    1    3    3    0    0 -0.54449473804E+03  0.86107660956E+03 -0.86431548045E+03  0.13360272067E+04  0.00000000000E+00 0.  1.
         22    1    1    2    0    0  0.10486034694E+04 -0.16456283082E+04 -0.22597579155E+00  0.19513230937E+04  0.00000000000E+00 0.  1.
<mgrwt>
<rscale>  0 0.42333164E+04</rscale>
<asrwt>0</asrwt>
<pdfrwt beam="1">  1        2 0.48955355E+00 0.42333164E+04</pdfrwt>
<pdfrwt beam="2">  1       -2 0.21660803E+00 0.42333164E+04</pdfrwt>
<totfact> 0.10701339E-01</totfact>
</mgrwt>
</event>
<event>
 6    1  0.2047711E-005  0.2510991E+04  0.7818608E-02  0.8399080E-01
         -2   -1    0    0    0  501 -0.00000000000E+00  0.00000000000E+00  0.25989783689E+04  0.25989783689E+04  0.00000000000E+00 0. -1.
          2   -1    0    0  501    0  0.00000000000E+00 -0.00000000000E+00 -0.60649554083E+03  0.60649554083E+03  0.00000000000E+00 0.  1.
         23    2    1    2    0    0 -0.11098010068E+03 -0.11546311506E+04  0.16053371347E+04  0.19826200899E+04  0.90473356373E+02 0.  0.
         11    1    3    3    0    0 -0.12338669169E+03 -0.88517370249E+03  0.12340009607E+04  0.15236519059E+04  0.00000000000E+00 0. -1.
        -11    1    3    3    0    0  0.12406591012E+02 -0.26945744810E+03  0.37133617405E+03  0.45896818408E+03  0.00000000000E+00 0.  1.
         22    1    1    2    0    0  0.11098010068E+03  0.11546311506E+04  0.38714569330E+03  0.12228538198E+04  0.00000000000E+00 0.  1.
<mgrwt>
<rscale>  0 0.25109909E+04</rscale>
<asrwt>0</asrwt>
<pdfrwt beam="1">  1        2 0.93307008E-01 0.25109909E+04</pdfrwt>
<pdfrwt beam="2">  1       -2 0.39984282E+00 0.25109909E+04</pdfrwt>
<totfact> 0.32462666E-01</totfact>
</mgrwt>
</event>
<event>
 6    1  0.2047711E-005  0.1211122E+04  0.7818608E-02  0.9103177E-01
         -2   -1    0    0    0  501 -0.00000000000E+00  0.00000000000E+00  0.38810518100E+03  0.38810518100E+03  0.00000000000E+00 0.  1.
          2   -1    0    0  501    0  0.00000000000E+00 -0.00000000000E+00 -0.94485783853E+03  0.94485783853E+03  0.00000000000E+00 0. -1.
         23    2    1    2    0    0  0.26348094845E+03 -0.21627830850E+03 -0.82620132207E+03  0.89845053439E+03  0.91685447226E+02 0.  0.
         11    1    3    3    0    0  0.87643786143E+02 -0.12903825178E+03 -0.33761418422E+03  0.37190810835E+03  0.00000000000E+00 0.  1.
        -11    1    3    3    0    0  0.17583716230E+03 -0.87240056713E+02 -0.48858713785E+03  0.52654242603E+03  0.00000000000E+00 0. -1.
         22    1    1    2    0    0 -0.26348094845E+03  0.21627830850E+03  0.26944866454E+03  0.43451248514E+03  0.00000000000E+00 0.  1.
<mgrwt>
<rscale>  0 0.12111222E+04</rscale>
<asrwt>0</asrwt>
<pdfrwt beam="1">  1        2 0.14536274E+00 0.12111222E+04</pdfrwt>
<pdfrwt beam="2">  1       -2 0.59708490E-01 0.12111222E+04</pdfrwt>
<totfact> 0.70614172E+01</totfact>
</mgrwt>
</event>
<event>
 6    1  0.2047711E-005  0.2189437E+04  0.7818608E-02  0.8522838E-01
         -2   -1    0    0    0  501 -0.00000000000E+00  0.00000000000E+00  0.36704848135E+03  0.36704848135E+03  0.00000000000E+00 0.  1.
          2   -1    0    0  501    0  0.00000000000E+00 -0.00000000000E+00 -0.32649865595E+04  0.32649865595E+04  0.00000000000E+00 0. -1.
         23    2    1    2    0    0  0.22102885423E+03  0.75022733930E+03 -0.18502149597E+03  0.80863085495E+03  0.89196920216E+02 0.  0.
         11    1    3    3    0    0  0.11946775196E+03  0.44883723844E+03 -0.15283630195E+03  0.48896456473E+03  0.00000000000E+00 0.  1.
        -11    1    3    3    0    0  0.10156110227E+03  0.30139010085E+03 -0.32185194020E+02  0.31966629022E+03  0.00000000000E+00 0. -1.
         22    1    1    2    0    0 -0.22102885423E+03 -0.75022733930E+03 -0.27129165822E+04  0.28234041859E+04  0.00000000000E+00 0. -1.
<mgrwt>
<rscale>  0 0.21894368E+04</rscale>
<asrwt>0</asrwt>
<pdfrwt beam="1">  1        2 0.50230562E+00 0.21894368E+04</pdfrwt>
<pdfrwt beam="2">  1       -2 0.56468998E-01 0.21894368E+04</pdfrwt>
<totfact> 0.31711105E+00</totfact>
</mgrwt>
</event>
<event>
 6    1  0.2047711E-005  0.4356515E+04  0.7818608E-02  0.7936250E-01
         -1   -1    0    0    0  501 -0.00000000000E+00  0.00000000000E+00  0.20089282790E+04  0.20089282790E+04  0.00000000000E+00 0.  1.
          1   -1    0    0  501    0  0.00000000000E+00 -0.00000000000E+00 -0.23618590035E+04  0.23618590035E+04  0.00000000000E+00 0. -1.
         23    2    1    2    0    0  0.79991376204E+03 -0.85691798802E+03 -0.20172624622E+04  0.23350636770E+04  0.94889774116E+02 0.  0.
         13    1    3    3    0    0  0.35286320975E+03 -0.36861415121E+03 -0.78635872852E+03  0.93741606941E+03  0.00000000000E+00 0.  1.
        -13    1    3    3    0    0  0.44705055229E+03 -0.48830383682E+03 -0.12309037337E+04  0.13976476076E+04  0.00000000000E+00 0. -1.
         22    1    1    2    0    0 -0.79991376204E+03  0.85691798802E+03  0.16643317377E+04  0.20357236055E+04  0.00000000000E+00 0.  1.
<mgrwt>
<rscale>  0 0.43565148E+04</rscale>
<asrwt>0</asrwt>
<pdfrwt beam="1">  1        1 0.36336292E+00 0.43565148E+04</pdfrwt>
<pdfrwt beam="2">  1       -1 0.30906589E+00 0.43565148E+04</pdfrwt>
<totfact> 0.37002499E-02</totfact>
</mgrwt>
</event>
<event>
 6    1  0.2047711E-005  0.2665412E+04  0.7818608E-02  0.8346316E-01
         -1   -1    0    0    0  501 -0.00000000000E+00  0.00000000000E+00  0.16829872741E+04  0.16829872741E+04  0.00000000000E+00 0.  1.
          1   -1    0    0  501    0  0.00000000000E+00 -0.00000000000E+00 -0.10553288678E+04  0.10553288678E+04  0.00000000000E+00 0. -1.
         23    2    1    2    0    0 -0.23777968703E+03 -0.95134926484E+03  0.12389702314E+04  0.15827614047E+04  0.92096832690E+02 0.  0.
         11    1    3    3    0    0 -0.12092009527E+03 -0.38448945580E+03  0.44763414658E+03  0.60235383310E+03  0.00000000000E+00 0. -1.
        -11    1    3    3    0    0 -0.11685959175E+03 -0.56685980905E+03  0.79133608483E+03  0.98040757160E+03  0.00000000000E+00 0.  1.
         22    1    1    2    0    0  0.23777968703E+03  0.95134926484E+03 -0.61131182505E+03  0.11555547372E+04  0.00000000000E+00 0. -1.
<mgrwt>
<rscale>  0 0.26654118E+04</rscale>
<asrwt>0</asrwt>
<pdfrwt beam="1">  1        1 0.16235829E+00 0.26654118E+04</pdfrwt>
<pdfrwt beam="2">  1       -1 0.25892112E+00 0.26654118E+04</pdfrwt>
<totfact> 0.73209331E-01</totfact>
</mgrwt>
</event>
<event>
 6    1  0.2047711E-005  0.2021328E+03  0.7818608E-02  0.1147952E+00
         -2   -1    0    0    0  501 -0.00000000000E+00  0.00000000000E+00  0.30404595437E+02  0.30404595437E+02  0.00000000000E+00 0.  1.
          2   -1    0    0  501    0  0.00000000000E+00 -0.00000000000E+00 -0.33594981944E+03  0.33594981944E+03  0.00000000000E+00 0. -1.
         23    2    1    2    0    0 -0.69757383251E+02  0.31820127000E+02 -0.13642760738E+03  0.18066817076E+03  0.90276701708E+02 0.  0.
         11    1    3    3    0    0 -0.19306050557E+02 -0.18690277901E+02 -0.20464566951E+00  0.26871768754E+02  0.00000000000E+00 0. -1.
        -11    1    3    3    0    0 -0.50451332694E+02  0.50510404902E+02 -0.13622296171E+03  0.15379640201E+03  0.00000000000E+00 0.  1.
         22    1    1    2    0    0  0.69757383251E+02 -0.31820127000E+02 -0.16911761662E+03  0.18568624411E+03  0.00000000000E+00 0. -1.
<mgrwt>
<rscale>  0 0.20213281E+03</rscale>
<asrwt>0</asrwt>
<pdfrwt beam="1">  1        2 0.51684588E-01 0.20213281E+03</pdfrwt>
<pdfrwt beam="2">  1       -2 0.46776301E-02 0.20213281E+03</pdfrwt>
<totfact> 0.20286766E+04</totfact>
</mgrwt>
</event>
<event>
 6    1  0.2047711E-005  0.2453933E+04  0.7818608E-02  0.8419583E-01
          1   -1    0    0  501    0  0.00000000000E+00  0.00000000000E+00  0.22921458061E+04  0.22921458061E+04  0.00000000000E+00 0. -1.
         -1   -1    0    0    0  501 -0.00000000000E+00 -0.00000000000E+00 -0.65678477529E+03  0.65678477529E+03  0.00000000000E+00 0.  1.
         23    2    1    2    0    0  0.11667041145E+04 -0.37257017097E+03  0.85868732582E+03  0.14986792007E+04  0.93211587583E+02 0.  0.
         11    1    3    3    0    0  0.78955257343E+03 -0.21942844083E+03  0.61102157629E+03  0.10221983533E+04  0.00000000000E+00 0.  1.
        -11    1    3    3    0    0  0.37715154107E+03 -0.15314173014E+03  0.24766574953E+03  0.47648084739E+03  0.00000000000E+00 0. -1.
         22    1    1    2    0    0 -0.11667041145E+04  0.37257017097E+03  0.77667370496E+03  0.14502513806E+04  0.00000000000E+00 0.  1.
<mgrwt>
<rscale>  0 0.24539327E+04</rscale>
<asrwt>0</asrwt>
<pdfrwt beam="1">  1        1 0.35263781E+00 0.24539327E+04</pdfrwt>
<pdfrwt beam="2">  1       -1 0.10104381E+00 0.24539327E+04</pdfrwt>
<totfact> 0.15637519E+00</totfact>
</mgrwt>
</event>
<event>
 6    1  0.2047711E-005  0.1598283E+04  0.7818608E-02  0.8821604E-01
          2   -1    0    0  501    0  0.00000000000E+00  0.00000000000E+00  0.19997165827E+04  0.19997165827E+04  0.00000000000E+00 0.  1.
         -2   -1    0    0    0  501 -0.00000000000E+00 -0.00000000000E+00 -0.31935866364E+03  0.31935866364E+03  0.00000000000E+00 0. -1.
         23    2    1    2    0    0  0.39259823028E+03  0.58847835040E+03  0.13740008575E+04  0.15481700715E+04  0.92260905974E+02 0.  0.
         11    1    3    3    0    0  0.38485230104E+03  0.53323430415E+03  0.12692335293E+04  0.14294767815E+04  0.00000000000E+00 0. -1.
        -11    1    3    3    0    0  0.77459292415E+01  0.55244046247E+02  0.10476732814E+03  0.11869329008E+03  0.00000000000E+00 0.  1.
         22    1    1    2    0    0 -0.39259823028E+03 -0.58847835040E+03  0.30635706156E+03  0.77090517476E+03  0.00000000000E+00 0. -1.
<mgrwt>
<rscale>  0 0.15982826E+04</rscale>
<asrwt>0</asrwt>
<pdfrwt beam="1">  1        2 0.30764870E+00 0.15982826E+04</pdfrwt>
<pdfrwt beam="2">  1       -2 0.49132103E-01 0.15982826E+04</pdfrwt>
<totfact> 0.25144828E+01</totfact>
</mgrwt>
</event>
<event>
 6    1  0.2047711E-005  0.3069705E+04  0.7818608E-02  0.8224102E-01
         -2   -1    0    0    0  501 -0.00000000000E+00  0.00000000000E+00  0.21875591680E+04  0.21875591680E+04  0.00000000000E+00 0.  1.
          2   -1    0    0  501    0  0.00000000000E+00 -0.00000000000E+00 -0.10768950941E+04  0.10768950941E+04  0.00000000000E+00 0. -1.
         23    2    1    2    0    0  0.49069429412E+03  0.96678116622E+03  0.17092421000E+04  0.20260107362E+04  0.88114885223E+02 0.  0.
         13    1    3    3    0    0  0.24837682205E+03  0.58526562705E+03  0.99706365689E+03  0.11825239261E+04  0.00000000000E+00 0.  1.
        -13    1    3    3    0    0  0.24231747207E+03  0.38151553916E+03  0.71217844310E+03  0.84348681004E+03  0.00000000000E+00 0. -1.
         22    1    1    2    0    0 -0.49069429412E+03 -0.96678116622E+03 -0.59857802612E+03  0.12384435260E+04  0.00000000000E+00 0. -1.
<mgrwt>
<rscale>  0 0.30697047E+04</rscale>
<asrwt>0</asrwt>
<pdfrwt beam="1">  1        2 0.16567617E+00 0.30697047E+04</pdfrwt>
<pdfrwt beam="2">  1       -2 0.33654756E+00 0.30697047E+04</pdfrwt>
<totfact> 0.36208803E-01</totfact>
</mgrwt>
</event>
<event>
 6    1  0.2047711E-005  0.1726597E+04  0.7818608E-02  0.8746339E-01
          2   -1    0    0  501    0  0.00000000000E+00  0.00000000000E+00  0.29231352579E+04  0.29231352579E+04  0.00000000000E+00 0. -1.
         -2   -1    0    0    0  501 -0.00000000000E+00 -0.00000000000E+00 -0.25496070568E+03  0.25496070568E+03  0.00000000000E+00 0.  1.
         23    2    1    2    0    0  0.41820332769E+03  0.47570756059E+03  0.26477873668E+03  0.69263762504E+03  0.91909704164E+02 0.  0.
         13    1    3    3    0    0  0.33868375325E+02  0.55464201684E+02  0.56954176479E+02  0.86412514915E+02  0.00000000000E+00 0. -1.
        -13    1    3    3    0    0  0.38433495237E+03  0.42024335891E+03  0.20782456020E+03  0.60622511012E+03  0.00000000000E+00 0.  1.
         22    1    1    2    0    0 -0.41820332769E+03 -0.47570756059E+03  0.24033958155E+04  0.24854583386E+04  0.00000000000E+00 0. -1.
<mgrwt>
<rscale>  0 0.17265974E+04</rscale>
<asrwt>0</asrwt>
<pdfrwt beam="1">  1        2 0.44971309E+00 0.17265974E+04</pdfrwt>
<pdfrwt beam="2">  1       -2 0.39224726E-01 0.17265974E+04</pdfrwt>
<totfact> 0.11389614E+01</totfact>
</mgrwt>
</event>
<event>
 6    1  0.2047711E-005  0.1887735E+04  0.7818608E-02  0.8660985E-01
         -2   -1    0    0    0  501 -0.00000000000E+00  0.00000000000E+00  0.36036494603E+03  0.36036494603E+03  0.00000000000E+00 0.  1.
          2   -1    0    0  501    0  0.00000000000E+00 -0.00000000000E+00 -0.24721776784E+04  0.24721776784E+04  0.00000000000E+00 0. -1.
         23    2    1    2    0    0  0.36021953928E+03 -0.68286592731E+03 -0.24914619951E+03  0.81621164866E+03  0.89797747840E+02 0.  0.
         11    1    3    3    0    0  0.24083299660E+03 -0.45863099936E+03 -0.21093379763E+03  0.55931743474E+03  0.00000000000E+00 0.  1.
        -11    1    3    3    0    0  0.11938654268E+03 -0.22423492795E+03 -0.38212401876E+02  0.25689421391E+03  0.00000000000E+00 0. -1.
         22    1    1    2    0    0 -0.36021953928E+03  0.68286592731E+03 -0.18626665328E+04  0.20163309757E+04  0.00000000000E+00 0. -1.
<mgrwt>
<rscale>  0 0.18877353E+04</rscale>
<asrwt>0</asrwt>
<pdfrwt beam="1">  1        2 0.38033504E+00 0.18877353E+04</pdfrwt>
<pdfrwt beam="2">  1       -2 0.55440760E-01 0.18877353E+04</pdfrwt>
<totfact> 0.10364055E+01</totfact>
</mgrwt>
</event>
<event>
 6    1  0.2047711E-005  0.2136090E+04  0.7818608E-02  0.8545510E-01
         -2   -1    0    0    0  501 -0.00000000000E+00  0.00000000000E+00  0.66495780505E+03  0.66495780505E+03  0.00000000000E+00 0.  1.
          2   -1    0    0  501    0  0.00000000000E+00 -0.00000000000E+00 -0.17154773441E+04  0.17154773441E+04  0.00000000000E+00 0. -1.
         23    2    1    2    0    0  0.74829433743E+02  0.45427584591E+03  0.54539860388E+03  0.71943523728E+03  0.90340661881E+02 0.  0.
         11    1    3    3    0    0  0.36765421085E+02  0.33517654145E+03  0.33913570602E+03  0.47823429114E+03  0.00000000000E+00 0. -1.
        -11    1    3    3    0    0  0.38064012658E+02  0.11909930446E+03  0.20626289786E+03  0.24120094613E+03  0.00000000000E+00 0.  1.
         22    1    1    2    0    0 -0.74829433743E+02 -0.45427584591E+03 -0.15959181429E+04  0.16609999119E+04  0.00000000000E+00 0. -1.
<mgrwt>
<rscale>  0 0.21360899E+04</rscale>
<asrwt>0</asrwt>
<pdfrwt beam="1">  1        2 0.26391958E+00 0.21360899E+04</pdfrwt>
<pdfrwt beam="2">  1       -2 0.10230120E+00 0.21360899E+04</pdfrwt>
<totfact> 0.69121532E+00</totfact>
</mgrwt>
</event>
<event>
 6    1  0.2047711E-005  0.3071251E+04  0.7818608E-02  0.8223672E-01
          2   -1    0    0  501    0  0.00000000000E+00  0.00000000000E+00  0.20461505800E+04  0.20461505800E+04  0.00000000000E+00 0. -1.
         -2   -1    0    0    0  501 -0.00000000000E+00 -0.00000000000E+00 -0.11524790959E+04  0.11524790959E+04  0.00000000000E+00 0.  1.
         23    2    1    2    0    0  0.23285746480E+03 -0.71980713748E+03 -0.94287192101E+03  0.12123677111E+04  0.92103710428E+02 0.  0.
         13    1    3    3    0    0  0.15420174605E+03 -0.34522733912E+03 -0.43356947087E+03  0.57527609045E+03  0.00000000000E+00 0. -1.
        -13    1    3    3    0    0  0.78655718746E+02 -0.37457979836E+03 -0.50930245014E+03  0.63709162068E+03  0.00000000000E+00 0.  1.
         22    1    1    2    0    0 -0.23285746480E+03  0.71980713748E+03  0.18365434051E+04  0.19862619648E+04  0.00000000000E+00 0. -1.
<mgrwt>
<rscale>  0 0.30712511E+04</rscale>
<asrwt>0</asrwt>
<pdfrwt beam="1">  1        2 0.31479240E+00 0.30712511E+04</pdfrwt>
<pdfrwt beam="2">  1       -2 0.17730448E+00 0.30712511E+04</pdfrwt>
<totfact> 0.10146082E+00</totfact>
</mgrwt>
</event>
<event>
 6    1  0.2047711E-005  0.4360625E+04  0.7818608E-02  0.7935502E-01
         -2   -1    0    0    0  501 -0.00000000000E+00  0.00000000000E+00  0.12715674591E+04  0.12715674591E+04  0.00000000000E+00 0.  1.
          2   -1    0    0  501    0  0.00000000000E+00 -0.00000000000E+00 -0.37385065916E+04  0.37385065916E+04  0.00000000000E+00 0. -1.
         23    2    1    2    0    0 -0.70024864189E+03  0.15672512245E+04 -0.27767501696E+04  0.32657668990E+04  0.90925097038E+02 0.  0.
         11    1    3    3    0    0 -0.20734440433E+03  0.56798429340E+03 -0.95904801666E+03  0.11337420155E+04  0.00000000000E+00 0. -1.
        -11    1    3    3    0    0 -0.49290423756E+03  0.99926693106E+03 -0.18177021529E+04  0.21320248834E+04  0.00000000000E+00 0.  1.
         22    1    1    2    0    0  0.70024864189E+03 -0.15672512245E+04  0.30981103708E+03  0.17443071518E+04  0.00000000000E+00 0.  1.
<mgrwt>
<rscale>  0 0.43606253E+04</rscale>
<asrwt>0</asrwt>
<pdfrwt beam="1">  1        2 0.57515486E+00 0.43606253E+04</pdfrwt>
<pdfrwt beam="2">  1       -2 0.19562576E+00 0.43606253E+04</pdfrwt>
<totfact> 0.59358626E-02</totfact>
</mgrwt>
</event>
<event>
 6    1  0.2047711E-005  0.3986114E+04  0.7818608E-02  0.8007354E-01
          2   -1    0    0  501    0  0.00000000000E+00  0.00000000000E+00  0.15480496983E+04  0.15480496983E+04  0.00000000000E+00 0. -1.
         -2   -1    0    0    0  501 -0.00000000000E+00 -0.00000000000E+00 -0.25659879499E+04  0.25659879499E+04  0.00000000000E+00 0.  1.
         23    2    1    2    0    0 -0.59486190191E+03  0.13533153257E+04  0.86884153551E+03  0.17171102362E+04  0.90878469656E+02 0.  0.
         13    1    3    3    0    0 -0.43090824862E+03  0.90420719925E+03  0.55368184336E+03  0.11444807388E+04  0.00000000000E+00 0.  1.
        -13    1    3    3    0    0 -0.16395365330E+03  0.44910812648E+03  0.31515969215E+03  0.57262949736E+03  0.00000000000E+00 0. -1.
         22    1    1    2    0    0  0.59486190191E+03 -0.13533153257E+04 -0.18867797871E+04  0.23969274120E+04  0.00000000000E+00 0.  1.
<mgrwt>
<rscale>  0 0.39861143E+04</rscale>
<asrwt>0</asrwt>
<pdfrwt beam="1">  1        2 0.23816149E+00 0.39861143E+04</pdfrwt>
<pdfrwt beam="2">  1       -2 0.39476738E+00 0.39861143E+04</pdfrwt>
<totfact> 0.75598585E-02</totfact>
</mgrwt>
</event>
<event>
 6    1  0.2047711E-005  0.3232152E+04  0.7818608E-02  0.8180377E-01
         -2   -1    0    0    0  501 -0.00000000000E+00  0.00000000000E+00  0.15850400338E+04  0.15850400338E+04  0.00000000000E+00 0.  1.
          2   -1    0    0  501    0  0.00000000000E+00 -0.00000000000E+00 -0.16477192274E+04  0.16477192274E+04  0.00000000000E+00 0. -1.
         23    2    1    2    0    0 -0.86276585801E+03 -0.10499501956E+04 -0.90379162179E+03  0.16345632607E+04  0.90539597001E+02 0.  0.
         13    1    3    3    0    0 -0.38013282478E+03 -0.48546611053E+03 -0.35892440337E+03  0.71344588882E+03  0.00000000000E+00 0. -1.
        -13    1    3    3    0    0 -0.48263303322E+03 -0.56448408511E+03 -0.54486721842E+03  0.92111737190E+03  0.00000000000E+00 0.  1.
         22    1    1    2    0    0  0.86276585801E+03  0.10499501956E+04  0.84111242813E+03  0.15981960004E+04  0.00000000000E+00 0.  1.
<mgrwt>
<rscale>  0 0.32321516E+04</rscale>
<asrwt>0</asrwt>
<pdfrwt beam="1">  1        2 0.25349526E+00 0.32321516E+04</pdfrwt>
<pdfrwt beam="2">  1       -2 0.24385232E+00 0.32321516E+04</pdfrwt>
<totfact> 0.61764152E-01</totfact>
</mgrwt>
</event>
<event>
 6    1  0.2047711E-005  0.2407094E+04  0.7818608E-02  0.8436852E-01
         -2   -1    0    0    0  501 -0.00000000000E+00  0.00000000000E+00  0.43538409913E+03  0.43538409913E+03  0.00000000000E+00 0.  1.
          2   -1    0    0  501    0  0.00000000000E+00 -0.00000000000E+00 -0.33270064339E+04  0.33270064339E+04  0.00000000000E+00 0. -1.
         23    2    1    2    0    0 -0.10188403846E+04 -0.56944302997E+03 -0.10022108533E+04  0.15415400563E+04  0.98071693702E+02 0.  0.
         13    1    3    3    0    0 -0.66540540997E+03 -0.41645156200E+03 -0.63947532970E+03  0.10124845482E+04  0.00000000000E+00 0. -1.
        -13    1    3    3    0    0 -0.35343497462E+03 -0.15299146797E+03 -0.36273552361E+03  0.52905550809E+03  0.00000000000E+00 0.  1.
         22    1    1    2    0    0  0.10188403846E+04  0.56944302997E+03 -0.18894114815E+04  0.22208504767E+04  0.00000000000E+00 0. -1.
<mgrwt>
<rscale>  0 0.24070943E+04</rscale>
<asrwt>0</asrwt>
<pdfrwt beam="1">  1        2 0.51184714E+00 0.24070943E+04</pdfrwt>
<pdfrwt beam="2">  1       -2 0.66982169E-01 0.24070943E+04</pdfrwt>
<totfact> 0.19671201E+00</totfact>
</mgrwt>
</event>
<event>
 6    1  0.2047711E-005  0.5293812E+04  0.7818608E-02  0.7784716E-01
          2   -1    0    0  501    0  0.00000000000E+00  0.00000000000E+00  0.37721966225E+04  0.37721966225E+04  0.00000000000E+00 0. -1.
         -2   -1    0    0    0  501 -0.00000000000E+00 -0.00000000000E+00 -0.18573029408E+04  0.18573029408E+04  0.00000000000E+00 0.  1.
         23    2    1    2    0    0 -0.51787358623E+03 -0.15052569175E+04 -0.12898204432E+04  0.20512061067E+04  0.99087220915E+02 0.  0.
         11    1    3    3    0    0 -0.28481234879E+03 -0.96716806271E+03 -0.83485262536E+03  0.13090114750E+04  0.00000000000E+00 0. -1.
        -11    1    3    3    0    0 -0.23306123743E+03 -0.53808885481E+03 -0.45496781784E+03  0.74219463171E+03  0.00000000000E+00 0.  1.
         22    1    1    2    0    0  0.51787358623E+03  0.15052569175E+04  0.32047141249E+04  0.35782934566E+04  0.00000000000E+00 0. -1.
<mgrwt>
<rscale>  0 0.52938122E+04</rscale>
<asrwt>0</asrwt>
<pdfrwt beam="1">  1        2 0.58033794E+00 0.52938122E+04</pdfrwt>
<pdfrwt beam="2">  1       -2 0.28573892E+00 0.52938122E+04</pdfrwt>
<totfact> 0.14197750E-02</totfact>
</mgrwt>
</event>
<event>
 6    1  0.2047711E-005  0.1296189E+04  0.7818608E-02  0.9032593E-01
          2   -1    0    0  501    0  0.00000000000E+00  0.00000000000E+00  0.15432690196E+04  0.15432690196E+04  0.00000000000E+00 0. -1.
         -2   -1    0    0    0  501 -0.00000000000E+00 -0.00000000000E+00 -0.27216672438E+03  0.27216672438E+03  0.00000000000E+00 0.  1.
         23    2    1    2    0    0  0.35504186266E+02  0.41316739386E+03 -0.53236947256E+02  0.42768855096E+03  0.90085967179E+02 0.  0.
         11    1    3    3    0    0  0.29323958223E+01  0.36619501403E+03 -0.55987630540E+02  0.37046187661E+03  0.00000000000E+00 0. -1.
        -11    1    3    3    0    0  0.32571790444E+02  0.46972379829E+02  0.27506832848E+01  0.57226674358E+02  0.00000000000E+00 0.  1.
         22    1    1    2    0    0 -0.35504186266E+02 -0.41316739386E+03  0.13243392425E+04  0.13877471930E+04  0.00000000000E+00 0. -1.
<mgrwt>
<rscale>  0 0.12961890E+04</rscale>
<asrwt>0</asrwt>
<pdfrwt beam="1">  1        2 0.23742600E+00 0.12961890E+04</pdfrwt>
<pdfrwt beam="2">  1       -2 0.41871805E-01 0.12961890E+04</pdfrwt>
<totfact> 0.63569841E+01</totfact>
</mgrwt>
</event>
<event>
 6    1  0.2047711E-005  0.1156559E+04  0.7818608E-02  0.9151754E-01
          2   -1    0    0  501    0  0.00000000000E+00  0.00000000000E+00  0.76675514593E+03  0.76675514593E+03  0.00000000000E+00 0. -1.
         -2   -1    0    0    0  501 -0.00000000000E+00 -0.00000000000E+00 -0.43613287942E+03  0.43613287942E+03  0.00000000000E+00 0.  1.
         23    2    1    2    0    0  0.59541670416E+02  0.52991376581E+03  0.38913328441E+03  0.66643919375E+03  0.91447669257E+02 0.  0.
         13    1    3    3    0    0  0.54640163793E+02  0.44448357919E+03  0.28157808131E+03  0.52899661203E+03  0.00000000000E+00 0.  1.
        -13    1    3    3    0    0  0.49015066228E+01  0.85430186621E+02  0.10755520311E+03  0.13744258172E+03  0.00000000000E+00 0. -1.
         22    1    1    2    0    0 -0.59541670416E+02 -0.52991376581E+03 -0.58511017903E+02  0.53644883160E+03  0.00000000000E+00 0.  1.
<mgrwt>
<rscale>  0 0.11565589E+04</rscale>
<asrwt>0</asrwt>
<pdfrwt beam="1">  1        2 0.11796233E+00 0.11565589E+04</pdfrwt>
<pdfrwt beam="2">  1       -2 0.67097366E-01 0.11565589E+04</pdfrwt>
<totfact> 0.73520701E+01</totfact>
</mgrwt>
</event>
<event>
 6    1  0.2047711E-005  0.3145218E+04  0.7818608E-02  0.8203437E-01
          2   -1    0    0  501    0  0.00000000000E+00  0.00000000000E+00  0.17097807218E+04  0.17097807218E+04  0.00000000000E+00 0. -1.
         -2   -1    0    0    0  501 -0.00000000000E+00 -0.00000000000E+00 -0.14464423971E+04  0.14464423971E+04  0.00000000000E+00 0.  1.
         23    2    1    2    0    0  0.29322877011E+03 -0.82984870058E+03  0.14380261057E+04  0.16883936464E+04  0.90122400117E+02 0.  0.
         13    1    3    3    0    0  0.13407539834E+03 -0.30900661700E+03  0.62135420953E+03  0.70678310357E+03  0.00000000000E+00 0. -1.
        -13    1    3    3    0    0  0.15915337177E+03 -0.52084208357E+03  0.81667189617E+03  0.98161054281E+03  0.00000000000E+00 0.  1.
         22    1    1    2    0    0 -0.29322877011E+03  0.82984870058E+03 -0.11746877810E+04  0.14678294725E+04  0.00000000000E+00 0.  1.
<mgrwt>
<rscale>  0 0.31452182E+04</rscale>
<asrwt>0</asrwt>
<pdfrwt beam="1">  1        2 0.26304319E+00 0.31452182E+04</pdfrwt>
<pdfrwt beam="2">  1       -2 0.22252960E+00 0.31452182E+04</pdfrwt>
<totfact> 0.78042564E-01</totfact>
</mgrwt>
</event>
<event>
 6    1  0.2047711E-005  0.3932847E+04  0.7818608E-02  0.8018232E-01
         -2   -1    0    0    0  501 -0.00000000000E+00  0.00000000000E+00  0.19001639464E+04  0.19001639464E+04  0.00000000000E+00 0.  1.
          2   -1    0    0  501    0  0.00000000000E+00 -0.00000000000E+00 -0.20349934649E+04  0.20349934649E+04  0.00000000000E+00 0. -1.
         23    2    1    2    0    0  0.90327884017E+03 -0.53497834981E+03 -0.17299072288E+04  0.20256057887E+04  0.91571246169E+02 0.  0.
         13    1    3    3    0    0  0.15408269101E+02 -0.15324375484E+02 -0.64605781059E+02  0.68162733124E+02  0.00000000000E+00 0. -1.
        -13    1    3    3    0    0  0.88787057107E+03 -0.51965397432E+03 -0.16653014477E+04  0.19574430556E+04  0.00000000000E+00 0.  1.
         22    1    1    2    0    0 -0.90327884017E+03  0.53497834981E+03  0.15950777102E+04  0.19095516227E+04  0.00000000000E+00 0.  1.
<mgrwt>
<rscale>  0 0.39328469E+04</rscale>
<asrwt>0</asrwt>
<pdfrwt beam="1">  1        2 0.31307591E+00 0.39328469E+04</pdfrwt>
<pdfrwt beam="2">  1       -2 0.29233292E+00 0.39328469E+04</pdfrwt>
<totfact> 0.17941061E-01</totfact>
</mgrwt>
</event>
<event>
 6    1  0.3963712E-005  0.2549714E+04  0.7818608E-02  0.8385486E-01
          2   -1    0    0  501    0  0.00000000000E+00  0.00000000000E+00  0.83376316852E+03  0.83376316852E+03  0.00000000000E+00 0. -1.
         -2   -1    0    0    0  501 -0.00000000000E+00 -0.00000000000E+00 -0.19493075543E+04  0.19493075543E+04  0.00000000000E+00 0.  1.
         23    2    1    2    0    0 -0.88602937899E+03 -0.41490248662E+02  0.43854378348E+03  0.99366871685E+03  0.91034980362E+02 0.  0.
         11    1    3    3    0    0 -0.31559514911E+03 -0.31591852419E+02  0.11236225869E+03  0.33648717726E+03  0.00000000000E+00 0. -1.
        -11    1    3    3    0    0 -0.57043422988E+03 -0.98983962432E+01  0.32618152479E+03  0.65718153959E+03  0.00000000000E+00 0.  1.
         22    1    1    2    0    0  0.88602937899E+03  0.41490248662E+02 -0.15540881693E+04  0.17894020060E+04  0.00000000000E+00 0.  1.
<mgrwt>
<rscale>  0 0.25497144E+04</rscale>
<asrwt>0</asrwt>
<pdfrwt beam="1">  1        2 0.12827126E+00 0.25497144E+04</pdfrwt>
<pdfrwt beam="2">  1       -2 0.29989347E+00 0.25497144E+04</pdfrwt>
<totfact> 0.92138723E-01</totfact>
</mgrwt>
</event>
<event>
 6    1  0.2047711E-005  0.2027320E+04  0.7818608E-02  0.8593953E-01
         -2   -1    0    0    0  501 -0.00000000000E+00  0.00000000000E+00  0.13005840123E+04  0.13005840123E+04  0.00000000000E+00 0.  1.
          2   -1    0    0  501    0  0.00000000000E+00 -0.00000000000E+00 -0.79003456532E+03  0.79003456532E+03  0.00000000000E+00 0. -1.
         23    2    1    2    0    0  0.62920201235E+03  0.35991683853E+03  0.98343670504E+03  0.12251374040E+04  0.91534708507E+02 0.  0.
         11    1    3    3    0    0  0.21450289643E+03  0.84156819024E+02  0.26806800104E+03  0.35348877768E+03  0.00000000000E+00 0. -1.
        -11    1    3    3    0    0  0.41469911592E+03  0.27576001951E+03  0.71536870400E+03  0.87164862632E+03  0.00000000000E+00 0.  1.
         22    1    1    2    0    0 -0.62920201235E+03 -0.35991683853E+03 -0.47288725808E+03  0.86548117360E+03  0.00000000000E+00 0. -1.
<mgrwt>
<rscale>  0 0.20273197E+04</rscale>
<asrwt>0</asrwt>
<pdfrwt beam="1">  1        2 0.12154378E+00 0.20273197E+04</pdfrwt>
<pdfrwt beam="2">  1       -2 0.20008985E+00 0.20273197E+04</pdfrwt>
<totfact> 0.43102065E+00</totfact>
</mgrwt>
</event>
<event>
 6    1  0.2047711E-005  0.1401968E+04  0.7818608E-02  0.8952395E-01
          2   -1    0    0  501    0  0.00000000000E+00  0.00000000000E+00  0.29483073626E+04  0.29483073626E+04  0.00000000000E+00 0.  1.
         -2   -1    0    0    0  501 -0.00000000000E+00 -0.00000000000E+00 -0.16666461916E+03  0.16666461916E+03  0.00000000000E+00 0. -1.
         23    2    1    2    0    0  0.34887735625E+03  0.60119821801E+03  0.12520673819E+04  0.14348661834E+04  0.89518313192E+02 0.  0.
         13    1    3    3    0    0  0.19635744988E+03  0.41504183594E+03  0.78400030560E+03  0.90855514576E+03  0.00000000000E+00 0. -1.
        -13    1    3    3    0    0  0.15251990637E+03  0.18615638207E+03  0.46806707629E+03  0.52631103763E+03  0.00000000000E+00 0.  1.
         22    1    1    2    0    0 -0.34887735625E+03 -0.60119821801E+03  0.15295753616E+04  0.16801057984E+04  0.00000000000E+00 0.  1.
<mgrwt>
<rscale>  0 0.14019679E+04</rscale>
<asrwt>0</asrwt>
<pdfrwt beam="1">  1        2 0.45358571E+00 0.14019679E+04</pdfrwt>
<pdfrwt beam="2">  1       -2 0.25640713E-01 0.14019679E+04</pdfrwt>
<totfact> 0.25217545E+01</totfact>
</mgrwt>
</event>
<event>
 6    1  0.2047711E-005  0.6505879E+04  0.7818608E-02  0.7630659E-01
         -2   -1    0    0    0  501 -0.00000000000E+00  0.00000000000E+00  0.23660394209E+04  0.23660394209E+04  0.00000000000E+00 0.  1.
          2   -1    0    0  501    0  0.00000000000E+00 -0.00000000000E+00 -0.44722899959E+04  0.44722899959E+04  0.00000000000E+00 0. -1.
         23    2    1    2    0    0 -0.12398982567E+04 -0.74191686875E+03 -0.41159460634E+04  0.43631194695E+04  0.89505204193E+02 0.  0.
         13    1    3    3    0    0 -0.32035946261E+03 -0.16706449283E+03 -0.11293081655E+04  0.11856971210E+04  0.00000000000E+00 0. -1.
        -13    1    3    3    0    0 -0.91953879404E+03 -0.57485237592E+03 -0.29866378979E+04  0.31774223485E+04  0.00000000000E+00 0.  1.
         22    1    1    2    0    0  0.12398982567E+04  0.74191686875E+03  0.20096954884E+04  0.24752099473E+04  0.00000000000E+00 0.  1.
<mgrwt>
<rscale>  0 0.65058787E+04</rscale>
<asrwt>0</asrwt>
<pdfrwt beam="1">  1        2 0.68804461E+00 0.65058787E+04</pdfrwt>
<pdfrwt beam="2">  1       -2 0.36400607E+00 0.65058787E+04</pdfrwt>
<totfact> 0.10626842E-03</totfact>
</mgrwt>
</event>
<event>
 6    1  0.2047711E-005  0.2132177E+04  0.7818608E-02  0.8547200E-01
          2   -1    0    0  501    0  0.00000000000E+00  0.00000000000E+00  0.18006033591E+04  0.18006033591E+04  0.00000000000E+00 0. -1.
         -2   -1    0    0    0  501 -0.00000000000E+00 -0.00000000000E+00 -0.63120215079E+03  0.63120215079E+03  0.00000000000E+00 0.  1.
         23    2    1    2    0    0  0.54780832735E+03  0.35313149684E+03  0.15448193091E+04  0.16796522223E+04  0.99845243183E+02 0.  0.
         13    1    3    3    0    0  0.40951268209E+03  0.22132491804E+03  0.10219076819E+04  0.11229339547E+04  0.00000000000E+00 0. -1.
        -13    1    3    3    0    0  0.13829564526E+03  0.13180657880E+03  0.52291162716E+03  0.55671826764E+03  0.00000000000E+00 0.  1.
         22    1    1    2    0    0 -0.54780832735E+03 -0.35313149684E+03 -0.37541810081E+03  0.75215328756E+03  0.00000000000E+00 0.  1.
<mgrwt>
<rscale>  0 0.21321770E+04</rscale>
<asrwt>0</asrwt>
<pdfrwt beam="1">  1        2 0.27701590E+00 0.21321770E+04</pdfrwt>
<pdfrwt beam="2">  1       -2 0.97108024E-01 0.21321770E+04</pdfrwt>
<totfact> 0.70154653E+00</totfact>
</mgrwt>
</event>
<event>
 6    1  0.2047711E-005  0.1900789E+04  0.7818608E-02  0.8654464E-01
          2   -1    0    0  501    0  0.00000000000E+00  0.00000000000E+00  0.14034897710E+04  0.14034897710E+04  0.00000000000E+00 0. -1.
         -2   -1    0    0    0  501 -0.00000000000E+00 -0.00000000000E+00 -0.64357410219E+03  0.64357410219E+03  0.00000000000E+00 0.  1.
         23    2    1    2    0    0  0.50031245521E+03 -0.31728518849E+03  0.11781501379E+04  0.13218725089E+04  0.91250965319E+02 0.  0.
         11    1    3    3    0    0  0.19237072643E+03 -0.10756725497E+03  0.34761279071E+03  0.41159672374E+03  0.00000000000E+00 0. -1.
        -11    1    3    3    0    0  0.30794172877E+03 -0.20971793352E+03  0.83053734719E+03  0.91027578516E+03  0.00000000000E+00 0.  1.
         22    1    1    2    0    0 -0.50031245521E+03  0.31728518849E+03 -0.41823446911E+03  0.72519136427E+03  0.00000000000E+00 0.  1.
<mgrwt>
<rscale>  0 0.19007890E+04</rscale>
<asrwt>0</asrwt>
<pdfrwt beam="1">  1        2 0.21592150E+00 0.19007890E+04</pdfrwt>
<pdfrwt beam="2">  1       -2 0.99011401E-01 0.19007890E+04</pdfrwt>
<totfact> 0.11409078E+01</totfact>
</mgrwt>
</event>
<event>
 6    1  0.2047711E-005  0.1168578E+04  0.7818608E-02  0.9140814E-01
          2   -1    0    0  501    0  0.00000000000E+00  0.00000000000E+00  0.84240356872E+03  0.84240356872E+03  0.00000000000E+00 0. -1.
         -2   -1    0    0    0  501 -0.00000000000E+00 -0.00000000000E+00 -0.40526128895E+03  0.40526128895E+03  0.00000000000E+00 0.  1.
         23    2    1    2    0    0  0.41220820390E+03  0.28682618660E+03  0.53136711557E+03  0.73672143187E+03  0.90678508959E+02 0.  0.
         13    1    3    3    0    0  0.31581374444E+03  0.17997300960E+03  0.41474948549E+03  0.55149409886E+03  0.00000000000E+00 0.  1.
        -13    1    3    3    0    0  0.96394459463E+02  0.10685317700E+03  0.11661763008E+03  0.18522733301E+03  0.00000000000E+00 0. -1.
         22    1    1    2    0    0 -0.41220820390E+03 -0.28682618660E+03 -0.94224835803E+02  0.51094342580E+03  0.00000000000E+00 0.  1.
<mgrwt>
<rscale>  0 0.11685779E+04</rscale>
<asrwt>0</asrwt>
<pdfrwt beam="1">  1        2 0.12960055E+00 0.11685779E+04</pdfrwt>
<pdfrwt beam="2">  1       -2 0.62347891E-01 0.11685779E+04</pdfrwt>
<totfact> 0.75855009E+01</totfact>
</mgrwt>
</event>
<event>
 6    1  0.2047711E-005  0.4525320E+04  0.7818608E-02  0.7906219E-01
          2   -1    0    0  501    0  0.00000000000E+00  0.00000000000E+00  0.22650454028E+04  0.22650454028E+04  0.00000000000E+00 0. -1.
         -2   -1    0    0    0  501 -0.00000000000E+00 -0.00000000000E+00 -0.22602775758E+04  0.22602775758E+04  0.00000000000E+00 0.  1.
         23    2    1    2    0    0 -0.11679260341E+04 -0.70345776604E+03 -0.18021603506E+04  0.22617210947E+04  0.93254120585E+02 0.  0.
         11    1    3    3    0    0 -0.69911160090E+03 -0.40431013821E+03 -0.11385703314E+04  0.13959104978E+04  0.00000000000E+00 0. -1.
        -11    1    3    3    0    0 -0.46881443324E+03 -0.29914762783E+03 -0.66359001919E+03  0.86581059685E+03  0.00000000000E+00 0.  1.
         22    1    1    2    0    0  0.11679260341E+04  0.70345776604E+03  0.18069281776E+04  0.22636018839E+04  0.00000000000E+00 0. -1.
<mgrwt>
<rscale>  0 0.45253205E+04</rscale>
<asrwt>0</asrwt>
<pdfrwt beam="1">  1        2 0.34846852E+00 0.45253205E+04</pdfrwt>
<pdfrwt beam="2">  1       -2 0.34773501E+00 0.45253205E+04</pdfrwt>
<totfact> 0.57690362E-02</totfact>
</mgrwt>
</event>
<event>
 6    1  0.2047711E-005  0.2112970E+04  0.7818608E-02  0.8555552E-01
         -2   -1    0    0    0  501 -0.00000000000E+00  0.00000000000E+00  0.92439164735E+03  0.92439164735E+03  0.00000000000E+00 0.  1.
          2   -1    0    0  501    0  0.00000000000E+00 -0.00000000000E+00 -0.12074537923E+04  0.12074537923E+04  0.00000000000E+00 0. -1.
         23    2    1    2    0    0 -0.58179141551E+03  0.62550896748E+03  0.48302370176E+03  0.98440034550E+03  0.77391370378E+02 0.  0.
         13    1    3    3    0    0 -0.33922346793E+03  0.40888007096E+03  0.27363779701E+03  0.59760615590E+03  0.00000000000E+00 0.  1.
        -13    1    3    3    0    0 -0.24256794758E+03  0.21662889652E+03  0.20938590475E+03  0.38679418960E+03  0.00000000000E+00 0. -1.
         22    1    1    2    0    0  0.58179141551E+03 -0.62550896748E+03 -0.76608584675E+03  0.11474450942E+04  0.00000000000E+00 0. -1.
<mgrwt>
<rscale>  0 0.21129697E+04</rscale>
<asrwt>0</asrwt>
<pdfrwt beam="1">  1        2 0.18576212E+00 0.21129697E+04</pdfrwt>
<pdfrwt beam="2">  1       -2 0.14221410E+00 0.21129697E+04</pdfrwt>
<totfact> 0.59507450E+00</totfact>
</mgrwt>
</event>
<event>
 6    1  0.2047711E-005  0.3532452E+04  0.7818608E-02  0.8106142E-01
          1   -1    0    0  501    0  0.00000000000E+00  0.00000000000E+00  0.39905184492E+04  0.39905184492E+04  0.00000000000E+00 0. -1.
         -1   -1    0    0    0  501 -0.00000000000E+00 -0.00000000000E+00 -0.78174176086E+03  0.78174176086E+03  0.00000000000E+00 0.  1.
         23    2    1    2    0    0 -0.42453040727E+03 -0.16886102491E+04  0.12145585325E+04  0.21248961072E+04  0.91653681594E+02 0.  0.
         13    1    3    3    0    0 -0.23551191798E+03 -0.75158288060E+03  0.55653935527E+03  0.96440590204E+03  0.00000000000E+00 0. -1.
        -13    1    3    3    0    0 -0.18901848929E+03 -0.93702736850E+03  0.65801917719E+03  0.11604902051E+04  0.00000000000E+00 0.  1.
         22    1    1    2    0    0  0.42453040727E+03  0.16886102491E+04  0.19942181558E+04  0.26473641029E+04  0.00000000000E+00 0. -1.
<mgrwt>
<rscale>  0 0.35324524E+04</rscale>
<asrwt>0</asrwt>
<pdfrwt beam="1">  1        1 0.61392590E+00 0.35324524E+04</pdfrwt>
<pdfrwt beam="2">  1       -1 0.12026797E+00 0.35324524E+04</pdfrwt>
<totfact> 0.48875152E-02</totfact>
</mgrwt>
</event>
<event>
 6    1  0.2047711E-005  0.1298328E+04  0.7818608E-02  0.9030892E-01
          2   -1    0    0  501    0  0.00000000000E+00  0.00000000000E+00  0.21861646826E+04  0.21861646826E+04  0.00000000000E+00 0. -1.
         -2   -1    0    0    0  501 -0.00000000000E+00 -0.00000000000E+00 -0.19276410336E+03  0.19276410336E+03  0.00000000000E+00 0.  1.
         23    2    1    2    0    0  0.50216984805E+03  0.33655284258E+02  0.25941588979E+03  0.57337897006E+03  0.90330531863E+02 0.  0.
         11    1    3    3    0    0  0.27036191364E+03  0.48788401819E+02  0.17738815267E+03  0.32702053331E+03  0.00000000000E+00 0.  1.
        -11    1    3    3    0    0  0.23180793441E+03 -0.15133117561E+02  0.82027737121E+02  0.24635843676E+03  0.00000000000E+00 0. -1.
         22    1    1    2    0    0 -0.50216984805E+03 -0.33655284258E+02  0.17339846895E+04  0.18055498159E+04  0.00000000000E+00 0. -1.
<mgrwt>
<rscale>  0 0.12983283E+04</rscale>
<asrwt>0</asrwt>
<pdfrwt beam="1">  1        2 0.33633301E+00 0.12983283E+04</pdfrwt>
<pdfrwt beam="2">  1       -2 0.29656018E-01 0.12983283E+04</pdfrwt>
<totfact> 0.54106570E+01</totfact>
</mgrwt>
</event>
<event>
 6    1  0.2047711E-005  0.3695316E+04  0.7818608E-02  0.8069001E-01
         -2   -1    0    0    0  501 -0.00000000000E+00  0.00000000000E+00  0.21965971679E+04  0.21965971679E+04  0.00000000000E+00 0.  1.
          2   -1    0    0  501    0  0.00000000000E+00 -0.00000000000E+00 -0.15541489432E+04  0.15541489432E+04  0.00000000000E+00 0. -1.
         23    2    1    2    0    0  0.49315790700E+03 -0.13952342918E+04  0.14424117206E+04  0.20685377278E+04  0.91724093753E+02 0.  0.
         13    1    3    3    0    0  0.33002831322E+03 -0.85599652977E+03  0.94374655472E+03  0.13161710778E+04  0.00000000000E+00 0.  1.
        -13    1    3    3    0    0  0.16312959378E+03 -0.53923776206E+03  0.49866516586E+03  0.75236665001E+03  0.00000000000E+00 0. -1.
         22    1    1    2    0    0 -0.49315790700E+03  0.13952342918E+04 -0.79996349584E+03  0.16822083834E+04  0.00000000000E+00 0. -1.
<mgrwt>
<rscale>  0 0.36953155E+04</rscale>
<asrwt>0</asrwt>
<pdfrwt beam="1">  1        2 0.23909984E+00 0.36953155E+04</pdfrwt>
<pdfrwt beam="2">  1       -2 0.33793803E+00 0.36953155E+04</pdfrwt>
<totfact> 0.17719453E-01</totfact>
</mgrwt>
</event>
<event>
 6    1  0.2047711E-005  0.3771056E+04  0.7818608E-02  0.8052395E-01
          2   -1    0    0  501    0  0.00000000000E+00  0.00000000000E+00  0.31339522169E+04  0.31339522169E+04  0.00000000000E+00 0. -1.
         -2   -1    0    0    0  501 -0.00000000000E+00 -0.00000000000E+00 -0.11344192657E+04  0.11344192657E+04  0.00000000000E+00 0.  1.
         23    2    1    2    0    0 -0.56330929368E+03 -0.17584554551E+04  0.14262808728E+04  0.23349545867E+04  0.90845175357E+02 0.  0.
         11    1    3    3    0    0 -0.26985071749E+03 -0.98205778152E+03  0.76684019572E+03  0.12748728492E+04  0.00000000000E+00 0. -1.
        -11    1    3    3    0    0 -0.29345857619E+03 -0.77639767361E+03  0.65944067711E+03  0.10600817375E+04  0.00000000000E+00 0.  1.
         22    1    1    2    0    0  0.56330929368E+03  0.17584554551E+04  0.57325207829E+03  0.19334168959E+04  0.00000000000E+00 0.  1.
<mgrwt>
<rscale>  0 0.37710560E+04</rscale>
<asrwt>0</asrwt>
<pdfrwt beam="1">  1        2 0.48214649E+00 0.37710560E+04</pdfrwt>
<pdfrwt beam="2">  1       -2 0.17452604E+00 0.37710560E+04</pdfrwt>
<totfact> 0.22753975E-01</totfact>
</mgrwt>
</event>
<event>
 6    1  0.2047711E-005  0.5597492E+03  0.7818608E-02  0.9992622E-01
         -2   -1    0    0    0  501 -0.00000000000E+00  0.00000000000E+00  0.34842861581E+03  0.34842861581E+03  0.00000000000E+00 0.  1.
          2   -1    0    0  501    0  0.00000000000E+00 -0.00000000000E+00 -0.22480871332E+03  0.22480871332E+03  0.00000000000E+00 0. -1.
         23    2    1    2    0    0  0.12939717222E+03 -0.18680872613E+02  0.30842193682E+03  0.34686508023E+03  0.89992719664E+02 0.  0.
         11    1    3    3    0    0  0.33118201129E+02 -0.44905641780E+02  0.14526442090E+03  0.15561196576E+03  0.00000000000E+00 0.  1.
        -11    1    3    3    0    0  0.96278971095E+02  0.26224769167E+02  0.16315751592E+03  0.19125311447E+03  0.00000000000E+00 0. -1.
         22    1    1    2    0    0 -0.12939717222E+03  0.18680872613E+02 -0.18480203433E+03  0.22637224890E+03  0.00000000000E+00 0. -1.
<mgrwt>
<rscale>  0 0.55974919E+03</rscale>
<asrwt>0</asrwt>
<pdfrwt beam="1">  1        2 0.34585956E-01 0.55974919E+03</pdfrwt>
<pdfrwt beam="2">  1       -2 0.53604403E-01 0.55974919E+03</pdfrwt>
<totfact> 0.50129211E+02</totfact>
</mgrwt>
</event>
<event>
 6    1  0.2047711E-005  0.2006065E+04  0.7818608E-02  0.8603791E-01
          2   -1    0    0  501    0  0.00000000000E+00  0.00000000000E+00  0.96240978531E+03  0.96240978531E+03  0.00000000000E+00 0. -1.
         -2   -1    0    0    0  501 -0.00000000000E+00 -0.00000000000E+00 -0.10453694415E+04  0.10453694415E+04  0.00000000000E+00 0.  1.
         23    2    1    2    0    0  0.73601349777E+03 -0.64187965485E+03 -0.26115198283E+03  0.10150668488E+04  0.91842196761E+02 0.  0.
         13    1    3    3    0    0  0.38864373555E+03 -0.38620509875E+03 -0.11662181587E+03  0.56017763202E+03  0.00000000000E+00 0.  1.
        -13    1    3    3    0    0  0.34736976222E+03 -0.25567455610E+03 -0.14453016695E+03  0.45488921673E+03  0.00000000000E+00 0. -1.
         22    1    1    2    0    0 -0.73601349777E+03  0.64187965485E+03  0.17819232667E+03  0.99271237803E+03  0.00000000000E+00 0.  1.
<mgrwt>
<rscale>  0 0.20060646E+04</rscale>
<asrwt>0</asrwt>
<pdfrwt beam="1">  1        2 0.14806304E+00 0.20060646E+04</pdfrwt>
<pdfrwt beam="2">  1       -2 0.16082607E+00 0.20060646E+04</pdfrwt>
<totfact> 0.61442062E+00</totfact>
</mgrwt>
</event>
<event>
 6    1  0.2047711E-005  0.4753276E+04  0.7818608E-02  0.7867736E-01
          2   -1    0    0  501    0  0.00000000000E+00  0.00000000000E+00  0.35331469219E+04  0.35331469219E+04  0.00000000000E+00 0. -1.
         -2   -1    0    0    0  501 -0.00000000000E+00 -0.00000000000E+00 -0.15986902266E+04  0.15986902266E+04  0.00000000000E+00 0.  1.
         23    2    1    2    0    0  0.10557713926E+04 -0.13469697882E+04  0.27466472733E+04  0.32374680244E+04  0.90261405296E+02 0.  0.
         11    1    3    3    0    0  0.94821475883E+03 -0.12489288779E+04  0.25003999591E+04  0.29514292346E+04  0.00000000000E+00 0.  1.
        -11    1    3    3    0    0  0.10755663373E+03 -0.98040910253E+02  0.24624731415E+03  0.28603878980E+03  0.00000000000E+00 0. -1.
         22    1    1    2    0    0 -0.10557713926E+04  0.13469697882E+04 -0.81219057794E+03  0.18943691242E+04  0.00000000000E+00 0.  1.
<mgrwt>
<rscale>  0 0.47532757E+04</rscale>
<asrwt>0</asrwt>
<pdfrwt beam="1">  1        2 0.54356106E+00 0.47532757E+04</pdfrwt>
<pdfrwt beam="2">  1       -2 0.24595234E+00 0.47532757E+04</pdfrwt>
<totfact> 0.38849895E-02</totfact>
</mgrwt>
</event>
<event>
 6    1  0.2047711E-005  0.4798721E+04  0.7818608E-02  0.7860329E-01
          2   -1    0    0  501    0  0.00000000000E+00  0.00000000000E+00  0.36032679057E+04  0.36032679057E+04  0.00000000000E+00 0. -1.
         -2   -1    0    0    0  501 -0.00000000000E+00 -0.00000000000E+00 -0.15976972023E+04  0.15976972023E+04  0.00000000000E+00 0.  1.
         23    2    1    2    0    0 -0.22162426062E+04 -0.24730838006E+02  0.19951577170E+04  0.29845600607E+04  0.12083681620E+03 0.  0.
         13    1    3    3    0    0 -0.12380348672E+04 -0.57041158810E+02  0.11705730120E+04  0.17047654392E+04  0.00000000000E+00 0. -1.
        -13    1    3    3    0    0 -0.97820773900E+03  0.32310320805E+02  0.82458470502E+03  0.12797946215E+04  0.00000000000E+00 0.  1.
         22    1    1    2    0    0  0.22162426062E+04  0.24730838006E+02  0.10412986359E+02  0.22164050474E+04  0.00000000000E+00 0. -1.
<mgrwt>
<rscale>  0 0.47987211E+04</rscale>
<asrwt>0</asrwt>
<pdfrwt beam="1">  1        2 0.55434891E+00 0.47987211E+04</pdfrwt>
<pdfrwt beam="2">  1       -2 0.24579957E+00 0.47987211E+04</pdfrwt>
<totfact> 0.34564224E-02</totfact>
</mgrwt>
</event>
<event>
 6    1  0.2047711E-005  0.6031585E+03  0.7818608E-02  0.9898875E-01
          2   -1    0    0  501    0  0.00000000000E+00  0.00000000000E+00  0.21678705110E+04  0.21678705110E+04  0.00000000000E+00 0. -1.
         -2   -1    0    0    0  501 -0.00000000000E+00 -0.00000000000E+00 -0.41953629502E+02  0.41953629502E+02  0.00000000000E+00 0.  1.
         23    2    1    2    0    0  0.79401587230E+02 -0.75336627224E+02  0.20895323402E+04  0.20944809383E+04  0.93406534659E+02 0.  0.
         13    1    3    3    0    0 -0.15245119653E+02 -0.15378360742E-02  0.54706357648E+03  0.54727595451E+03  0.00000000000E+00 0.  1.
        -13    1    3    3    0    0  0.94646706883E+02 -0.75335089388E+02  0.15424687637E+04  0.15472049838E+04  0.00000000000E+00 0. -1.
         22    1    1    2    0    0 -0.79401587230E+02  0.75336627224E+02  0.36384541349E+02  0.11534320225E+03  0.00000000000E+00 0.  1.
<mgrwt>
<rscale>  0 0.60315847E+03</rscale>
<asrwt>0</asrwt>
<pdfrwt beam="1">  1        2 0.33351845E+00 0.60315847E+03</pdfrwt>
<pdfrwt beam="2">  1       -2 0.64544062E-02 0.60315847E+03</pdfrwt>
<totfact> 0.77382574E+02</totfact>
</mgrwt>
</event>
<event>
 6    1  0.2047711E-005  0.2351330E+04  0.7818608E-02  0.8457953E-01
         -2   -1    0    0    0  501 -0.00000000000E+00  0.00000000000E+00  0.47954372373E+03  0.47954372373E+03  0.00000000000E+00 0.  1.
          2   -1    0    0  501    0  0.00000000000E+00 -0.00000000000E+00 -0.28822983295E+04  0.28822983295E+04  0.00000000000E+00 0. -1.
         23    2    1    2    0    0  0.38233027684E+03  0.61081801806E+03  0.12386442907E+03  0.73447096429E+03  0.69498984351E+02 0.  0.
         13    1    3    3    0    0  0.12510692684E+03  0.14575135031E+03  0.43815344592E+02  0.19701518643E+03  0.00000000000E+00 0. -1.
        -13    1    3    3    0    0  0.25722335000E+03  0.46506666775E+03  0.80049084482E+02  0.53745577786E+03  0.00000000000E+00 0.  1.
         22    1    1    2    0    0 -0.38233027684E+03 -0.61081801806E+03 -0.25266190349E+04  0.26273710890E+04  0.00000000000E+00 0. -1.
<mgrwt>
<rscale>  0 0.23513299E+04</rscale>
<asrwt>0</asrwt>
<pdfrwt beam="1">  1        2 0.44343051E+00 0.23513299E+04</pdfrwt>
<pdfrwt beam="2">  1       -2 0.73775958E-01 0.23513299E+04</pdfrwt>
<totfact> 0.30813024E+00</totfact>
</mgrwt>
</event>
<event>
 6    1  0.2047711E-005  0.2961501E+04  0.7818608E-02  0.8254811E-01
          2   -1    0    0  501    0  0.00000000000E+00  0.00000000000E+00  0.17693500548E+04  0.17693500548E+04  0.00000000000E+00 0. -1.
         -2   -1    0    0    0  501 -0.00000000000E+00 -0.00000000000E+00 -0.12392247090E+04  0.12392247090E+04  0.00000000000E+00 0.  1.
         23    2    1    2    0    0  0.34258057600E+03 -0.13830269398E+04 -0.13954942474E+03  0.14342211612E+04  0.85972844712E+02 0.  0.
         11    1    3    3    0    0 -0.19185377070E+01 -0.35962914024E+02  0.47920476302E+01  0.36331469727E+02  0.00000000000E+00 0.  1.
        -11    1    3    3    0    0  0.34449911371E+03 -0.13470640258E+04 -0.14434147237E+03  0.13978896915E+04  0.00000000000E+00 0. -1.
         22    1    1    2    0    0 -0.34258057600E+03  0.13830269398E+04  0.66967477056E+03  0.15743536025E+04  0.00000000000E+00 0.  1.
<mgrwt>
<rscale>  0 0.29615012E+04</rscale>
<asrwt>0</asrwt>
<pdfrwt beam="1">  1        2 0.27220770E+00 0.29615012E+04</pdfrwt>
<pdfrwt beam="2">  1       -2 0.19064995E+00 0.29615012E+04</pdfrwt>
<totfact> 0.11826379E+00</totfact>
</mgrwt>
</event>
<event>
 6    1  0.2047711E-005  0.2325432E+04  0.7818608E-02  0.8467961E-01
          2   -1    0    0  501    0  0.00000000000E+00  0.00000000000E+00  0.64297551425E+03  0.64297551425E+03  0.00000000000E+00 0. -1.
         -2   -1    0    0    0  501 -0.00000000000E+00 -0.00000000000E+00 -0.21025818434E+04  0.21025818434E+04  0.00000000000E+00 0.  1.
         23    2    1    2    0    0  0.99025855025E+03 -0.10518504103E+03 -0.14351646042E+04  0.17494282059E+04  0.95528619714E+02 0.  0.
         13    1    3    3    0    0  0.47983428021E+03 -0.73783752918E+02 -0.62558886328E+03  0.79186261720E+03  0.00000000000E+00 0.  1.
        -13    1    3    3    0    0  0.51042427004E+03 -0.31401288109E+02 -0.80957574089E+03  0.95756558866E+03  0.00000000000E+00 0. -1.
         22    1    1    2    0    0 -0.99025855025E+03  0.10518504103E+03 -0.24441725012E+02  0.99612915182E+03  0.00000000000E+00 0.  1.
<mgrwt>
<rscale>  0 0.23254321E+04</rscale>
<asrwt>0</asrwt>
<pdfrwt beam="1">  1        2 0.98919310E-01 0.23254321E+04</pdfrwt>
<pdfrwt beam="2">  1       -2 0.32347413E+00 0.23254321E+04</pdfrwt>
<totfact> 0.94017280E-01</totfact>
</mgrwt>
</event>
<event>
 6    1  0.2047711E-005  0.1104465E+04  0.7818608E-02  0.9200851E-01
         -1   -1    0    0    0  501 -0.00000000000E+00  0.00000000000E+00  0.15471222058E+04  0.15471222058E+04  0.00000000000E+00 0.  1.
          1   -1    0    0  501    0  0.00000000000E+00 -0.00000000000E+00 -0.19711487836E+03  0.19711487836E+03  0.00000000000E+00 0. -1.
         23    2    1    2    0    0  0.33539805497E+03  0.43322333665E+03  0.64686041883E+03  0.85283936720E+03  0.93446616282E+02 0.  0.
         11    1    3    3    0    0  0.26758348435E+03  0.30561534620E+03  0.52507916919E+03  0.66385977048E+03  0.00000000000E+00 0.  1.
        -11    1    3    3    0    0  0.67814570619E+02  0.12760799045E+03  0.12178124964E+03  0.18897959673E+03  0.00000000000E+00 0. -1.
         22    1    1    2    0    0 -0.33539805497E+03 -0.43322333665E+03  0.70314690856E+03  0.89139771692E+03  0.00000000000E+00 0. -1.
<mgrwt>
<rscale>  0 0.11044651E+04</rscale>
<asrwt>0</asrwt>
<pdfrwt beam="1">  1        1 0.30325367E-01 0.11044651E+04</pdfrwt>
<pdfrwt beam="2">  1       -1 0.23801879E+00 0.11044651E+04</pdfrwt>
<totfact> 0.12656609E+01</totfact>
</mgrwt>
</event>
<event>
 6    1  0.2047711E-005  0.2443906E+04  0.7818608E-02  0.8423246E-01
          2   -1    0    0  501    0  0.00000000000E+00  0.00000000000E+00  0.16424704563E+04  0.16424704563E+04  0.00000000000E+00 0. -1.
         -2   -1    0    0    0  501 -0.00000000000E+00 -0.00000000000E+00 -0.90909951548E+03  0.90909951548E+03  0.00000000000E+00 0.  1.
         23    2    1    2    0    0  0.99461039646E+03 -0.40760977377E+03  0.97025433285E+03  0.14508841357E+04  0.90971074171E+02 0.  0.
         11    1    3    3    0    0  0.57341001328E+03 -0.18976048520E+03  0.52068378773E+03  0.79744572974E+03  0.00000000000E+00 0. -1.
        -11    1    3    3    0    0  0.42120038318E+03 -0.21784928857E+03  0.44957054512E+03  0.65343840594E+03  0.00000000000E+00 0.  1.
         22    1    1    2    0    0 -0.99461039646E+03  0.40760977377E+03 -0.23688339200E+03  0.11006858361E+04  0.00000000000E+00 0.  1.
<mgrwt>
<rscale>  0 0.24439060E+04</rscale>
<asrwt>0</asrwt>
<pdfrwt beam="1">  1        2 0.25268776E+00 0.24439060E+04</pdfrwt>
<pdfrwt beam="2">  1       -2 0.13986146E+00 0.24439060E+04</pdfrwt>
<totfact> 0.34071260E+00</totfact>
</mgrwt>
</event>
<event>
 6    1  0.2047711E-005  0.1280202E+04  0.7818608E-02  0.9045415E-01
         -2   -1    0    0    0  501 -0.00000000000E+00  0.00000000000E+00  0.54886429499E+03  0.54886429499E+03  0.00000000000E+00 0. -1.
          2   -1    0    0  501    0  0.00000000000E+00 -0.00000000000E+00 -0.74650331453E+03  0.74650331453E+03  0.00000000000E+00 0.  1.
         23    2    1    2    0    0 -0.22513231320E+03 -0.31750416235E+03  0.41075912862E+03  0.57311989700E+03  0.90828976820E+02 0.  0.
         11    1    3    3    0    0 -0.66454679225E+02 -0.12458465308E+03  0.20797170092E+03  0.25137579151E+03  0.00000000000E+00 0.  1.
        -11    1    3    3    0    0 -0.15867763398E+03 -0.19291950927E+03  0.20278742770E+03  0.32174410548E+03  0.00000000000E+00 0. -1.
         22    1    1    2    0    0  0.22513231320E+03  0.31750416235E+03 -0.60839814816E+03  0.72224771252E+03  0.00000000000E+00 0.  1.
<mgrwt>
<rscale>  0 0.12802016E+04</rscale>
<asrwt>0</asrwt>
<pdfrwt beam="1">  1        2 0.11484666E+00 0.12802016E+04</pdfrwt>
<pdfrwt beam="2">  1       -2 0.84440661E-01 0.12802016E+04</pdfrwt>
<totfact> 0.45313651E+01</totfact>
</mgrwt>
</event>
<event>
 6    1  0.2047711E-005  0.1166852E+04  0.7818608E-02  0.9142377E-01
         -2   -1    0    0    0  501 -0.00000000000E+00  0.00000000000E+00  0.22891320774E+03  0.22891320774E+03  0.00000000000E+00 0.  1.
          2   -1    0    0  501    0  0.00000000000E+00 -0.00000000000E+00 -0.14869636853E+04  0.14869636853E+04  0.00000000000E+00 0. -1.
         23    2    1    2    0    0 -0.34371477735E+03  0.45670231602E+03 -0.77796569118E+03  0.96941975716E+03  0.88471437738E+02 0.  0.
         11    1    3    3    0    0 -0.12186281137E+03  0.19317995450E+03 -0.24623188788E+03  0.33585589503E+03  0.00000000000E+00 0. -1.
        -11    1    3    3    0    0 -0.22185196598E+03  0.26352236152E+03 -0.53173380330E+03  0.63356386213E+03  0.00000000000E+00 0.  1.
         22    1    1    2    0    0  0.34371477735E+03 -0.45670231602E+03 -0.48008478641E+03  0.74645713592E+03  0.00000000000E+00 0. -1.
<mgrwt>
<rscale>  0 0.11668515E+04</rscale>
<asrwt>0</asrwt>
<pdfrwt beam="1">  1        2 0.22876363E+00 0.11668515E+04</pdfrwt>
<pdfrwt beam="2">  1       -2 0.35217418E-01 0.11668515E+04</pdfrwt>
<totfact> 0.96588482E+01</totfact>
</mgrwt>
</event>
<event>
 6    1  0.2047711E-005  0.4620861E+04  0.7818608E-02  0.7889813E-01
         -2   -1    0    0    0  501 -0.00000000000E+00  0.00000000000E+00  0.28391734990E+04  0.28391734990E+04  0.00000000000E+00 0.  1.
          2   -1    0    0  501    0  0.00000000000E+00 -0.00000000000E+00 -0.18801558983E+04  0.18801558983E+04  0.00000000000E+00 0. -1.
         23    2    1    2    0    0 -0.10345333551E+04 -0.77251162388E+03  0.24354314414E+04  0.27579953357E+04  0.90435028154E+02 0.  0.
         13    1    3    3    0    0 -0.28957124639E+03 -0.18981698102E+03  0.58214883520E+03  0.67733245851E+03  0.00000000000E+00 0. -1.
        -13    1    3    3    0    0 -0.74496210874E+03 -0.58269464286E+03  0.18532826062E+04  0.20806628772E+04  0.00000000000E+00 0.  1.
         22    1    1    2    0    0  0.10345333551E+04  0.77251162388E+03 -0.14764138407E+04  0.19613340616E+04  0.00000000000E+00 0. -1.
<mgrwt>
<rscale>  0 0.46208609E+04</rscale>
<asrwt>0</asrwt>
<pdfrwt beam="1">  1        2 0.28925475E+00 0.46208609E+04</pdfrwt>
<pdfrwt beam="2">  1       -2 0.43679592E+00 0.46208609E+04</pdfrwt>
<totfact> 0.24835565E-02</totfact>
</mgrwt>
</event>
<event>
 6    1  0.2047711E-005  0.1454037E+04  0.7818608E-02  0.8915607E-01
          2   -1    0    0  501    0  0.00000000000E+00  0.00000000000E+00  0.72480266580E+03  0.72480266580E+03  0.00000000000E+00 0. -1.
         -2   -1    0    0    0  501 -0.00000000000E+00 -0.00000000000E+00 -0.72924080807E+03  0.72924080807E+03  0.00000000000E+00 0.  1.
         23    2    1    2    0    0 -0.33928014702E+03 -0.62577614108E+03  0.13113560734E+03  0.72941457679E+03  0.90234585524E+02 0.  0.
         11    1    3    3    0    0 -0.11496526574E+03 -0.24915413301E+03  0.91551752767E+02  0.28926893673E+03  0.00000000000E+00 0.  1.
        -11    1    3    3    0    0 -0.22431488128E+03 -0.37662200806E+03  0.39583854570E+02  0.44014564006E+03  0.00000000000E+00 0. -1.
         22    1    1    2    0    0  0.33928014702E+03  0.62577614108E+03 -0.13557374960E+03  0.72462889708E+03  0.00000000000E+00 0. -1.
<mgrwt>
<rscale>  0 0.14540367E+04</rscale>
<asrwt>0</asrwt>
<pdfrwt beam="1">  1        2 0.11150810E+00 0.14540367E+04</pdfrwt>
<pdfrwt beam="2">  1       -2 0.11219089E+00 0.14540367E+04</pdfrwt>
<totfact> 0.23797834E+01</totfact>
</mgrwt>
</event>
<event>
 6    1  0.2047711E-005  0.1353013E+04  0.7818608E-02  0.8988550E-01
          1   -1    0    0  501    0  0.00000000000E+00  0.00000000000E+00  0.14291692228E+04  0.14291692228E+04  0.00000000000E+00 0. -1.
         -1   -1    0    0    0  501 -0.00000000000E+00 -0.00000000000E+00 -0.32022880544E+03  0.32022880544E+03  0.00000000000E+00 0.  1.
         23    2    1    2    0    0 -0.13325745019E+03  0.39958206094E+03  0.12364133950E+04  0.13093153866E+04  0.90362198495E+02 0.  0.
         11    1    3    3    0    0 -0.12216680072E+03  0.29425177193E+03  0.10158486355E+04  0.10646395083E+04  0.00000000000E+00 0.  1.
        -11    1    3    3    0    0 -0.11090649475E+02  0.10533028901E+03  0.22056475948E+03  0.24467587828E+03  0.00000000000E+00 0. -1.
         22    1    1    2    0    0  0.13325745019E+03 -0.39958206094E+03 -0.12747297759E+03  0.44008264164E+03  0.00000000000E+00 0.  1.
<mgrwt>
<rscale>  0 0.13530132E+04</rscale>
<asrwt>0</asrwt>
<pdfrwt beam="1">  1        1 0.21987218E+00 0.13530132E+04</pdfrwt>
<pdfrwt beam="2">  1       -1 0.49265971E-01 0.13530132E+04</pdfrwt>
<totfact> 0.29607117E+01</totfact>
</mgrwt>
</event>
<event>
 6    1  0.2047711E-005  0.2195315E+04  0.7818608E-02  0.8520381E-01
         -2   -1    0    0    0  501 -0.00000000000E+00  0.00000000000E+00  0.94966341655E+03  0.94966341655E+03  0.00000000000E+00 0.  1.
          2   -1    0    0  501    0  0.00000000000E+00 -0.00000000000E+00 -0.12687150512E+04  0.12687150512E+04  0.00000000000E+00 0. -1.
         23    2    1    2    0    0 -0.10878143420E+04 -0.96095765601E+02 -0.25112434712E+03  0.11242173484E+04  0.90701542827E+02 0.  0.
         13    1    3    3    0    0 -0.87593854432E+03 -0.41604199219E+02 -0.20744762842E+03  0.90112915908E+03  0.00000000000E+00 0.  1.
        -13    1    3    3    0    0 -0.21187579768E+03 -0.54491566382E+02 -0.43676718697E+02  0.22308818930E+03  0.00000000000E+00 0. -1.
         22    1    1    2    0    0  0.10878143420E+04  0.96095765601E+02 -0.67927287572E+02  0.10941611194E+04  0.00000000000E+00 0.  1.
<mgrwt>
<rscale>  0 0.21953153E+04</rscale>
<asrwt>0</asrwt>
<pdfrwt beam="1">  1        2 0.19518693E+00 0.21953153E+04</pdfrwt>
<pdfrwt beam="2">  1       -2 0.14610207E+00 0.21953153E+04</pdfrwt>
<totfact> 0.50655608E+00</totfact>
</mgrwt>
</event>
<event>
 6    1  0.2047711E-005  0.3264150E+04  0.7818608E-02  0.8172078E-01
         -2   -1    0    0    0  501 -0.00000000000E+00  0.00000000000E+00  0.18517873397E+04  0.18517873397E+04  0.00000000000E+00 0.  1.
          2   -1    0    0  501    0  0.00000000000E+00 -0.00000000000E+00 -0.14384309247E+04  0.14384309247E+04  0.00000000000E+00 0. -1.
         23    2    1    2    0    0 -0.63337780982E+02  0.11728205424E+04  0.13468598498E+04  0.17899021770E+04  0.10098836059E+03 0.  0.
         11    1    3    3    0    0  0.11396894985E+02  0.18384567102E+03  0.16774608286E+03  0.24913423748E+03  0.00000000000E+00 0.  1.
        -11    1    3    3    0    0 -0.74734675968E+02  0.98897487143E+03  0.11791137669E+04  0.15407679395E+04  0.00000000000E+00 0. -1.
         22    1    1    2    0    0  0.63337780982E+02 -0.11728205424E+04 -0.93350343476E+03  0.15003160874E+04  0.00000000000E+00 0. -1.
<mgrwt>
<rscale>  0 0.32641496E+04</rscale>
<asrwt>0</asrwt>
<pdfrwt beam="1">  1        2 0.22129706E+00 0.32641496E+04</pdfrwt>
<pdfrwt beam="2">  1       -2 0.28489036E+00 0.32641496E+04</pdfrwt>
<totfact> 0.45303994E-01</totfact>
</mgrwt>
</event>
<event>
 6    1  0.2412669E-005  0.4990129E+04  0.7818608E-02  0.7830032E-01
          2   -1    0    0  501    0  0.00000000000E+00  0.00000000000E+00  0.28121172948E+04  0.28121172948E+04  0.00000000000E+00 0. -1.
         -2   -1    0    0    0  501 -0.00000000000E+00 -0.00000000000E+00 -0.22137578034E+04  0.22137578034E+04  0.00000000000E+00 0.  1.
         23    2    1    2    0    0  0.35803256841E+03 -0.26009339820E+03  0.27715364158E+04  0.28080983194E+04  0.90366873526E+02 0.  0.
         11    1    3    3    0    0  0.12073043110E+03 -0.37839849571E+02  0.78679998607E+03  0.79690771692E+03  0.00000000000E+00 0.  1.
        -11    1    3    3    0    0  0.23730213731E+03 -0.22225354863E+03  0.19847364297E+04  0.20111906025E+04  0.00000000000E+00 0. -1.
         22    1    1    2    0    0 -0.35803256841E+03  0.26009339820E+03 -0.21731769244E+04  0.22177767788E+04  0.00000000000E+00 0.  1.
<mgrwt>
<rscale>  0 0.49901289E+04</rscale>
<asrwt>0</asrwt>
<pdfrwt beam="1">  1        2 0.43263343E+00 0.49901289E+04</pdfrwt>
<pdfrwt beam="2">  1       -2 0.34057812E+00 0.49901289E+04</pdfrwt>
<totfact> 0.29534479E-02</totfact>
</mgrwt>
</event>
<event>
 6    1  0.2047711E-005  0.1901287E+04  0.7818608E-02  0.8654216E-01
         -2   -1    0    0    0  501 -0.00000000000E+00  0.00000000000E+00  0.70576582093E+03  0.70576582093E+03  0.00000000000E+00 0.  1.
          2   -1    0    0  501    0  0.00000000000E+00 -0.00000000000E+00 -0.12804855939E+04  0.12804855939E+04  0.00000000000E+00 0. -1.
         23    2    1    2    0    0 -0.83768317481E+03 -0.12920187367E+03  0.15668768946E+03  0.86671441159E+03  0.90755791607E+02 0.  0.
         11    1    3    3    0    0 -0.53103049856E+03 -0.10242155603E+03  0.60365585028E+02  0.54417604633E+03  0.00000000000E+00 0. -1.
        -11    1    3    3    0    0 -0.30665267625E+03 -0.26780317643E+02  0.96322104436E+02  0.32253836526E+03  0.00000000000E+00 0.  1.
         22    1    1    2    0    0  0.83768317481E+03  0.12920187367E+03 -0.73140746240E+03  0.11195370032E+04  0.00000000000E+00 0. -1.
<mgrwt>
<rscale>  0 0.19012869E+04</rscale>
<asrwt>0</asrwt>
<pdfrwt beam="1">  1        2 0.19699778E+00 0.19012869E+04</pdfrwt>
<pdfrwt beam="2">  1       -2 0.10857936E+00 0.19012869E+04</pdfrwt>
<totfact> 0.10778142E+01</totfact>
</mgrwt>
</event>
<event>
 6    1  0.2047711E-005  0.3210474E+04  0.7818608E-02  0.8186057E-01
          1   -1    0    0  501    0  0.00000000000E+00  0.00000000000E+00  0.25717948491E+04  0.25717948491E+04  0.00000000000E+00 0. -1.
         -1   -1    0    0    0  501 -0.00000000000E+00 -0.00000000000E+00 -0.10019404291E+04  0.10019404291E+04  0.00000000000E+00 0.  1.
         23    2    1    2    0    0 -0.24299654539E+03  0.14053021561E+04  0.16026610877E+04  0.21472018057E+04  0.89618978699E+02 0.  0.
         11    1    3    3    0    0 -0.20742112448E+03  0.10066788705E+04  0.11181523550E+04  0.15187792994E+04  0.00000000000E+00 0. -1.
        -11    1    3    3    0    0 -0.35575420902E+02  0.39862328553E+03  0.48450873270E+03  0.62842250628E+03  0.00000000000E+00 0.  1.
         22    1    1    2    0    0  0.24299654539E+03 -0.14053021561E+04 -0.32806667632E+02  0.14265334726E+04  0.00000000000E+00 0.  1.
<mgrwt>
<rscale>  0 0.32104736E+04</rscale>
<asrwt>0</asrwt>
<pdfrwt beam="1">  1        1 0.39566074E+00 0.32104736E+04</pdfrwt>
<pdfrwt beam="2">  1       -1 0.15414468E+00 0.32104736E+04</pdfrwt>
<totfact> 0.32688629E-01</totfact>
</mgrwt>
</event>
<event>
 6    1  0.2047711E-005  0.3208063E+04  0.7818608E-02  0.8186691E-01
         -2   -1    0    0    0  501 -0.00000000000E+00  0.00000000000E+00  0.19342187495E+04  0.19342187495E+04  0.00000000000E+00 0.  1.
          2   -1    0    0  501    0  0.00000000000E+00 -0.00000000000E+00 -0.13302103273E+04  0.13302103273E+04  0.00000000000E+00 0. -1.
         23    2    1    2    0    0 -0.10931905862E+03 -0.82375523973E+03  0.16968573796E+04  0.18915335253E+04  0.89726021025E+02 0.  0.
         11    1    3    3    0    0 -0.52304554908E+02 -0.66337983891E+03  0.13659640004E+04  0.15194295731E+04  0.00000000000E+00 0. -1.
        -11    1    3    3    0    0 -0.57014503714E+02 -0.16037540082E+03  0.33089337921E+03  0.37210395218E+03  0.00000000000E+00 0.  1.
         22    1    1    2    0    0  0.10931905862E+03  0.82375523973E+03 -0.10928489574E+04  0.13728955515E+04  0.00000000000E+00 0. -1.
<mgrwt>
<rscale>  0 0.32080634E+04</rscale>
<asrwt>0</asrwt>
<pdfrwt beam="1">  1        2 0.20464774E+00 0.32080634E+04</pdfrwt>
<pdfrwt beam="2">  1       -2 0.29757212E+00 0.32080634E+04</pdfrwt>
<totfact> 0.43933949E-01</totfact>
</mgrwt>
</event>
<event>
 6    1  0.2047711E-005  0.3663960E+04  0.7818608E-02  0.8075996E-01
         -2   -1    0    0    0  501 -0.00000000000E+00  0.00000000000E+00  0.11016660394E+04  0.11016660394E+04  0.00000000000E+00 0.  1.
          2   -1    0    0  501    0  0.00000000000E+00 -0.00000000000E+00 -0.30464328622E+04  0.30464328622E+04  0.00000000000E+00 0. -1.
         23    2    1    2    0    0 -0.12343256596E+04  0.10077648222E+04 -0.19937446461E+04  0.25538753923E+04  0.90066833401E+02 0.  0.
         13    1    3    3    0    0 -0.80597724499E+03  0.70898339388E+03 -0.13168915041E+04  0.16989585062E+04  0.00000000000E+00 0. -1.
        -13    1    3    3    0    0 -0.42834841461E+03  0.29878142831E+03 -0.67685314199E+03  0.85491688604E+03  0.00000000000E+00 0.  1.
         22    1    1    2    0    0  0.12343256596E+04 -0.10077648222E+04  0.48977823349E+02  0.15942235094E+04  0.00000000000E+00 0.  1.
<mgrwt>
<rscale>  0 0.36639605E+04</rscale>
<asrwt>0</asrwt>
<pdfrwt beam="1">  1        2 0.46868197E+00 0.36639605E+04</pdfrwt>
<pdfrwt beam="2">  1       -2 0.16948708E+00 0.36639605E+04</pdfrwt>
<totfact> 0.28343981E-01</totfact>
</mgrwt>
</event>
<event>
 6    1  0.2047711E-005  0.5583906E+03  0.7818608E-02  0.9995703E-01
         -2   -1    0    0    0  501 -0.00000000000E+00  0.00000000000E+00  0.42897121021E+03  0.42897121021E+03  0.00000000000E+00 0.  1.
          2   -1    0    0  501    0  0.00000000000E+00 -0.00000000000E+00 -0.18171388458E+03  0.18171388458E+03  0.00000000000E+00 0. -1.
         23    2    1    2    0    0 -0.73856484174E+02 -0.25441669315E+03  0.60269477607E+02  0.28642117556E+03  0.90675497633E+02 0.  0.
         11    1    3    3    0    0 -0.88866256285E+02 -0.18037781934E+03  0.63320037008E+02  0.21081460173E+03  0.00000000000E+00 0.  1.
        -11    1    3    3    0    0  0.15009772111E+02 -0.74038873806E+02 -0.30505594006E+01  0.75606573827E+02  0.00000000000E+00 0. -1.
         22    1    1    2    0    0  0.73856484174E+02  0.25441669315E+03  0.18698784802E+03  0.32426391923E+03  0.00000000000E+00 0.  1.
<mgrwt>
<rscale>  0 0.55839063E+03</rscale>
<asrwt>0</asrwt>
<pdfrwt beam="1">  1        2 0.27955982E-01 0.55839063E+03</pdfrwt>
<pdfrwt beam="2">  1       -2 0.65995570E-01 0.55839063E+03</pdfrwt>
<totfact> 0.41132052E+02</totfact>
</mgrwt>
</event>
<event>
 6    1  0.2047711E-005  0.2986134E+04  0.7818608E-02  0.8247701E-01
         -2   -1    0    0    0  501 -0.00000000000E+00  0.00000000000E+00  0.79324160913E+03  0.79324160913E+03  0.00000000000E+00 0.  1.
          2   -1    0    0  501    0  0.00000000000E+00 -0.00000000000E+00 -0.28103031407E+04  0.28103031407E+04  0.00000000000E+00 0. -1.
         23    2    1    2    0    0 -0.38836408483E+03 -0.61025686301E+03  0.56477352843E+03  0.92229273291E+03  0.91731376906E+02 0.  0.
         13    1    3    3    0    0 -0.31696351867E+03 -0.42183783445E+03  0.41009249700E+03  0.66827306308E+03  0.00000000000E+00 0. -1.
        -13    1    3    3    0    0 -0.71400566158E+02 -0.18841902857E+03  0.15468103143E+03  0.25401966983E+03  0.00000000000E+00 0.  1.
         22    1    1    2    0    0  0.38836408483E+03  0.61025686301E+03 -0.25818350600E+04  0.26812520170E+04  0.00000000000E+00 0. -1.
<mgrwt>
<rscale>  0 0.29861342E+04</rscale>
<asrwt>0</asrwt>
<pdfrwt beam="1">  1        2 0.43235432E+00 0.29861342E+04</pdfrwt>
<pdfrwt beam="2">  1       -2 0.12203717E+00 0.29861342E+04</pdfrwt>
<totfact> 0.99419219E-01</totfact>
</mgrwt>
</event>
<event>
 6    1  0.2047711E-005  0.1950427E+04  0.7818608E-02  0.8630155E-01
          1   -1    0    0  501    0  0.00000000000E+00  0.00000000000E+00  0.13077082576E+04  0.13077082576E+04  0.00000000000E+00 0. -1.
         -1   -1    0    0    0  501 -0.00000000000E+00 -0.00000000000E+00 -0.72725821135E+03  0.72725821135E+03  0.00000000000E+00 0.  1.
         23    2    1    2    0    0  0.57306359285E+03  0.53456472414E+03 -0.31122340407E+03  0.84785111323E+03  0.88488288642E+02 0.  0.
         13    1    3    3    0    0  0.36435774881E+03  0.34719300696E+03 -0.24456474845E+03  0.55956364194E+03  0.00000000000E+00 0.  1.
        -13    1    3    3    0    0  0.20870584403E+03  0.18737171718E+03 -0.66658655625E+02  0.28828747129E+03  0.00000000000E+00 0. -1.
         22    1    1    2    0    0 -0.57306359285E+03 -0.53456472414E+03  0.89167345030E+03  0.11871153557E+04  0.00000000000E+00 0. -1.
<mgrwt>
<rscale>  0 0.19504272E+04</rscale>
<asrwt>0</asrwt>
<pdfrwt beam="1">  1        1 0.20118589E+00 0.19504272E+04</pdfrwt>
<pdfrwt beam="2">  1       -1 0.11188588E+00 0.19504272E+04</pdfrwt>
<totfact> 0.60992449E+00</totfact>
</mgrwt>
</event>
<event>
 6    1  0.2047711E-005  0.1064702E+04  0.7818608E-02  0.9240296E-01
          2   -1    0    0  501    0  0.00000000000E+00  0.00000000000E+00  0.18119591572E+04  0.18119591572E+04  0.00000000000E+00 0. -1.
         -2   -1    0    0    0  501 -0.00000000000E+00 -0.00000000000E+00 -0.15640392064E+03  0.15640392064E+03  0.00000000000E+00 0.  1.
         23    2    1    2    0    0 -0.25977583182E+03 -0.44046849513E+03  0.10799919042E+04  0.11984480646E+04  0.91647544919E+02 0.  0.
         11    1    3    3    0    0 -0.95153908239E+02 -0.24720517403E+03  0.58373789133E+03  0.64102620079E+03  0.00000000000E+00 0. -1.
        -11    1    3    3    0    0 -0.16462192359E+03 -0.19326332110E+03  0.49625401286E+03  0.55742186384E+03  0.00000000000E+00 0.  1.
         22    1    1    2    0    0  0.25977583182E+03  0.44046849513E+03  0.57556333237E+03  0.76991501321E+03  0.00000000000E+00 0. -1.
<mgrwt>
<rscale>  0 0.10647019E+04</rscale>
<asrwt>0</asrwt>
<pdfrwt beam="1">  1        2 0.27876293E+00 0.10647019E+04</pdfrwt>
<pdfrwt beam="2">  1       -2 0.24062143E-01 0.10647019E+04</pdfrwt>
<totfact> 0.13009378E+02</totfact>
</mgrwt>
</event>
<event>
 6    1  0.2047711E-005  0.4035001E+03  0.7818608E-02  0.1042574E+00
          4   -1    0    0  501    0  0.00000000000E+00  0.00000000000E+00  0.39943940511E+02  0.39943940511E+02  0.00000000000E+00 0. -1.
         -4   -1    0    0    0  501 -0.00000000000E+00 -0.00000000000E+00 -0.10190051085E+04  0.10190051085E+04  0.00000000000E+00 0.  1.
         23    2    1    2    0    0  0.13558317388E+02 -0.14286794869E+02 -0.10143566670E+04  0.10185298367E+04  0.89975773230E+02 0.  0.
         11    1    3    3    0    0  0.33856793834E+02  0.62756294312E+01 -0.89728161728E+03  0.89794207314E+03  0.00000000000E+00 0. -1.
        -11    1    3    3    0    0 -0.20298476446E+02 -0.20562424300E+02 -0.11707504975E+03  0.12058776353E+03  0.00000000000E+00 0.  1.
         22    1    1    2    0    0 -0.13558317388E+02  0.14286794869E+02  0.35295499011E+02  0.40419212368E+02  0.00000000000E+00 0. -1.
<mgrwt>
<rscale>  0 0.40350008E+03</rscale>
<asrwt>0</asrwt>
<pdfrwt beam="1">  1        4 0.61452217E-02 0.40350008E+03</pdfrwt>
<pdfrwt beam="2">  1       -4 0.15677001E+00 0.40350008E+03</pdfrwt>
<totfact> 0.92576345E+01</totfact>
</mgrwt>
</event>
<event>
 6    1  0.2047711E-005  0.3788671E+04  0.7818608E-02  0.8048590E-01
          2   -1    0    0  501    0  0.00000000000E+00  0.00000000000E+00  0.20443734807E+04  0.20443734807E+04  0.00000000000E+00 0. -1.
         -2   -1    0    0    0  501 -0.00000000000E+00 -0.00000000000E+00 -0.17553088504E+04  0.17553088504E+04  0.00000000000E+00 0.  1.
         23    2    1    2    0    0  0.15810012142E+04  0.43645029825E+03 -0.80373720827E+03  0.18288272982E+04  0.92531531448E+02 0.  0.
         13    1    3    3    0    0  0.10589368036E+04  0.30633354982E+03 -0.58569880347E+03  0.12482910262E+04  0.00000000000E+00 0. -1.
        -13    1    3    3    0    0  0.52206441066E+03  0.13011674842E+03 -0.21803840480E+03  0.58053627196E+03  0.00000000000E+00 0.  1.
         22    1    1    2    0    0 -0.15810012142E+04 -0.43645029825E+03  0.10928018386E+04  0.19708550329E+04  0.00000000000E+00 0. -1.
<mgrwt>
<rscale>  0 0.37886709E+04</rscale>
<asrwt>0</asrwt>
<pdfrwt beam="1">  1        2 0.31451900E+00 0.37886709E+04</pdfrwt>
<pdfrwt beam="2">  1       -2 0.27004751E+00 0.37886709E+04</pdfrwt>
<totfact> 0.24535466E-01</totfact>
</mgrwt>
</event>
<event>
 6    1  0.2047711E-005  0.2612548E+04  0.7818608E-02  0.8363951E-01
         -2   -1    0    0    0  501 -0.00000000000E+00  0.00000000000E+00  0.99551373402E+03  0.99551373402E+03  0.00000000000E+00 0.  1.
          2   -1    0    0  501    0  0.00000000000E+00 -0.00000000000E+00 -0.17140417902E+04  0.17140417902E+04  0.00000000000E+00 0. -1.
         23    2    1    2    0    0 -0.15520868728E+03 -0.65083891120E+03  0.80179883568E+03  0.10485092025E+04  0.93857071199E+02 0.  0.
         13    1    3    3    0    0 -0.10615139850E+03 -0.29696194056E+03  0.32677100026E+03  0.45412971732E+03  0.00000000000E+00 0.  1.
        -13    1    3    3    0    0 -0.49057288778E+02 -0.35387697064E+03  0.47502783542E+03  0.59437948514E+03  0.00000000000E+00 0. -1.
         22    1    1    2    0    0  0.15520868728E+03  0.65083891120E+03 -0.15203268918E+04  0.16610463218E+04  0.00000000000E+00 0. -1.
<mgrwt>
<rscale>  0 0.26125483E+04</rscale>
<asrwt>0</asrwt>
<pdfrwt beam="1">  1        2 0.26369873E+00 0.26125483E+04</pdfrwt>
<pdfrwt beam="2">  1       -2 0.15315596E+00 0.26125483E+04</pdfrwt>
<totfact> 0.24129966E+00</totfact>
</mgrwt>
</event>
<event>
 6    1  0.2047711E-005  0.1984017E+04  0.7818608E-02  0.8614130E-01
         -2   -1    0    0    0  501 -0.00000000000E+00  0.00000000000E+00  0.78314146702E+03  0.78314146702E+03  0.00000000000E+00 0.  1.
          2   -1    0    0  501    0  0.00000000000E+00 -0.00000000000E+00 -0.12565808624E+04  0.12565808624E+04  0.00000000000E+00 0. -1.
         23    2    1    2    0    0 -0.33605777239E+03  0.33083154276E+03  0.65737016633E+03  0.81452250861E+03  0.94483042811E+02 0.  0.
         13    1    3    3    0    0 -0.14087722252E+03  0.77618117135E+02  0.23582231486E+03  0.28545249714E+03  0.00000000000E+00 0.  1.
        -13    1    3    3    0    0 -0.19518054987E+03  0.25321342562E+03  0.42154785146E+03  0.52907001147E+03  0.00000000000E+00 0. -1.
         22    1    1    2    0    0  0.33605777239E+03 -0.33083154276E+03 -0.11308095617E+04  0.12251998208E+04  0.00000000000E+00 0. -1.
<mgrwt>
<rscale>  0 0.19840167E+04</rscale>
<asrwt>0</asrwt>
<pdfrwt beam="1">  1        2 0.19332013E+00 0.19840167E+04</pdfrwt>
<pdfrwt beam="2">  1       -2 0.12048330E+00 0.19840167E+04</pdfrwt>
<totfact> 0.85746718E+00</totfact>
</mgrwt>
</event>
<event>
 6    1  0.2047711E-005  0.1972081E+04  0.7818608E-02  0.8619786E-01
         -2   -1    0    0    0  501 -0.00000000000E+00  0.00000000000E+00  0.38208770144E+03  0.38208770144E+03  0.00000000000E+00 0.  1.
          2   -1    0    0  501    0  0.00000000000E+00 -0.00000000000E+00 -0.25446397132E+04  0.25446397132E+04  0.00000000000E+00 0. -1.
         23    2    1    2    0    0 -0.44621690983E+03  0.63577841727E+03 -0.19796536339E+04  0.21287452450E+04  0.95937903553E+02 0.  0.
         11    1    3    3    0    0 -0.13557109462E+03  0.25783448106E+03 -0.66460160754E+03  0.72564001962E+03  0.00000000000E+00 0.  1.
        -11    1    3    3    0    0 -0.31064581520E+03  0.37794393621E+03 -0.13150520263E+04  0.14031052253E+04  0.00000000000E+00 0. -1.
         22    1    1    2    0    0  0.44621690983E+03 -0.63577841727E+03 -0.18289837787E+03  0.79798216967E+03  0.00000000000E+00 0.  1.
<mgrwt>
<rscale>  0 0.19720807E+04</rscale>
<asrwt>0</asrwt>
<pdfrwt beam="1">  1        2 0.39148303E+00 0.19720807E+04</pdfrwt>
<pdfrwt beam="2">  1       -2 0.58782723E-01 0.19720807E+04</pdfrwt>
<totfact> 0.82640827E+00</totfact>
</mgrwt>
</event>
<event>
 6    1  0.2047711E-005  0.1821063E+04  0.7818608E-02  0.8695178E-01
         -2   -1    0    0    0  501 -0.00000000000E+00  0.00000000000E+00  0.41664714592E+03  0.41664714592E+03  0.00000000000E+00 0.  1.
          2   -1    0    0  501    0  0.00000000000E+00 -0.00000000000E+00 -0.19898553725E+04  0.19898553725E+04  0.00000000000E+00 0. -1.
         23    2    1    2    0    0  0.11514978589E+03 -0.42424363882E+03 -0.18382255814E+04  0.18932030574E+04  0.10909807573E+03 0.  0.
         13    1    3    3    0    0  0.29790009417E+02 -0.17794449585E+03 -0.97211068668E+03  0.98871172513E+03  0.00000000000E+00 0.  1.
        -13    1    3    3    0    0  0.85359776477E+02 -0.24629914296E+03 -0.86611489473E+03  0.90449133226E+03  0.00000000000E+00 0. -1.
         22    1    1    2    0    0 -0.11514978589E+03  0.42424363882E+03  0.26501735487E+03  0.51329946099E+03  0.00000000000E+00 0.  1.
<mgrwt>
<rscale>  0 0.18210629E+04</rscale>
<asrwt>0</asrwt>
<pdfrwt beam="1">  1        2 0.30613160E+00 0.18210629E+04</pdfrwt>
<pdfrwt beam="2">  1       -2 0.64099561E-01 0.18210629E+04</pdfrwt>
<totfact> 0.14350478E+01</totfact>
</mgrwt>
</event>
<event>
 6    1  0.2047711E-005  0.1974668E+04  0.7818608E-02  0.8618556E-01
         -2   -1    0    0    0  501 -0.00000000000E+00  0.00000000000E+00  0.21257941882E+03  0.21257941882E+03  0.00000000000E+00 0.  1.
          2   -1    0    0  501    0  0.00000000000E+00 -0.00000000000E+00 -0.45857151711E+04  0.45857151711E+04  0.00000000000E+00 0. -1.
         23    2    1    2    0    0 -0.15284344823E+03 -0.96487499977E+03 -0.25014663769E+04  0.26870174562E+04  0.91563584453E+02 0.  0.
         13    1    3    3    0    0 -0.85218754580E+02 -0.72405777814E+03 -0.17851500956E+04  0.19282849286E+04  0.00000000000E+00 0. -1.
        -13    1    3    3    0    0 -0.67624693647E+02 -0.24081722163E+03 -0.71631628135E+03  0.75873252755E+03  0.00000000000E+00 0.  1.
         22    1    1    2    0    0  0.15284344823E+03  0.96487499977E+03 -0.18716693753E+04  0.21112771337E+04  0.00000000000E+00 0. -1.
<mgrwt>
<rscale>  0 0.19746682E+04</rscale>
<asrwt>0</asrwt>
<pdfrwt beam="1">  1        2 0.70549466E+00 0.19746682E+04</pdfrwt>
<pdfrwt beam="2">  1       -2 0.32704525E-01 0.19746682E+04</pdfrwt>
<totfact> 0.83563142E-01</totfact>
</mgrwt>
</event>
<event>
 6    1  0.2047711E-005  0.5970446E+04  0.7818608E-02  0.7694077E-01
         -2   -1    0    0    0  501 -0.00000000000E+00  0.00000000000E+00  0.25514327629E+04  0.25514327629E+04  0.00000000000E+00 0. -1.
          2   -1    0    0  501    0  0.00000000000E+00 -0.00000000000E+00 -0.34927658453E+04  0.34927658453E+04  0.00000000000E+00 0.  1.
         23    2    1    2    0    0  0.41307335847E+03  0.11567956874E+04 -0.32244184572E+04  0.34516545506E+04  0.90768320221E+02 0.  0.
         13    1    3    3    0    0  0.54254126624E+02  0.20655055288E+03 -0.64581645918E+03  0.68020992355E+03  0.00000000000E+00 0. -1.
        -13    1    3    3    0    0  0.35881923184E+03  0.95024513449E+03 -0.25786019980E+04  0.27714446271E+04  0.00000000000E+00 0.  1.
         22    1    1    2    0    0 -0.41307335847E+03 -0.11567956874E+04  0.22830853748E+04  0.25925440575E+04  0.00000000000E+00 0. -1.
<mgrwt>
<rscale>  0 0.59704463E+04</rscale>
<asrwt>0</asrwt>
<pdfrwt beam="1">  1        2 0.53734859E+00 0.59704463E+04</pdfrwt>
<pdfrwt beam="2">  1       -2 0.39252812E+00 0.59704463E+04</pdfrwt>
<totfact> 0.46031520E-03</totfact>
</mgrwt>
</event>
<event>
 6    1  0.2047711E-005  0.2960880E+04  0.7818608E-02  0.8254991E-01
         -2   -1    0    0    0  501 -0.00000000000E+00  0.00000000000E+00  0.23878415206E+04  0.23878415206E+04  0.00000000000E+00 0.  1.
          2   -1    0    0  501    0  0.00000000000E+00 -0.00000000000E+00 -0.91785942883E+03  0.91785942883E+03  0.00000000000E+00 0. -1.
         23    2    1    2    0    0 -0.51132578214E+03  0.72428138574E+03  0.20574452187E+04  0.22421453530E+04  0.89985414151E+02 0.  0.
         13    1    3    3    0    0 -0.42873421223E+03  0.61228503359E+03  0.18097910228E+04  0.19580729132E+04  0.00000000000E+00 0. -1.
        -13    1    3    3    0    0 -0.82591569910E+02  0.11199635214E+03  0.24765419590E+03  0.28407243981E+03  0.00000000000E+00 0.  1.
         22    1    1    2    0    0  0.51132578214E+03 -0.72428138574E+03 -0.58746312694E+03  0.10635555964E+04  0.00000000000E+00 0. -1.
<mgrwt>
<rscale>  0 0.29608802E+04</rscale>
<asrwt>0</asrwt>
<pdfrwt beam="1">  1        2 0.14120914E+00 0.29608802E+04</pdfrwt>
<pdfrwt beam="2">  1       -2 0.36736023E+00 0.29608802E+04</pdfrwt>
<totfact> 0.29552473E-01</totfact>
</mgrwt>
</event>
<event>
 6    1  0.2047711E-005  0.2922753E+04  0.7818608E-02  0.8266140E-01
         -2   -1    0    0    0  501 -0.00000000000E+00  0.00000000000E+00  0.75576005762E+03  0.75576005762E+03  0.00000000000E+00 0.  1.
          2   -1    0    0  501    0  0.00000000000E+00 -0.00000000000E+00 -0.28257923521E+04  0.28257923521E+04  0.00000000000E+00 0. -1.
         23    2    1    2    0    0 -0.13798136642E+04 -0.46047945453E+03 -0.11883788272E+04  0.18805997613E+04  0.92109440238E+02 0.  0.
         11    1    3    3    0    0 -0.85503504538E+03 -0.30548601898E+03 -0.68899834583E+03  0.11397918043E+04  0.00000000000E+00 0.  1.
        -11    1    3    3    0    0 -0.52477861884E+03 -0.15499343556E+03 -0.49938048140E+03  0.74080795694E+03  0.00000000000E+00 0. -1.
         22    1    1    2    0    0  0.13798136642E+04  0.46047945453E+03 -0.88165346725E+03  0.17009526485E+04  0.00000000000E+00 0. -1.
<mgrwt>
<rscale>  0 0.29227528E+04</rscale>
<asrwt>0</asrwt>
<pdfrwt beam="1">  1        2 0.43473728E+00 0.29227528E+04</pdfrwt>
<pdfrwt beam="2">  1       -2 0.11627078E+00 0.29227528E+04</pdfrwt>
<totfact> 0.11024805E+00</totfact>
</mgrwt>
</event>
<event>
 6    1  0.2047711E-005  0.1460739E+04  0.7818608E-02  0.8910989E-01
          2   -1    0    0  501    0  0.00000000000E+00  0.00000000000E+00  0.17476150678E+04  0.17476150678E+04  0.00000000000E+00 0. -1.
         -2   -1    0    0    0  501 -0.00000000000E+00 -0.00000000000E+00 -0.30523852740E+03  0.30523852740E+03  0.00000000000E+00 0.  1.
         23    2    1    2    0    0 -0.48115756180E+03  0.51447672344E+03  0.46820215618E+03  0.85068279657E+03  0.90824352906E+02 0.  0.
         11    1    3    3    0    0 -0.35184160296E+03  0.32062177600E+03  0.33728629236E+03  0.58339770297E+03  0.00000000000E+00 0.  1.
        -11    1    3    3    0    0 -0.12931595885E+03  0.19385494744E+03  0.13091586381E+03  0.26728509359E+03  0.00000000000E+00 0. -1.
         22    1    1    2    0    0  0.48115756180E+03 -0.51447672344E+03  0.97417438427E+03  0.12021707987E+04  0.00000000000E+00 0. -1.
<mgrwt>
<rscale>  0 0.14607388E+04</rscale>
<asrwt>0</asrwt>
<pdfrwt beam="1">  1        2 0.26886385E+00 0.14607388E+04</pdfrwt>
<pdfrwt beam="2">  1       -2 0.46959774E-01 0.14607388E+04</pdfrwt>
<totfact> 0.38428869E+01</totfact>
</mgrwt>
</event>
<event>
 6    1  0.2047711E-005  0.2460886E+04  0.7818608E-02  0.8417054E-01
         -2   -1    0    0    0  501 -0.00000000000E+00  0.00000000000E+00  0.49283357839E+03  0.49283357839E+03  0.00000000000E+00 0.  1.
          2   -1    0    0  501    0  0.00000000000E+00 -0.00000000000E+00 -0.30720105384E+04  0.30720105384E+04  0.00000000000E+00 0. -1.
         23    2    1    2    0    0  0.10000351022E+03 -0.14941807817E+03 -0.30521565195E+04  0.30588439904E+04  0.92415766879E+02 0.  0.
         11    1    3    3    0    0  0.65826434183E+02 -0.15354731867E+03 -0.24302908616E+04  0.24360261843E+04  0.00000000000E+00 0.  1.
        -11    1    3    3    0    0  0.34177076041E+02  0.41292405027E+01 -0.62186565791E+03  0.62281780614E+03  0.00000000000E+00 0. -1.
         22    1    1    2    0    0 -0.10000351022E+03  0.14941807817E+03  0.47297955952E+03  0.50600012635E+03  0.00000000000E+00 0.  1.
<mgrwt>
<rscale>  0 0.24608860E+04</rscale>
<asrwt>0</asrwt>
<pdfrwt beam="1">  1        2 0.47261699E+00 0.24608860E+04</pdfrwt>
<pdfrwt beam="2">  1       -2 0.75820552E-01 0.24608860E+04</pdfrwt>
<totfact> 0.21876479E+00</totfact>
</mgrwt>
</event>
<event>
 6    1  0.2047711E-005  0.4620230E+04  0.7818608E-02  0.7889920E-01
          2   -1    0    0  501    0  0.00000000000E+00  0.00000000000E+00  0.24910115812E+04  0.24910115812E+04  0.00000000000E+00 0. -1.
         -2   -1    0    0    0  501 -0.00000000000E+00 -0.00000000000E+00 -0.21423552930E+04  0.21423552930E+04  0.00000000000E+00 0.  1.
         23    2    1    2    0    0 -0.28487269841E+02 -0.15411344059E+04  0.18987443170E+04  0.24473477347E+04  0.91510499022E+02 0.  0.
         11    1    3    3    0    0  0.17788606823E+01 -0.86706794381E+03  0.10012523002E+04  0.13245060031E+04  0.00000000000E+00 0. -1.
        -11    1    3    3    0    0 -0.30266130524E+02 -0.67406646209E+03  0.89749201684E+03  0.11228417316E+04  0.00000000000E+00 0.  1.
         22    1    1    2    0    0  0.28487269841E+02  0.15411344059E+04 -0.15500880288E+04  0.21860191396E+04  0.00000000000E+00 0.  1.
<mgrwt>
<rscale>  0 0.46202302E+04</rscale>
<asrwt>0</asrwt>
<pdfrwt beam="1">  1        2 0.38323255E+00 0.46202302E+04</pdfrwt>
<pdfrwt beam="2">  1       -2 0.32959312E+00 0.46202302E+04</pdfrwt>
<totfact> 0.55201273E-02</totfact>
</mgrwt>
</event>
<event>
 6    1  0.2047711E-005  0.1093103E+04  0.7818608E-02  0.9211941E-01
         -2   -1    0    0    0  501 -0.00000000000E+00  0.00000000000E+00  0.53233176199E+03  0.53233176199E+03  0.00000000000E+00 0.  1.
          2   -1    0    0  501    0  0.00000000000E+00 -0.00000000000E+00 -0.56115078257E+03  0.56115078257E+03  0.00000000000E+00 0. -1.
         23    2    1    2    0    0 -0.20070854054E+02  0.98132683876E+02 -0.54811171934E+03  0.56461794012E+03  0.91291284372E+02 0.  0.
         11    1    3    3    0    0  0.36102373388E+02  0.46202839351E+02 -0.25925874721E+03  0.26580666232E+03  0.00000000000E+00 0.  1.
        -11    1    3    3    0    0 -0.56173227442E+02  0.51929844525E+02 -0.28885297213E+03  0.29881127780E+03  0.00000000000E+00 0. -1.
         22    1    1    2    0    0  0.20070854054E+02 -0.98132683876E+02  0.51929269877E+03  0.52886460443E+03  0.00000000000E+00 0.  1.
<mgrwt>
<rscale>  0 0.10931027E+04</rscale>
<asrwt>0</asrwt>
<pdfrwt beam="1">  1        2 0.86330890E-01 0.10931027E+04</pdfrwt>
<pdfrwt beam="2">  1       -2 0.81897194E-01 0.10931027E+04</pdfrwt>
<totfact> 0.70042184E+01</totfact>
</mgrwt>
</event>
<event>
 6    1  0.2047711E-005  0.2515293E+04  0.7818608E-02  0.8397557E-01
         -1   -1    0    0    0  501 -0.00000000000E+00  0.00000000000E+00  0.10587956256E+04  0.10587956256E+04  0.00000000000E+00 0.  1.
          1   -1    0    0  501    0  0.00000000000E+00 -0.00000000000E+00 -0.14938433060E+04  0.14938433060E+04  0.00000000000E+00 0. -1.
         23    2    1    2    0    0  0.58386936397E+03  0.81395285927E+03  0.55115088254E+03  0.11469325978E+04  0.90908729826E+02 0.  0.
         11    1    3    3    0    0  0.13431321763E+03  0.19309916073E+03  0.17443630645E+03  0.29284014634E+03  0.00000000000E+00 0.  1.
        -11    1    3    3    0    0  0.44955614635E+03  0.62085369855E+03  0.37671457609E+03  0.85409245141E+03  0.00000000000E+00 0. -1.
         22    1    1    2    0    0 -0.58386936397E+03 -0.81395285927E+03 -0.98619856298E+03  0.14057063338E+04  0.00000000000E+00 0. -1.
<mgrwt>
<rscale>  0 0.25152930E+04</rscale>
<asrwt>0</asrwt>
<pdfrwt beam="1">  1        1 0.22982204E+00 0.25152930E+04</pdfrwt>
<pdfrwt beam="2">  1       -1 0.16289164E+00 0.25152930E+04</pdfrwt>
<totfact> 0.16290250E+00</totfact>
</mgrwt>
</event>
<event>
 6    1  0.2047711E-005  0.1975039E+04  0.7818608E-02  0.8618380E-01
          2   -1    0    0  501    0  0.00000000000E+00  0.00000000000E+00  0.18310446014E+04  0.18310446014E+04  0.00000000000E+00 0. -1.
         -2   -1    0    0    0  501 -0.00000000000E+00 -0.00000000000E+00 -0.53258955415E+03  0.53258955415E+03  0.00000000000E+00 0.  1.
         23    2    1    2    0    0  0.79171499374E+03  0.25876380172E+03  0.12807368743E+04  0.15305163547E+04  0.91771643344E+02 0.  0.
         11    1    3    3    0    0  0.41235713335E+03  0.12212308814E+03  0.57993371941E+03  0.72199416410E+03  0.00000000000E+00 0. -1.
        -11    1    3    3    0    0  0.37935786038E+03  0.13664071358E+03  0.70080315489E+03  0.80852219063E+03  0.00000000000E+00 0.  1.
         22    1    1    2    0    0 -0.79171499374E+03 -0.25876380172E+03  0.17718172938E+02  0.83311780082E+03  0.00000000000E+00 0.  1.
<mgrwt>
<rscale>  0 0.19750395E+04</rscale>
<asrwt>0</asrwt>
<pdfrwt beam="1">  1        2 0.28169917E+00 0.19750395E+04</pdfrwt>
<pdfrwt beam="2">  1       -2 0.81936855E-01 0.19750395E+04</pdfrwt>
<totfact> 0.10110097E+01</totfact>
</mgrwt>
</event>
<event>
 6    1  0.2047711E-005  0.9493402E+03  0.7818608E-02  0.9365922E-01
          2   -1    0    0  501    0  0.00000000000E+00  0.00000000000E+00  0.10232902372E+04  0.10232902372E+04  0.00000000000E+00 0. -1.
         -2   -1    0    0    0  501 -0.00000000000E+00 -0.00000000000E+00 -0.22018359636E+03  0.22018359636E+03  0.00000000000E+00 0.  1.
         23    2    1    2    0    0  0.18710951582E+03 -0.22614926042E+03 -0.75851919027E+02  0.31680150266E+03  0.91957705325E+02 0.  0.
         11    1    3    3    0    0  0.41298332960E+02 -0.76997816498E+02  0.16107420370E+02  0.88846300102E+02  0.00000000000E+00 0. -1.
        -11    1    3    3    0    0  0.14581118286E+03 -0.14915144392E+03 -0.91959339398E+02  0.22795520255E+03  0.00000000000E+00 0.  1.
         22    1    1    2    0    0 -0.18710951582E+03  0.22614926042E+03  0.87895855982E+03  0.92667233086E+03  0.00000000000E+00 0. -1.
<mgrwt>
<rscale>  0 0.94934024E+03</rscale>
<asrwt>0</asrwt>
<pdfrwt beam="1">  1        2 0.15742926E+00 0.94934024E+03</pdfrwt>
<pdfrwt beam="2">  1       -2 0.33874400E-01 0.94934024E+03</pdfrwt>
<totfact> 0.19834640E+02</totfact>
</mgrwt>
</event>
<event>
 6    1  0.2047711E-005  0.1675356E+04  0.7818608E-02  0.8775546E-01
         -2   -1    0    0    0  501 -0.00000000000E+00  0.00000000000E+00  0.14290098496E+04  0.14290098496E+04  0.00000000000E+00 0.  1.
          2   -1    0    0  501    0  0.00000000000E+00 -0.00000000000E+00 -0.49104256996E+03  0.49104256996E+03  0.00000000000E+00 0. -1.
         23    2    1    2    0    0  0.20942449474E+03 -0.13568105941E+03 -0.44308131668E+03  0.51664114902E+03  0.91263655398E+02 0.  0.
         13    1    3    3    0    0  0.92261728263E+02 -0.62466062244E+02 -0.28876777791E+03  0.30951747122E+03  0.00000000000E+00 0. -1.
        -13    1    3    3    0    0  0.11716276648E+03 -0.73214997162E+02 -0.15431353877E+03  0.20712367780E+03  0.00000000000E+00 0.  1.
         22    1    1    2    0    0 -0.20942449474E+03  0.13568105941E+03  0.13810485963E+04  0.14034112706E+04  0.00000000000E+00 0.  1.
<mgrwt>
<rscale>  0 0.16753563E+04</rscale>
<asrwt>0</asrwt>
<pdfrwt beam="1">  1        2 0.75545011E-01 0.16753563E+04</pdfrwt>
<pdfrwt beam="2">  1       -2 0.21984767E+00 0.16753563E+04</pdfrwt>
<totfact> 0.59348268E+00</totfact>
</mgrwt>
</event>
<event>
 6    1  0.2047711E-005  0.3341599E+04  0.7818608E-02  0.8152391E-01
         -2   -1    0    0    0  501 -0.00000000000E+00  0.00000000000E+00  0.14498677403E+04  0.14498677403E+04  0.00000000000E+00 0.  1.
          2   -1    0    0  501    0  0.00000000000E+00 -0.00000000000E+00 -0.19253967388E+04  0.19253967388E+04  0.00000000000E+00 0. -1.
         23    2    1    2    0    0  0.16293571749E+04  0.24758462118E+03 -0.50780240496E+03  0.17268881505E+04  0.90423747237E+02 0.  0.
         11    1    3    3    0    0  0.81467203869E+03  0.11105220884E+03 -0.20788057118E+03  0.84807868478E+03  0.00000000000E+00 0. -1.
        -11    1    3    3    0    0  0.81468513617E+03  0.13653241234E+03 -0.29992183378E+03  0.87880946575E+03  0.00000000000E+00 0.  1.
         22    1    1    2    0    0 -0.16293571749E+04 -0.24758462118E+03  0.32273406501E+02  0.16483763286E+04  0.00000000000E+00 0.  1.
<mgrwt>
<rscale>  0 0.33415988E+04</rscale>
<asrwt>0</asrwt>
<pdfrwt beam="1">  1        2 0.29621488E+00 0.33415988E+04</pdfrwt>
<pdfrwt beam="2">  1       -2 0.22305658E+00 0.33415988E+04</pdfrwt>
<totfact> 0.57845786E-01</totfact>
</mgrwt>
</event>
<event>
 6    1  0.2047711E-005  0.1426445E+04  0.7818608E-02  0.8934895E-01
         -2   -1    0    0    0  501 -0.00000000000E+00  0.00000000000E+00  0.27062677231E+03  0.27062677231E+03  0.00000000000E+00 0.  1.
          2   -1    0    0  501    0  0.00000000000E+00 -0.00000000000E+00 -0.18796607853E+04  0.18796607853E+04  0.00000000000E+00 0. -1.
         23    2    1    2    0    0 -0.41979834291E+03 -0.54913231796E+03 -0.56077637799E+03  0.89465185381E+03  0.90304164240E+02 0.  0.
         13    1    3    3    0    0 -0.10179816335E+03 -0.77923338805E+02 -0.91424131924E+02  0.15745883491E+03  0.00000000000E+00 0.  1.
        -13    1    3    3    0    0 -0.31800017956E+03 -0.47120897915E+03 -0.46935224607E+03  0.73719301890E+03  0.00000000000E+00 0. -1.
         22    1    1    2    0    0  0.41979834291E+03  0.54913231796E+03 -0.10482576350E+04  0.12556357038E+04  0.00000000000E+00 0. -1.
<mgrwt>
<rscale>  0 0.14264453E+04</rscale>
<asrwt>0</asrwt>
<pdfrwt beam="1">  1        2 0.28917858E+00 0.14264453E+04</pdfrwt>
<pdfrwt beam="2">  1       -2 0.41634888E-01 0.14264453E+04</pdfrwt>
<totfact> 0.41390654E+01</totfact>
</mgrwt>
</event>
<event>
 6    1  0.2047711E-005  0.2877897E+04  0.7818608E-02  0.8279484E-01
         -2   -1    0    0    0  501 -0.00000000000E+00  0.00000000000E+00  0.11879801180E+04  0.11879801180E+04  0.00000000000E+00 0.  1.
          2   -1    0    0  501    0  0.00000000000E+00 -0.00000000000E+00 -0.17429351487E+04  0.17429351487E+04  0.00000000000E+00 0. -1.
         23    2    1    2    0    0 -0.11147046405E+04 -0.51091856442E+03  0.48609549122E+03  0.13223785391E+04  0.93765446582E+02 0.  0.
         11    1    3    3    0    0 -0.55753786867E+03 -0.30688997189E+03  0.24717894254E+03  0.68273520451E+03  0.00000000000E+00 0. -1.
        -11    1    3    3    0    0 -0.55716677183E+03 -0.20402859253E+03  0.23891654868E+03  0.63964333455E+03  0.00000000000E+00 0.  1.
         22    1    1    2    0    0  0.11147046405E+04  0.51091856442E+03 -0.10410505219E+04  0.16085367276E+04  0.00000000000E+00 0. -1.
<mgrwt>
<rscale>  0 0.28778967E+04</rscale>
<asrwt>0</asrwt>
<pdfrwt beam="1">  1        2 0.26814387E+00 0.28778967E+04</pdfrwt>
<pdfrwt beam="2">  1       -2 0.18276617E+00 0.28778967E+04</pdfrwt>
<totfact> 0.13930093E+00</totfact>
</mgrwt>
</event>
<event>
 6    1  0.2047711E-005  0.1502242E+04  0.7818608E-02  0.8882963E-01
          2   -1    0    0  501    0  0.00000000000E+00  0.00000000000E+00  0.25258503148E+04  0.25258503148E+04  0.00000000000E+00 0. -1.
         -2   -1    0    0    0  501 -0.00000000000E+00 -0.00000000000E+00 -0.22336351311E+03  0.22336351311E+03  0.00000000000E+00 0.  1.
         23    2    1    2    0    0 -0.68398781000E+03 -0.16797969656E+03  0.16182311792E+04  0.17672452645E+04  0.91799634020E+02 0.  0.
         11    1    3    3    0    0 -0.26257887713E+03 -0.22550410602E+02  0.55814062970E+03  0.61723346495E+03  0.00000000000E+00 0.  1.
        -11    1    3    3    0    0 -0.42140893287E+03 -0.14542928595E+03  0.10600905495E+04  0.11500117995E+04  0.00000000000E+00 0. -1.
         22    1    1    2    0    0  0.68398781000E+03  0.16797969656E+03  0.68425562250E+03  0.98196856345E+03  0.00000000000E+00 0.  1.
<mgrwt>
<rscale>  0 0.15022421E+04</rscale>
<asrwt>0</asrwt>
<pdfrwt beam="1">  1        2 0.38859234E+00 0.15022421E+04</pdfrwt>
<pdfrwt beam="2">  1       -2 0.34363619E-01 0.15022421E+04</pdfrwt>
<totfact> 0.25851902E+01</totfact>
</mgrwt>
</event>
<event>
 6    1  0.2047711E-005  0.1392000E+04  0.7818608E-02  0.8959630E-01
         -2   -1    0    0    0  501 -0.00000000000E+00  0.00000000000E+00  0.17952121188E+03  0.17952121188E+03  0.00000000000E+00 0.  1.
          2   -1    0    0  501    0  0.00000000000E+00 -0.00000000000E+00 -0.26983789346E+04  0.26983789346E+04  0.00000000000E+00 0. -1.
         23    2    1    2    0    0  0.10807726635E+03  0.50318378940E+03 -0.22242329025E+04  0.22848753527E+04  0.92567548397E+02 0.  0.
         11    1    3    3    0    0  0.67417611414E+02  0.45417988823E+03 -0.19394981151E+04  0.19931074842E+04  0.00000000000E+00 0.  1.
        -11    1    3    3    0    0  0.40659654939E+02  0.49003901170E+02 -0.28473478749E+03  0.29176786848E+03  0.00000000000E+00 0. -1.
         22    1    1    2    0    0 -0.10807726635E+03 -0.50318378940E+03 -0.29462482014E+03  0.59302479380E+03  0.00000000000E+00 0.  1.
<mgrwt>
<rscale>  0 0.13920004E+04</rscale>
<asrwt>0</asrwt>
<pdfrwt beam="1">  1        2 0.41513521E+00 0.13920004E+04</pdfrwt>
<pdfrwt beam="2">  1       -2 0.27618649E-01 0.13920004E+04</pdfrwt>
<totfact> 0.31164355E+01</totfact>
</mgrwt>
</event>
<event>
 6    1  0.2047711E-005  0.1997508E+04  0.7818608E-02  0.8607787E-01
         -2   -1    0    0    0  501 -0.00000000000E+00  0.00000000000E+00  0.50558354110E+03  0.50558354110E+03  0.00000000000E+00 0.  1.
          2   -1    0    0  501    0  0.00000000000E+00 -0.00000000000E+00 -0.19729862554E+04  0.19729862554E+04  0.00000000000E+00 0. -1.
         23    2    1    2    0    0  0.41164094240E+03 -0.85682988814E+03 -0.36581048418E+03  0.10235401871E+04  0.10105187609E+03 0.  0.
         11    1    3    3    0    0  0.24444122259E+03 -0.57673039664E+03 -0.19958342991E+03  0.65742148368E+03  0.00000000000E+00 0.  1.
        -11    1    3    3    0    0  0.16719971982E+03 -0.28009949150E+03 -0.16622705427E+03  0.36611870345E+03  0.00000000000E+00 0. -1.
         22    1    1    2    0    0 -0.41164094240E+03  0.85682988814E+03 -0.11015922301E+04  0.14550296093E+04  0.00000000000E+00 0. -1.
<mgrwt>
<rscale>  0 0.19975078E+04</rscale>
<asrwt>0</asrwt>
<pdfrwt beam="1">  1        2 0.30353635E+00 0.19975078E+04</pdfrwt>
<pdfrwt beam="2">  1       -2 0.77782083E-01 0.19975078E+04</pdfrwt>
<totfact> 0.94620029E+00</totfact>
</mgrwt>
</event>
<event>
 6    1  0.2047711E-005  0.3458242E+04  0.7818608E-02  0.8123758E-01
          1   -1    0    0  501    0  0.00000000000E+00  0.00000000000E+00  0.11652842570E+04  0.11652842570E+04  0.00000000000E+00 0. -1.
         -1   -1    0    0    0  501 -0.00000000000E+00 -0.00000000000E+00 -0.25657770599E+04  0.25657770599E+04  0.00000000000E+00 0.  1.
         23    2    1    2    0    0 -0.18367550881E+03  0.16979046106E+04 -0.98411600163E+03  0.19732256022E+04  0.92294166959E+02 0.  0.
         11    1    3    3    0    0 -0.18698065841E+03  0.14079084973E+04 -0.82055424070E+03  0.16402674677E+04  0.00000000000E+00 0.  1.
        -11    1    3    3    0    0  0.33051496017E+01  0.28999611326E+03 -0.16356176093E+03  0.33295813454E+03  0.00000000000E+00 0. -1.
         22    1    1    2    0    0  0.18367550881E+03 -0.16979046106E+04 -0.41637680127E+03  0.17578357147E+04  0.00000000000E+00 0.  1.
<mgrwt>
<rscale>  0 0.34582421E+04</rscale>
<asrwt>0</asrwt>
<pdfrwt beam="1">  1        1 0.17927450E+00 0.34582421E+04</pdfrwt>
<pdfrwt beam="2">  1       -1 0.39473493E+00 0.34582421E+04</pdfrwt>
<totfact> 0.72043643E-02</totfact>
</mgrwt>
</event>
<event>
 6    1  0.2047711E-005  0.2110138E+04  0.7818608E-02  0.8556790E-01
         -2   -1    0    0    0  501 -0.00000000000E+00  0.00000000000E+00  0.77318145392E+03  0.77318145392E+03  0.00000000000E+00 0.  1.
          2   -1    0    0  501    0  0.00000000000E+00 -0.00000000000E+00 -0.14397279110E+04  0.14397279110E+04  0.00000000000E+00 0. -1.
         23    2    1    2    0    0  0.35713465570E+03  0.61290615103E+03 -0.11509326129E+04  0.13539395982E+04  0.72852204992E+02 0.  0.
         11    1    3    3    0    0  0.14302430135E+03  0.30521984405E+03 -0.58383263174E+03  0.67414808897E+03  0.00000000000E+00 0.  1.
        -11    1    3    3    0    0  0.21411035435E+03  0.30768630698E+03 -0.56709998119E+03  0.67979150922E+03  0.00000000000E+00 0. -1.
         22    1    1    2    0    0 -0.35713465570E+03 -0.61290615103E+03  0.48438615582E+03  0.85896976676E+03  0.00000000000E+00 0.  1.
<mgrwt>
<rscale>  0 0.21101383E+04</rscale>
<asrwt>0</asrwt>
<pdfrwt beam="1">  1        2 0.22149660E+00 0.21101383E+04</pdfrwt>
<pdfrwt beam="2">  1       -2 0.11895099E+00 0.21101383E+04</pdfrwt>
<totfact> 0.68643275E+00</totfact>
</mgrwt>
</event>
<event>
 6    1  0.2047711E-005  0.1856299E+04  0.7818608E-02  0.8676920E-01
          2   -1    0    0  501    0  0.00000000000E+00  0.00000000000E+00  0.27621504216E+04  0.27621504216E+04  0.00000000000E+00 0. -1.
         -2   -1    0    0    0  501 -0.00000000000E+00 -0.00000000000E+00 -0.31188060447E+03  0.31188060447E+03  0.00000000000E+00 0.  1.
         23    2    1    2    0    0  0.58332786861E+03 -0.71764682898E+03  0.13042539245E+04  0.16014004547E+04  0.90092970803E+02 0.  0.
         13    1    3    3    0    0  0.39235035218E+03 -0.41417687330E+03  0.81362658119E+03  0.99371499679E+03  0.00000000000E+00 0.  1.
        -13    1    3    3    0    0  0.19097751643E+03 -0.30346995568E+03  0.49062734329E+03  0.60768545792E+03  0.00000000000E+00 0. -1.
         22    1    1    2    0    0 -0.58332786861E+03  0.71764682898E+03  0.11460158926E+04  0.14726305713E+04  0.00000000000E+00 0.  1.
<mgrwt>
<rscale>  0 0.18562986E+04</rscale>
<asrwt>0</asrwt>
<pdfrwt beam="1">  1        2 0.42494620E+00 0.18562986E+04</pdfrwt>
<pdfrwt beam="2">  1       -2 0.47981633E-01 0.18562986E+04</pdfrwt>
<totfact> 0.94461821E+00</totfact>
</mgrwt>
</event>
<event>
 6    1  0.2047711E-005  0.2697702E+04  0.7818608E-02  0.8335751E-01
         -2   -1    0    0    0  501 -0.00000000000E+00  0.00000000000E+00  0.48867369700E+03  0.48867369700E+03  0.00000000000E+00 0.  1.
          2   -1    0    0  501    0  0.00000000000E+00 -0.00000000000E+00 -0.37231373647E+04  0.37231373647E+04  0.00000000000E+00 0. -1.
         23    2    1    2    0    0  0.11148224227E+04 -0.55346066658E+03 -0.81295434787E+03  0.14891551654E+04  0.86836577812E+02 0.  0.
         13    1    3    3    0    0  0.26025521878E+03 -0.11961962452E+03 -0.14562114191E+03  0.32132094616E+03  0.00000000000E+00 0. -1.
        -13    1    3    3    0    0  0.85456720394E+03 -0.43384104205E+03 -0.66733320596E+03  0.11678342192E+04  0.00000000000E+00 0.  1.
         22    1    1    2    0    0 -0.11148224227E+04  0.55346066658E+03 -0.24215093198E+04  0.27226558963E+04  0.00000000000E+00 0. -1.
<mgrwt>
<rscale>  0 0.26977022E+04</rscale>
<asrwt>0</asrwt>
<pdfrwt beam="1">  1        2 0.57279035E+00 0.26977022E+04</pdfrwt>
<pdfrwt beam="2">  1       -2 0.75180571E-01 0.26977022E+04</pdfrwt>
<totfact> 0.78250855E-01</totfact>
</mgrwt>
</event>
<event>
 6    1  0.2047711E-005  0.1358662E+04  0.7818608E-02  0.8984297E-01
          2   -1    0    0  501    0  0.00000000000E+00  0.00000000000E+00  0.10216700678E+04  0.10216700678E+04  0.00000000000E+00 0.  1.
         -2   -1    0    0    0  501 -0.00000000000E+00 -0.00000000000E+00 -0.45170218027E+03  0.45170218027E+03  0.00000000000E+00 0. -1.
         23    2    1    2    0    0 -0.34511448593E+03  0.32682317392E+03  0.80784239983E+03  0.94186337802E+03  0.92627665913E+02 0.  0.
         13    1    3    3    0    0 -0.21242656962E+03  0.13802679131E+03  0.43477812976E+03  0.50319823600E+03  0.00000000000E+00 0.  1.
        -13    1    3    3    0    0 -0.13268791631E+03  0.18879638261E+03  0.37306427007E+03  0.43866514202E+03  0.00000000000E+00 0. -1.
         22    1    1    2    0    0  0.34511448593E+03 -0.32682317392E+03 -0.23787451225E+03  0.53150887010E+03  0.00000000000E+00 0. -1.
<mgrwt>
<rscale>  0 0.13586620E+04</rscale>
<asrwt>0</asrwt>
<pdfrwt beam="1">  1        2 0.15718001E+00 0.13586620E+04</pdfrwt>
<pdfrwt beam="2">  1       -2 0.69492643E-01 0.13586620E+04</pdfrwt>
<totfact> 0.44989238E+01</totfact>
</mgrwt>
</event>
<event>
 6    1  0.2047711E-005  0.3188658E+04  0.7818608E-02  0.8191819E-01
         -2   -1    0    0    0  501 -0.00000000000E+00  0.00000000000E+00  0.61445028731E+03  0.61445028731E+03  0.00000000000E+00 0.  1.
          2   -1    0    0  501    0  0.00000000000E+00 -0.00000000000E+00 -0.41368440821E+04  0.41368440821E+04  0.00000000000E+00 0. -1.
         23    2    1    2    0    0  0.45788739735E+03  0.72875982587E+03 -0.37599838147E+04  0.38584333667E+04  0.96322406175E+02 0.  0.
         13    1    3    3    0    0  0.25474217807E+03  0.49215632089E+03 -0.23940152536E+04  0.24573197708E+04  0.00000000000E+00 0.  1.
        -13    1    3    3    0    0  0.20314521928E+03  0.23660350499E+03 -0.13659685612E+04  0.14011135960E+04  0.00000000000E+00 0. -1.
         22    1    1    2    0    0 -0.45788739735E+03 -0.72875982587E+03  0.23759001998E+03  0.89286100265E+03  0.00000000000E+00 0.  1.
<mgrwt>
<rscale>  0 0.31886580E+04</rscale>
<asrwt>0</asrwt>
<pdfrwt beam="1">  1        2 0.63643757E+00 0.31886580E+04</pdfrwt>
<pdfrwt beam="2">  1       -2 0.94530811E-01 0.31886580E+04</pdfrwt>
<totfact> 0.20898669E-01</totfact>
</mgrwt>
</event>
<event>
 6    1  0.2047711E-005  0.2837991E+04  0.7818608E-02  0.8291570E-01
          2   -1    0    0  501    0  0.00000000000E+00  0.00000000000E+00  0.29168596318E+04  0.29168596318E+04  0.00000000000E+00 0. -1.
         -2   -1    0    0    0  501 -0.00000000000E+00 -0.00000000000E+00 -0.69031359921E+03  0.69031359921E+03  0.00000000000E+00 0.  1.
         23    2    1    2    0    0 -0.56108149330E+03  0.11430284097E+03 -0.53370751566E+03  0.78815261522E+03  0.91995929428E+02 0.  0.
         11    1    3    3    0    0 -0.20499330947E+03  0.60237398346E+02 -0.14490789322E+03  0.25816486710E+03  0.00000000000E+00 0.  1.
        -11    1    3    3    0    0 -0.35608818383E+03  0.54065442619E+02 -0.38879962244E+03  0.52998774812E+03  0.00000000000E+00 0. -1.
         22    1    1    2    0    0  0.56108149330E+03 -0.11430284097E+03  0.27602535482E+04  0.28190206157E+04  0.00000000000E+00 0. -1.
<mgrwt>
<rscale>  0 0.28379907E+04</rscale>
<asrwt>0</asrwt>
<pdfrwt beam="1">  1        2 0.44874763E+00 0.28379907E+04</pdfrwt>
<pdfrwt beam="2">  1       -2 0.10620209E+00 0.28379907E+04</pdfrwt>
<totfact> 0.12164487E+00</totfact>
</mgrwt>
</event>
<event>
 6    1  0.2047711E-005  0.1530175E+04  0.7818608E-02  0.8864631E-01
          2   -1    0    0  501    0  0.00000000000E+00  0.00000000000E+00  0.22559133594E+03  0.22559133594E+03  0.00000000000E+00 0. -1.
         -2   -1    0    0    0  501 -0.00000000000E+00 -0.00000000000E+00 -0.25947766341E+04  0.25947766341E+04  0.00000000000E+00 0.  1.
         23    2    1    2    0    0  0.32920584710E+03  0.68701810394E+03 -0.12303931958E+04  0.14502519832E+04  0.94831606970E+02 0.  0.
         11    1    3    3    0    0  0.12434551884E+03  0.26995538626E+03 -0.39503578560E+03  0.49435917159E+03  0.00000000000E+00 0.  1.
        -11    1    3    3    0    0  0.20486032826E+03  0.41706271768E+03 -0.83535741021E+03  0.95589281165E+03  0.00000000000E+00 0. -1.
         22    1    1    2    0    0 -0.32920584710E+03 -0.68701810394E+03 -0.11387921023E+04  0.13701159868E+04  0.00000000000E+00 0.  1.
<mgrwt>
<rscale>  0 0.15301753E+04</rscale>
<asrwt>0</asrwt>
<pdfrwt beam="1">  1        2 0.34706360E-01 0.15301753E+04</pdfrwt>
<pdfrwt beam="2">  1       -2 0.39919640E+00 0.15301753E+04</pdfrwt>
<totfact> 0.11035969E+00</totfact>
</mgrwt>
</event>
<event>
 6    1  0.2047711E-005  0.4045389E+04  0.7818608E-02  0.7995452E-01
          2   -1    0    0  501    0  0.00000000000E+00  0.00000000000E+00  0.33205003280E+04  0.33205003280E+04  0.00000000000E+00 0. -1.
         -2   -1    0    0    0  501 -0.00000000000E+00 -0.00000000000E+00 -0.12321312605E+04  0.12321312605E+04  0.00000000000E+00 0.  1.
         23    2    1    2    0    0 -0.98027750180E+03  0.99072977071E+03 -0.60305436783E+03  0.15217489501E+04  0.97753963681E+02 0.  0.
         11    1    3    3    0    0 -0.36165528125E+03  0.39318595955E+03 -0.18411732201E+03  0.56505657195E+03  0.00000000000E+00 0.  1.
        -11    1    3    3    0    0 -0.61862222056E+03  0.59754381116E+03 -0.41893704582E+03  0.95669237813E+03  0.00000000000E+00 0. -1.
         22    1    1    2    0    0  0.98027750180E+03 -0.99072977071E+03  0.26914234354E+04  0.30308826384E+04  0.00000000000E+00 0. -1.
<mgrwt>
<rscale>  0 0.40453886E+04</rscale>
<asrwt>0</asrwt>
<pdfrwt beam="1">  1        2 0.51084620E+00 0.40453886E+04</pdfrwt>
<pdfrwt beam="2">  1       -2 0.18955866E+00 0.40453886E+04</pdfrwt>
<totfact> 0.13220929E-01</totfact>
</mgrwt>
</event>
<event>
 6    1  0.2047711E-005  0.1802823E+04  0.7818608E-02  0.8704800E-01
          2   -1    0    0  501    0  0.00000000000E+00  0.00000000000E+00  0.13511370607E+04  0.13511370607E+04  0.00000000000E+00 0.  1.
         -2   -1    0    0    0  501 -0.00000000000E+00 -0.00000000000E+00 -0.60137669551E+03  0.60137669551E+03  0.00000000000E+00 0. -1.
         23    2    1    2    0    0 -0.81825310540E+03  0.61509480586E+02  0.77397091673E+03  0.11315949347E+04  0.90302578045E+02 0.  0.
         13    1    3    3    0    0 -0.22973247446E+03 -0.10127470503E+02  0.17638221990E+03  0.28981073648E+03  0.00000000000E+00 0.  1.
        -13    1    3    3    0    0 -0.58852063093E+03  0.71636951089E+02  0.59758869683E+03  0.84178419822E+03  0.00000000000E+00 0. -1.
         22    1    1    2    0    0  0.81825310540E+03 -0.61509480586E+02 -0.24210551542E+02  0.82091882150E+03  0.00000000000E+00 0. -1.
<mgrwt>
<rscale>  0 0.18028226E+04</rscale>
<asrwt>0</asrwt>
<pdfrwt beam="1">  1        2 0.20786724E+00 0.18028226E+04</pdfrwt>
<pdfrwt beam="2">  1       -2 0.92519492E-01 0.18028226E+04</pdfrwt>
<totfact> 0.14446927E+01</totfact>
</mgrwt>
</event>
<event>
 6    1  0.2047711E-005  0.8573959E+03  0.7818608E-02  0.9480464E-01
         -2   -1    0    0    0  501 -0.00000000000E+00  0.00000000000E+00  0.20747560616E+03  0.20747560616E+03  0.00000000000E+00 0.  1.
          2   -1    0    0  501    0  0.00000000000E+00 -0.00000000000E+00 -0.88580024391E+03  0.88580024391E+03  0.00000000000E+00 0. -1.
         23    2    1    2    0    0 -0.11693741138E+03  0.30300916621E+03  0.41437866726E+01  0.33746366220E+03  0.91518519176E+02 0.  0.
         11    1    3    3    0    0 -0.75815858988E+02  0.20193333299E+03 -0.40673205560E+02  0.21949812094E+03  0.00000000000E+00 0.  1.
        -11    1    3    3    0    0 -0.41121552395E+02  0.10107583322E+03  0.44816992233E+02  0.11796554126E+03  0.00000000000E+00 0. -1.
         22    1    1    2    0    0  0.11693741138E+03 -0.30300916621E+03 -0.68246842442E+03  0.75581218786E+03  0.00000000000E+00 0. -1.
<mgrwt>
<rscale>  0 0.85739592E+03</rscale>
<asrwt>0</asrwt>
<pdfrwt beam="1">  1        2 0.13627696E+00 0.85739592E+03</pdfrwt>
<pdfrwt beam="2">  1       -2 0.31919324E-01 0.85739592E+03</pdfrwt>
<totfact> 0.27443053E+02</totfact>
</mgrwt>
</event>
<event>
 6    1  0.2047711E-005  0.3351227E+04  0.7818608E-02  0.8149982E-01
          2   -1    0    0  501    0  0.00000000000E+00  0.00000000000E+00  0.23518829267E+04  0.23518829267E+04  0.00000000000E+00 0. -1.
         -2   -1    0    0    0  501 -0.00000000000E+00 -0.00000000000E+00 -0.11938012840E+04  0.11938012840E+04  0.00000000000E+00 0.  1.
         23    2    1    2    0    0  0.13493519223E+04 -0.79933227210E+03  0.11998177590E+04  0.19767914180E+04  0.91972625067E+02 0.  0.
         11    1    3    3    0    0  0.11381985325E+04 -0.66123652816E+03  0.96542932053E+03  0.16324164354E+04  0.00000000000E+00 0. -1.
        -11    1    3    3    0    0  0.21115338982E+03 -0.13809574394E+03  0.23438843851E+03  0.34437498259E+03  0.00000000000E+00 0.  1.
         22    1    1    2    0    0 -0.13493519223E+04  0.79933227210E+03 -0.41736116305E+02  0.15688927927E+04  0.00000000000E+00 0.  1.
<mgrwt>
<rscale>  0 0.33512272E+04</rscale>
<asrwt>0</asrwt>
<pdfrwt beam="1">  1        2 0.36182814E+00 0.33512272E+04</pdfrwt>
<pdfrwt beam="2">  1       -2 0.18366174E+00 0.33512272E+04</pdfrwt>
<totfact> 0.60277949E-01</totfact>
</mgrwt>
</event>
<event>
 6    1  0.2047711E-005  0.2711468E+04  0.7818608E-02  0.8331294E-01
          2   -1    0    0  501    0  0.00000000000E+00  0.00000000000E+00  0.11207560404E+04  0.11207560404E+04  0.00000000000E+00 0. -1.
         -2   -1    0    0    0  501 -0.00000000000E+00 -0.00000000000E+00 -0.16399773141E+04  0.16399773141E+04  0.00000000000E+00 0.  1.
         23    2    1    2    0    0  0.37903979505E+03  0.46777748415E+03  0.97512741822E+03  0.11496576413E+04  0.91390751610E+02 0.  0.
         11    1    3    3    0    0  0.19202055254E+03  0.22497022591E+03  0.39402002859E+03  0.49268172087E+03  0.00000000000E+00 0.  1.
        -11    1    3    3    0    0  0.18701924251E+03  0.24280725823E+03  0.58110738963E+03  0.65697592041E+03  0.00000000000E+00 0. -1.
         22    1    1    2    0    0 -0.37903979505E+03 -0.46777748415E+03 -0.14943486919E+04  0.16110757132E+04  0.00000000000E+00 0.  1.
<mgrwt>
<rscale>  0 0.27114679E+04</rscale>
<asrwt>0</asrwt>
<pdfrwt beam="1">  1        2 0.17242401E+00 0.27114679E+04</pdfrwt>
<pdfrwt beam="2">  1       -2 0.25230420E+00 0.27114679E+04</pdfrwt>
<totfact> 0.11531868E+00</totfact>
</mgrwt>
</event>
<event>
 6    1  0.2047711E-005  0.3145592E+04  0.7818608E-02  0.8203336E-01
         -2   -1    0    0    0  501 -0.00000000000E+00  0.00000000000E+00  0.94995449659E+03  0.94995449659E+03  0.00000000000E+00 0.  1.
          2   -1    0    0  501    0  0.00000000000E+00 -0.00000000000E+00 -0.26040064095E+04  0.26040064095E+04  0.00000000000E+00 0. -1.
         23    2    1    2    0    0 -0.33636114314E+03 -0.51207337151E+03  0.80721155907E+03  0.10175903032E+04  0.92420602226E+02 0.  0.
         11    1    3    3    0    0 -0.89371247139E+02 -0.17021986997E+03  0.31884982017E+03  0.37232678090E+03  0.00000000000E+00 0. -1.
        -11    1    3    3    0    0 -0.24698989600E+03 -0.34185350154E+03  0.48836173890E+03  0.64526352234E+03  0.00000000000E+00 0.  1.
         22    1    1    2    0    0  0.33636114314E+03  0.51207337151E+03 -0.24612634720E+04  0.25363706028E+04  0.00000000000E+00 0. -1.
<mgrwt>
<rscale>  0 0.31455922E+04</rscale>
<asrwt>0</asrwt>
<pdfrwt beam="1">  1        2 0.40061637E+00 0.31455922E+04</pdfrwt>
<pdfrwt beam="2">  1       -2 0.14614685E+00 0.31455922E+04</pdfrwt>
<totfact> 0.82146382E-01</totfact>
</mgrwt>
</event>
<event>
 6    1  0.2047711E-005  0.8131023E+03  0.7818608E-02  0.9541243E-01
         -2   -1    0    0    0  501 -0.00000000000E+00  0.00000000000E+00  0.63422548831E+03  0.63422548831E+03  0.00000000000E+00 0.  1.
          2   -1    0    0  501    0  0.00000000000E+00 -0.00000000000E+00 -0.26060736059E+03  0.26060736059E+03  0.00000000000E+00 0. -1.
         23    2    1    2    0    0 -0.14715349716E+03  0.36434091081E+03  0.28031481643E+03  0.49097153742E+03  0.89878825249E+02 0.  0.
         11    1    3    3    0    0 -0.78668910037E+02  0.29465474686E+03  0.22156840273E+03  0.37696521635E+03  0.00000000000E+00 0.  1.
        -11    1    3    3    0    0 -0.68484587125E+02  0.69686163947E+02  0.58746413701E+02  0.11400632106E+03  0.00000000000E+00 0. -1.
         22    1    1    2    0    0  0.14715349716E+03 -0.36434091081E+03  0.93303311289E+02  0.40386131148E+03  0.00000000000E+00 0.  1.
<mgrwt>
<rscale>  0 0.81310228E+03</rscale>
<asrwt>0</asrwt>
<pdfrwt beam="1">  1        2 0.40093440E-01 0.81310228E+03</pdfrwt>
<pdfrwt beam="2">  1       -2 0.97573152E-01 0.81310228E+03</pdfrwt>
<totfact> 0.11321772E+02</totfact>
</mgrwt>
</event>
<event>
 6    1  0.2047711E-005  0.3672519E+04  0.7818608E-02  0.8074079E-01
          2   -1    0    0  501    0  0.00000000000E+00  0.00000000000E+00  0.20878947460E+04  0.20878947460E+04  0.00000000000E+00 0.  1.
         -2   -1    0    0    0  501 -0.00000000000E+00 -0.00000000000E+00 -0.16149515122E+04  0.16149515122E+04  0.00000000000E+00 0. -1.
         23    2    1    2    0    0  0.36037907648E+03  0.17722989954E+04  0.55000341079E+03  0.18926376849E+04  0.93042176647E+02 0.  0.
         13    1    3    3    0    0  0.17106633048E+03  0.62049807205E+03  0.18830089915E+03  0.67062565971E+03  0.00000000000E+00 0.  1.
        -13    1    3    3    0    0  0.18931274600E+03  0.11518009233E+04  0.36170251165E+03  0.12220120252E+04  0.00000000000E+00 0. -1.
         22    1    1    2    0    0 -0.36037907648E+03 -0.17722989954E+04 -0.77060177008E+02  0.18102085732E+04  0.00000000000E+00 0. -1.
<mgrwt>
<rscale>  0 0.36725189E+04</rscale>
<asrwt>0</asrwt>
<pdfrwt beam="1">  1        2 0.32121458E+00 0.36725189E+04</pdfrwt>
<pdfrwt beam="2">  1       -2 0.24845408E+00 0.36725189E+04</pdfrwt>
<totfact> 0.31764642E-01</totfact>
</mgrwt>
</event>
<event>
 6    1  0.2047711E-005  0.3673600E+04  0.7818608E-02  0.8073838E-01
         -2   -1    0    0    0  501 -0.00000000000E+00  0.00000000000E+00  0.74800609363E+03  0.74800609363E+03  0.00000000000E+00 0.  1.
          2   -1    0    0  501    0  0.00000000000E+00 -0.00000000000E+00 -0.45104366849E+04  0.45104366849E+04  0.00000000000E+00 0. -1.
         23    2    1    2    0    0 -0.56098195479E+03  0.17415172578E+04 -0.16685697953E+04  0.24778248353E+04  0.88924912836E+02 0.  0.
         11    1    3    3    0    0 -0.35971136249E+03  0.12419328385E+04 -0.11952660745E+04  0.17608095946E+04  0.00000000000E+00 0. -1.
        -11    1    3    3    0    0 -0.20127059230E+03  0.49958441934E+03 -0.47330372077E+03  0.71701524075E+03  0.00000000000E+00 0.  1.
         22    1    1    2    0    0  0.56098195479E+03 -0.17415172578E+04 -0.20938607960E+04  0.27806179432E+04  0.00000000000E+00 0. -1.
<mgrwt>
<rscale>  0 0.36735999E+04</rscale>
<asrwt>0</asrwt>
<pdfrwt beam="1">  1        2 0.69391334E+00 0.36735999E+04</pdfrwt>
<pdfrwt beam="2">  1       -2 0.11507786E+00 0.36735999E+04</pdfrwt>
<totfact> 0.56995938E-02</totfact>
</mgrwt>
</event>
<event>
 6    1  0.2047711E-005  0.1230942E+04  0.7818608E-02  0.9086196E-01
          2   -1    0    0  501    0  0.00000000000E+00  0.00000000000E+00  0.23807452984E+04  0.23807452984E+04  0.00000000000E+00 0. -1.
         -2   -1    0    0    0  501 -0.00000000000E+00 -0.00000000000E+00 -0.15911186079E+03  0.15911186079E+03  0.00000000000E+00 0.  1.
         23    2    1    2    0    0 -0.57155328297E+03  0.49027378088E+01  0.15690814206E+04  0.16723772880E+04  0.90178138357E+02 0.  0.
         11    1    3    3    0    0 -0.33485361973E+03 -0.12336788695E+02  0.10363303627E+04  0.10891555278E+04  0.00000000000E+00 0. -1.
        -11    1    3    3    0    0 -0.23669966323E+03  0.17239526504E+02  0.53275105789E+03  0.58322176016E+03  0.00000000000E+00 0.  1.
         22    1    1    2    0    0  0.57155328297E+03 -0.49027378088E+01  0.65255201694E+03  0.86747987119E+03  0.00000000000E+00 0.  1.
<mgrwt>
<rscale>  0 0.12309424E+04</rscale>
<asrwt>0</asrwt>
<pdfrwt beam="1">  1        2 0.36626848E+00 0.12309424E+04</pdfrwt>
<pdfrwt beam="2">  1       -2 0.24478750E-01 0.12309424E+04</pdfrwt>
<totfact> 0.60117371E+01</totfact>
</mgrwt>
</event>
<event>
 6    1  0.2047711E-005  0.3398961E+04  0.7818608E-02  0.8138161E-01
          2   -1    0    0  501    0  0.00000000000E+00  0.00000000000E+00  0.24930945974E+04  0.24930945974E+04  0.00000000000E+00 0. -1.
         -2   -1    0    0    0  501 -0.00000000000E+00 -0.00000000000E+00 -0.11584934606E+04  0.11584934606E+04  0.00000000000E+00 0.  1.
         23    2    1    2    0    0 -0.37245184070E+03 -0.14776046589E+04  0.14738534656E+04  0.21214158086E+04  0.78262974011E+02 0.  0.
         13    1    3    3    0    0 -0.26297036351E+03 -0.11341209237E+04  0.10903874144E+04  0.15950951053E+04  0.00000000000E+00 0.  1.
        -13    1    3    3    0    0 -0.10948147719E+03 -0.34348373523E+03  0.38346605121E+03  0.52632070323E+03  0.00000000000E+00 0. -1.
         22    1    1    2    0    0  0.37245184070E+03  0.14776046589E+04 -0.13925232877E+03  0.15301722494E+04  0.00000000000E+00 0.  1.
<mgrwt>
<rscale>  0 0.33989609E+04</rscale>
<asrwt>0</asrwt>
<pdfrwt beam="1">  1        2 0.38355301E+00 0.33989609E+04</pdfrwt>
<pdfrwt beam="2">  1       -2 0.17822976E+00 0.33989609E+04</pdfrwt>
<totfact> 0.54287504E-01</totfact>
</mgrwt>
</event>
<event>
 6    1  0.2047711E-005  0.3393639E+04  0.7818608E-02  0.8139469E-01
         -2   -1    0    0    0  501 -0.00000000000E+00  0.00000000000E+00  0.10097704721E+04  0.10097704721E+04  0.00000000000E+00 0.  1.
          2   -1    0    0  501    0  0.00000000000E+00 -0.00000000000E+00 -0.28513380060E+04  0.28513380060E+04  0.00000000000E+00 0. -1.
         23    2    1    2    0    0 -0.19325416503E+03 -0.14339694340E+04 -0.19272096049E+04  0.24116430338E+04  0.90938172465E+02 0.  0.
         13    1    3    3    0    0 -0.12540619307E+03 -0.65734447959E+03 -0.84552654335E+03  0.10783058998E+04  0.00000000000E+00 0.  1.
        -13    1    3    3    0    0 -0.67847971960E+02 -0.77662495438E+03 -0.10816830616E+04  0.13333371340E+04  0.00000000000E+00 0. -1.
         22    1    1    2    0    0  0.19325416503E+03  0.14339694340E+04  0.85642070967E+02  0.14494654443E+04  0.00000000000E+00 0.  1.
<mgrwt>
<rscale>  0 0.33936393E+04</rscale>
<asrwt>0</asrwt>
<pdfrwt beam="1">  1        2 0.43866739E+00 0.33936393E+04</pdfrwt>
<pdfrwt beam="2">  1       -2 0.15534930E+00 0.33936393E+04</pdfrwt>
<totfact> 0.48646443E-01</totfact>
</mgrwt>
</event>
<event>
 6    1  0.2047711E-005  0.2375431E+04  0.7818608E-02  0.8448760E-01
          1   -1    0    0  501    0  0.00000000000E+00  0.00000000000E+00  0.22874435467E+04  0.22874435467E+04  0.00000000000E+00 0. -1.
         -1   -1    0    0    0  501 -0.00000000000E+00 -0.00000000000E+00 -0.61670061065E+03  0.61670061065E+03  0.00000000000E+00 0.  1.
         23    2    1    2    0    0 -0.22852987404E+03 -0.11444382249E+04  0.57904010304E+03  0.13060891428E+04  0.92825933421E+02 0.  0.
         13    1    3    3    0    0 -0.94172281608E+02 -0.55771359981E+03  0.32878111852E+03  0.65422465708E+03  0.00000000000E+00 0.  1.
        -13    1    3    3    0    0 -0.13435759243E+03 -0.58672462513E+03  0.25025898452E+03  0.65186448570E+03  0.00000000000E+00 0. -1.
         22    1    1    2    0    0  0.22852987404E+03  0.11444382249E+04  0.10917028330E+04  0.15980550146E+04  0.00000000000E+00 0. -1.
<mgrwt>
<rscale>  0 0.23754308E+04</rscale>
<asrwt>0</asrwt>
<pdfrwt beam="1">  1        1 0.35191439E+00 0.23754308E+04</pdfrwt>
<pdfrwt beam="2">  1       -1 0.94877018E-01 0.23754308E+04</pdfrwt>
<totfact> 0.18303208E+00</totfact>
</mgrwt>
</event>
<event>
 6    1  0.2047711E-005  0.4084953E+04  0.7818608E-02  0.7987625E-01
          2   -1    0    0  501    0  0.00000000000E+00  0.00000000000E+00  0.24328410296E+04  0.24328410296E+04  0.00000000000E+00 0. -1.
         -2   -1    0    0    0  501 -0.00000000000E+00 -0.00000000000E+00 -0.17147482095E+04  0.17147482095E+04  0.00000000000E+00 0.  1.
         23    2    1    2    0    0  0.29555373347E+03  0.68613391319E+03  0.22882199079E+04  0.24087876898E+04  0.90421410589E+02 0.  0.
         13    1    3    3    0    0  0.15251857885E+03  0.43617774385E+03  0.15027983765E+04  0.15722327759E+04  0.00000000000E+00 0. -1.
        -13    1    3    3    0    0  0.14303515462E+03  0.24995616935E+03  0.78542153137E+03  0.83655491391E+03  0.00000000000E+00 0.  1.
         22    1    1    2    0    0 -0.29555373347E+03 -0.68613391319E+03 -0.15701270877E+04  0.17388015493E+04  0.00000000000E+00 0.  1.
<mgrwt>
<rscale>  0 0.40849528E+04</rscale>
<asrwt>0</asrwt>
<pdfrwt beam="1">  1        2 0.37428323E+00 0.40849528E+04</pdfrwt>
<pdfrwt beam="2">  1       -2 0.26380742E+00 0.40849528E+04</pdfrwt>
<totfact> 0.15771378E-01</totfact>
</mgrwt>
</event>
<event>
 6    1  0.2047711E-005  0.4661998E+04  0.7818608E-02  0.7882874E-01
          2   -1    0    0  501    0  0.00000000000E+00  0.00000000000E+00  0.32786718759E+04  0.32786718759E+04  0.00000000000E+00 0.  1.
         -2   -1    0    0    0  501 -0.00000000000E+00 -0.00000000000E+00 -0.16572429682E+04  0.16572429682E+04  0.00000000000E+00 0. -1.
         23    2    1    2    0    0  0.19421168241E+04  0.10784000213E+04  0.66651145323E+02  0.22244395529E+04  0.94470021738E+02 0.  0.
         13    1    3    3    0    0  0.48172537968E+03  0.22588614930E+03 -0.14058525191E+01  0.53205814559E+03  0.00000000000E+00 0. -1.
        -13    1    3    3    0    0  0.14603914445E+04  0.85251387196E+03  0.68056997842E+02  0.16923814073E+04  0.00000000000E+00 0.  1.
         22    1    1    2    0    0 -0.19421168241E+04 -0.10784000213E+04  0.15547777623E+04  0.27114752912E+04  0.00000000000E+00 0.  1.
<mgrwt>
<rscale>  0 0.46619978E+04</rscale>
<asrwt>0</asrwt>
<pdfrwt beam="1">  1        2 0.50441106E+00 0.46619978E+04</pdfrwt>
<pdfrwt beam="2">  1       -2 0.25496046E+00 0.46619978E+04</pdfrwt>
<totfact> 0.51499619E-02</totfact>
</mgrwt>
</event>
<event>
 6    1  0.2047711E-005  0.1442041E+04  0.7818608E-02  0.8923937E-01
          2   -1    0    0  501    0  0.00000000000E+00  0.00000000000E+00  0.22792078685E+04  0.22792078685E+04  0.00000000000E+00 0. -1.
         -2   -1    0    0    0  501 -0.00000000000E+00 -0.00000000000E+00 -0.22809275014E+03  0.22809275014E+03  0.00000000000E+00 0.  1.
         23    2    1    2    0    0 -0.23926128276E+03  0.62107834940E+03  0.56589866769E+03  0.87977114644E+03  0.10378675496E+03 0.  0.
         11    1    3    3    0    0 -0.20509853897E+03  0.45187384684E+03  0.37217243631E+03  0.62029646662E+03  0.00000000000E+00 0.  1.
        -11    1    3    3    0    0 -0.34162743794E+02  0.16920450255E+03  0.19372623138E+03  0.25947467983E+03  0.00000000000E+00 0. -1.
         22    1    1    2    0    0  0.23926128276E+03 -0.62107834940E+03  0.14852164507E+04  0.16275294722E+04  0.00000000000E+00 0. -1.
<mgrwt>
<rscale>  0 0.14420413E+04</rscale>
<asrwt>0</asrwt>
<pdfrwt beam="1">  1        2 0.35064735E+00 0.14420413E+04</pdfrwt>
<pdfrwt beam="2">  1       -2 0.35091194E-01 0.14420413E+04</pdfrwt>
<totfact> 0.34517710E+01</totfact>
</mgrwt>
</event>
<event>
 6    1  0.2047711E-005  0.1511090E+04  0.7818608E-02  0.8877111E-01
         -2   -1    0    0    0  501 -0.00000000000E+00  0.00000000000E+00  0.68989650671E+03  0.68989650671E+03  0.00000000000E+00 0.  1.
          2   -1    0    0  501    0  0.00000000000E+00 -0.00000000000E+00 -0.82744083938E+03  0.82744083938E+03  0.00000000000E+00 0. -1.
         23    2    1    2    0    0  0.11091281713E+02 -0.34445521452E+03 -0.74104975996E+03  0.82236165435E+03  0.91386719337E+02 0.  0.
         11    1    3    3    0    0 -0.34170922891E+02 -0.21925711821E+03 -0.42575461906E+03  0.48011283206E+03  0.00000000000E+00 0. -1.
        -11    1    3    3    0    0  0.45262204604E+02 -0.12519809630E+03 -0.31529514090E+03  0.34224882229E+03  0.00000000000E+00 0.  1.
         22    1    1    2    0    0 -0.11091281713E+02  0.34445521452E+03  0.60350542730E+03  0.69497569174E+03  0.00000000000E+00 0.  1.
<mgrwt>
<rscale>  0 0.15110904E+04</rscale>
<asrwt>0</asrwt>
<pdfrwt beam="1">  1        2 0.12729859E+00 0.15110904E+04</pdfrwt>
<pdfrwt beam="2">  1       -2 0.10613792E+00 0.15110904E+04</pdfrwt>
<totfact> 0.22767834E+01</totfact>
</mgrwt>
</event>
<event>
 6    1  0.2047711E-005  0.1512277E+04  0.7818608E-02  0.8876330E-01
          2   -1    0    0  501    0  0.00000000000E+00  0.00000000000E+00  0.18864095206E+04  0.18864095206E+04  0.00000000000E+00 0. -1.
         -2   -1    0    0    0  501 -0.00000000000E+00 -0.00000000000E+00 -0.30308668229E+03  0.30308668229E+03  0.00000000000E+00 0.  1.
         23    2    1    2    0    0 -0.13782100184E+03  0.25781386043E+03  0.17998616136E+04  0.18256945311E+04  0.90532191635E+02 0.  0.
         13    1    3    3    0    0 -0.10444839745E+03  0.10222240450E+03  0.92608333788E+03  0.93754425838E+03  0.00000000000E+00 0. -1.
        -13    1    3    3    0    0 -0.33372604393E+02  0.15559145593E+03  0.87377827569E+03  0.88815027273E+03  0.00000000000E+00 0.  1.
         22    1    1    2    0    0  0.13782100184E+03 -0.25781386043E+03 -0.21653877528E+03  0.36380167177E+03  0.00000000000E+00 0.  1.
<mgrwt>
<rscale>  0 0.15122772E+04</rscale>
<asrwt>0</asrwt>
<pdfrwt beam="1">  1        2 0.29021684E+00 0.15122772E+04</pdfrwt>
<pdfrwt beam="2">  1       -2 0.46628721E-01 0.15122772E+04</pdfrwt>
<totfact> 0.32523954E+01</totfact>
</mgrwt>
</event>
<event>
 6    1  0.2047711E-005  0.6700146E+03  0.7818608E-02  0.9769932E-01
          1   -1    0    0  501    0  0.00000000000E+00  0.00000000000E+00  0.17445720133E+04  0.17445720133E+04  0.00000000000E+00 0. -1.
         -1   -1    0    0    0  501 -0.00000000000E+00 -0.00000000000E+00 -0.64330893153E+02  0.64330893153E+02  0.00000000000E+00 0.  1.
         23    2    1    2    0    0  0.25420690948E+03 -0.49762753247E+02  0.14045386829E+04  0.14306049837E+04  0.82487716058E+02 0.  0.
         13    1    3    3    0    0  0.12382421597E+03 -0.34371387101E+02  0.90603389259E+03  0.91510176660E+03  0.00000000000E+00 0. -1.
        -13    1    3    3    0    0  0.13038269352E+03 -0.15391366146E+02  0.49850479028E+03  0.51550321711E+03  0.00000000000E+00 0.  1.
         22    1    1    2    0    0 -0.25420690948E+03  0.49762753247E+02  0.27570243732E+03  0.37829792279E+03  0.00000000000E+00 0.  1.
<mgrwt>
<rscale>  0 0.67001455E+03</rscale>
<asrwt>0</asrwt>
<pdfrwt beam="1">  1        1 0.26839566E+00 0.67001455E+03</pdfrwt>
<pdfrwt beam="2">  1       -1 0.98970618E-02 0.67001455E+03</pdfrwt>
<totfact> 0.29335011E+02</totfact>
</mgrwt>
</event>
<event>
 6    1  0.2047711E-005  0.3405832E+04  0.7818608E-02  0.8136476E-01
         -2   -1    0    0    0  501 -0.00000000000E+00  0.00000000000E+00  0.10055007392E+04  0.10055007392E+04  0.00000000000E+00 0. -1.
          2   -1    0    0  501    0  0.00000000000E+00 -0.00000000000E+00 -0.28840592525E+04  0.28840592525E+04  0.00000000000E+00 0.  1.
         23    2    1    2    0    0  0.29313642203E+03 -0.81059338568E+03  0.73578398741E+03  0.11367837004E+04  0.88929784102E+02 0.  0.
         13    1    3    3    0    0  0.61027039595E+02 -0.26210723876E+03  0.26397049966E+03  0.37696807407E+03  0.00000000000E+00 0.  1.
        -13    1    3    3    0    0  0.23210938244E+03 -0.54848614692E+03  0.47181348775E+03  0.75981562632E+03  0.00000000000E+00 0. -1.
         22    1    1    2    0    0 -0.29313642203E+03  0.81059338568E+03 -0.26143425007E+04  0.27527762913E+04  0.00000000000E+00 0.  1.
<mgrwt>
<rscale>  0 0.34058325E+04</rscale>
<asrwt>0</asrwt>
<pdfrwt beam="1">  1        2 0.44370142E+00 0.34058325E+04</pdfrwt>
<pdfrwt beam="2">  1       -2 0.15469242E+00 0.34058325E+04</pdfrwt>
<totfact> 0.46935740E-01</totfact>
</mgrwt>
</event>
<event>
 6    1  0.2047711E-005  0.5167464E+04  0.7818608E-02  0.7803181E-01
         -2   -1    0    0    0  501 -0.00000000000E+00  0.00000000000E+00  0.23213942105E+04  0.23213942105E+04  0.00000000000E+00 0.  1.
          2   -1    0    0  501    0  0.00000000000E+00 -0.00000000000E+00 -0.28757162836E+04  0.28757162836E+04  0.00000000000E+00 0. -1.
         23    2    1    2    0    0 -0.30265919905E+03  0.23547752547E+04 -0.13005846901E+04  0.27084407723E+04  0.86958555072E+02 0.  0.
         13    1    3    3    0    0 -0.24101086547E+03  0.17021043677E+04 -0.97776287587E+03  0.19776920279E+04  0.00000000000E+00 0. -1.
        -13    1    3    3    0    0 -0.61648333576E+02  0.65267088691E+03 -0.32282181426E+03  0.73074874438E+03  0.00000000000E+00 0.  1.
         22    1    1    2    0    0  0.30265919905E+03 -0.23547752547E+04  0.74626261702E+03  0.24886697218E+04  0.00000000000E+00 0.  1.
<mgrwt>
<rscale>  0 0.51674640E+04</rscale>
<asrwt>0</asrwt>
<pdfrwt beam="1">  1        2 0.44241789E+00 0.51674640E+04</pdfrwt>
<pdfrwt beam="2">  1       -2 0.35713757E+00 0.51674640E+04</pdfrwt>
<totfact> 0.20944910E-02</totfact>
</mgrwt>
</event>
<event>
 6    1  0.2047711E-005  0.3040243E+04  0.7818608E-02  0.8232332E-01
         -2   -1    0    0    0  501 -0.00000000000E+00  0.00000000000E+00  0.96998413918E+03  0.96998413918E+03  0.00000000000E+00 0.  1.
          2   -1    0    0  501    0  0.00000000000E+00 -0.00000000000E+00 -0.23822748625E+04  0.23822748625E+04  0.00000000000E+00 0. -1.
         23    2    1    2    0    0 -0.13575829486E+04  0.65821483848E+03 -0.89961279464E+03  0.17587983355E+04  0.88261932263E+02 0.  0.
         11    1    3    3    0    0 -0.49190392562E+03  0.24917460076E+03 -0.28096594406E+03  0.61886938479E+03  0.00000000000E+00 0.  1.
        -11    1    3    3    0    0 -0.86567902302E+03  0.40904023772E+03 -0.61864685057E+03  0.11399289507E+04  0.00000000000E+00 0. -1.
         22    1    1    2    0    0  0.13575829486E+04 -0.65821483848E+03 -0.51267792868E+03  0.15934606662E+04  0.00000000000E+00 0.  1.
<mgrwt>
<rscale>  0 0.30402426E+04</rscale>
<asrwt>0</asrwt>
<pdfrwt beam="1">  1        2 0.36650382E+00 0.30402426E+04</pdfrwt>
<pdfrwt beam="2">  1       -2 0.14922833E+00 0.30402426E+04</pdfrwt>
<totfact> 0.10545019E+00</totfact>
</mgrwt>
</event>
<event>
 6    1  0.2047711E-005  0.3029800E+04  0.7818608E-02  0.8235272E-01
         -2   -1    0    0    0  501 -0.00000000000E+00  0.00000000000E+00  0.12187386404E+04  0.12187386404E+04  0.00000000000E+00 0. -1.
          2   -1    0    0  501    0  0.00000000000E+00 -0.00000000000E+00 -0.18830300704E+04  0.18830300704E+04  0.00000000000E+00 0.  1.
         23    2    1    2    0    0 -0.11639215615E+04  0.28774362770E+03  0.61244171241E+03  0.13503243601E+04  0.10383270035E+03 0.  0.
         11    1    3    3    0    0 -0.92483713493E+03  0.18525972559E+03  0.48773807444E+03  0.10618537194E+04  0.00000000000E+00 0. -1.
        -11    1    3    3    0    0 -0.23908442661E+03  0.10248390211E+03  0.12470363798E+03  0.28847064073E+03  0.00000000000E+00 0.  1.
         22    1    1    2    0    0  0.11639215615E+04 -0.28774362770E+03 -0.12767331424E+04  0.17514443507E+04  0.00000000000E+00 0.  1.
<mgrwt>
<rscale>  0 0.30297997E+04</rscale>
<asrwt>0</asrwt>
<pdfrwt beam="1">  1        2 0.28969693E+00 0.30297997E+04</pdfrwt>
<pdfrwt beam="2">  1       -2 0.18749825E+00 0.30297997E+04</pdfrwt>
<totfact> 0.10678807E+00</totfact>
</mgrwt>
</event>
<event>
 6    1  0.2047711E-005  0.1243893E+04  0.7818608E-02  0.9075281E-01
          2   -1    0    0  501    0  0.00000000000E+00  0.00000000000E+00  0.27530676523E+04  0.27530676523E+04  0.00000000000E+00 0.  1.
         -2   -1    0    0    0  501 -0.00000000000E+00 -0.00000000000E+00 -0.14050418900E+03  0.14050418900E+03  0.00000000000E+00 0. -1.
         23    2    1    2    0    0  0.23903380369E+03  0.42851236109E+03  0.21897157373E+04  0.22458371717E+04  0.90385775100E+02 0.  0.
         13    1    3    3    0    0  0.97514630476E+02  0.20780378771E+03  0.83461132241E+03  0.86560243579E+03  0.00000000000E+00 0. -1.
        -13    1    3    3    0    0  0.14151917322E+03  0.22070857338E+03  0.13551044149E+04  0.13802347359E+04  0.00000000000E+00 0.  1.
         22    1    1    2    0    0 -0.23903380369E+03 -0.42851236109E+03  0.42284772599E+03  0.64773466967E+03  0.00000000000E+00 0. -1.
<mgrwt>
<rscale>  0 0.12438931E+04</rscale>
<asrwt>0</asrwt>
<pdfrwt beam="1">  1        2 0.42354883E+00 0.12438931E+04</pdfrwt>
<pdfrwt beam="2">  1       -2 0.21616031E-01 0.12438931E+04</pdfrwt>
<totfact> 0.45652549E+01</totfact>
</mgrwt>
</event>
<event>
 6    1  0.2047711E-005  0.2390342E+04  0.7818608E-02  0.8443128E-01
          2   -1    0    0  501    0  0.00000000000E+00  0.00000000000E+00  0.86556039943E+03  0.86556039943E+03  0.00000000000E+00 0.  1.
         -2   -1    0    0    0  501 -0.00000000000E+00 -0.00000000000E+00 -0.16502995005E+04  0.16502995005E+04  0.00000000000E+00 0. -1.
         23    2    1    2    0    0 -0.68377973962E+02  0.10469774358E+04 -0.99195639668E+03  0.14463851195E+04  0.84941878436E+02 0.  0.
         13    1    3    3    0    0  0.16601819734E+02  0.26732559739E+03 -0.23276545761E+03  0.35484976215E+03  0.00000000000E+00 0.  1.
        -13    1    3    3    0    0 -0.84979793695E+02  0.77965183837E+03 -0.75919093907E+03  0.10915353574E+04  0.00000000000E+00 0. -1.
         22    1    1    2    0    0  0.68377973962E+02 -0.10469774358E+04  0.20721729562E+03  0.10694747804E+04  0.00000000000E+00 0.  1.
<mgrwt>
<rscale>  0 0.23903421E+04</rscale>
<asrwt>0</asrwt>
<pdfrwt beam="1">  1        2 0.13316314E+00 0.23903421E+04</pdfrwt>
<pdfrwt beam="2">  1       -2 0.25389223E+00 0.23903421E+04</pdfrwt>
<totfact> 0.16941306E+00</totfact>
</mgrwt>
</event>
<event>
 6    1  0.2047711E-005  0.2483632E+04  0.7818608E-02  0.8408840E-01
          2   -1    0    0  501    0  0.00000000000E+00  0.00000000000E+00  0.26997793082E+04  0.26997793082E+04  0.00000000000E+00 0. -1.
         -2   -1    0    0    0  501 -0.00000000000E+00 -0.00000000000E+00 -0.57119727849E+03  0.57119727849E+03  0.00000000000E+00 0.  1.
         23    2    1    2    0    0 -0.15245939028E+03  0.11146327588E+04  0.37855178600E+03  0.11905305031E+04  0.91713529793E+02 0.  0.
         13    1    3    3    0    0 -0.10182219475E+03  0.96514879987E+03  0.33664366172E+03  0.10272336249E+04  0.00000000000E+00 0.  1.
        -13    1    3    3    0    0 -0.50637195530E+02  0.14948395893E+03  0.41908124281E+02  0.16329687820E+03  0.00000000000E+00 0. -1.
         22    1    1    2    0    0  0.15245939028E+03 -0.11146327588E+04  0.17500302438E+04  0.20804460836E+04  0.00000000000E+00 0. -1.
<mgrwt>
<rscale>  0 0.24836317E+04</rscale>
<asrwt>0</asrwt>
<pdfrwt beam="1">  1        2 0.41535066E+00 0.24836317E+04</pdfrwt>
<pdfrwt beam="2">  1       -2 0.87876506E-01 0.24836317E+04</pdfrwt>
<totfact> 0.26485633E+00</totfact>
</mgrwt>
</event>
<event>
 6    1  0.2047711E-005  0.1673697E+04  0.7818608E-02  0.8776509E-01
          2   -1    0    0  501    0  0.00000000000E+00  0.00000000000E+00  0.10364165496E+04  0.10364165496E+04  0.00000000000E+00 0. -1.
         -2   -1    0    0    0  501 -0.00000000000E+00 -0.00000000000E+00 -0.67570878568E+03  0.67570878568E+03  0.00000000000E+00 0.  1.
         23    2    1    2    0    0  0.56790538772E+03  0.49729983846E+03  0.54439300734E+03  0.93523156692E+03  0.92036289468E+02 0.  0.
         13    1    3    3    0    0  0.24095847229E+03  0.24864534580E+03  0.20486229769E+03  0.40231089268E+03  0.00000000000E+00 0. -1.
        -13    1    3    3    0    0  0.32694691543E+03  0.24865449267E+03  0.33953070965E+03  0.53292067424E+03  0.00000000000E+00 0.  1.
         22    1    1    2    0    0 -0.56790538772E+03 -0.49729983846E+03 -0.18368524338E+03  0.77689376840E+03  0.00000000000E+00 0.  1.
<mgrwt>
<rscale>  0 0.16736974E+04</rscale>
<asrwt>0</asrwt>
<pdfrwt beam="1">  1        2 0.15944870E+00 0.16736974E+04</pdfrwt>
<pdfrwt beam="2">  1       -2 0.10395520E+00 0.16736974E+04</pdfrwt>
<totfact> 0.17143884E+01</totfact>
</mgrwt>
</event>
<event>
 6    1  0.2047711E-005  0.4095407E+04  0.7818608E-02  0.7985572E-01
          2   -1    0    0  501    0  0.00000000000E+00  0.00000000000E+00  0.23023969318E+04  0.23023969318E+04  0.00000000000E+00 0. -1.
         -2   -1    0    0    0  501 -0.00000000000E+00 -0.00000000000E+00 -0.18211846467E+04  0.18211846467E+04  0.00000000000E+00 0.  1.
         23    2    1    2    0    0 -0.24316474632E+03  0.90916187620E+03 -0.15892265767E+04  0.18492857553E+04  0.92262028125E+02 0.  0.
         11    1    3    3    0    0 -0.48897987186E+02  0.32800545164E+03 -0.60376899918E+03  0.68885092278E+03  0.00000000000E+00 0.  1.
        -11    1    3    3    0    0 -0.19426675913E+03  0.58115642456E+03 -0.98545757753E+03  0.11604348326E+04  0.00000000000E+00 0. -1.
         22    1    1    2    0    0  0.24316474632E+03 -0.90916187620E+03  0.20704388618E+04  0.22742958232E+04  0.00000000000E+00 0. -1.
<mgrwt>
<rscale>  0 0.40954072E+04</rscale>
<asrwt>0</asrwt>
<pdfrwt beam="1">  1        2 0.35421491E+00 0.40954072E+04</pdfrwt>
<pdfrwt beam="2">  1       -2 0.28018225E+00 0.40954072E+04</pdfrwt>
<totfact> 0.14862056E-01</totfact>
</mgrwt>
</event>
<event>
 6    1  0.2047711E-005  0.3712799E+04  0.7818608E-02  0.8065131E-01
         -2   -1    0    0    0  501 -0.00000000000E+00  0.00000000000E+00  0.14906830372E+04  0.14906830372E+04  0.00000000000E+00 0.  1.
          2   -1    0    0  501    0  0.00000000000E+00 -0.00000000000E+00 -0.23118392209E+04  0.23118392209E+04  0.00000000000E+00 0. -1.
         23    2    1    2    0    0  0.56330894513E+03  0.12059421214E+04 -0.17345217460E+04  0.21882577140E+04  0.91064634750E+02 0.  0.
         11    1    3    3    0    0  0.34348440967E+03  0.83270474951E+03 -0.11532642718E+04  0.14633513659E+04  0.00000000000E+00 0. -1.
        -11    1    3    3    0    0  0.21982453546E+03  0.37323737189E+03 -0.58125747424E+03  0.72490634810E+03  0.00000000000E+00 0.  1.
         22    1    1    2    0    0 -0.56330894513E+03 -0.12059421214E+04  0.91336556238E+03  0.16142645441E+04  0.00000000000E+00 0.  1.
<mgrwt>
<rscale>  0 0.37127992E+04</rscale>
<asrwt>0</asrwt>
<pdfrwt beam="1">  1        2 0.35566757E+00 0.37127992E+04</pdfrwt>
<pdfrwt beam="2">  1       -2 0.22933585E+00 0.37127992E+04</pdfrwt>
<totfact> 0.31119012E-01</totfact>
</mgrwt>
</event>
<event>
 6    1  0.2047711E-005  0.1555581E+04  0.7818608E-02  0.8848311E-01
          1   -1    0    0  501    0  0.00000000000E+00  0.00000000000E+00  0.40012166569E+03  0.40012166569E+03  0.00000000000E+00 0. -1.
         -1   -1    0    0    0  501 -0.00000000000E+00 -0.00000000000E+00 -0.15119347547E+04  0.15119347547E+04  0.00000000000E+00 0.  1.
         23    2    1    2    0    0 -0.12355953129E+03 -0.75776309523E+03 -0.42705192245E+03  0.88328544419E+03  0.91367199747E+02 0.  0.
         13    1    3    3    0    0 -0.18294597587E+02 -0.59808429426E+02 -0.64218012137E+02  0.89642030399E+02  0.00000000000E+00 0. -1.
        -13    1    3    3    0    0 -0.10526493371E+03 -0.69795466580E+03 -0.36283391031E+03  0.79364341379E+03  0.00000000000E+00 0.  1.
         22    1    1    2    0    0  0.12355953129E+03  0.75776309523E+03 -0.68476116661E+03  0.10287709762E+04  0.00000000000E+00 0. -1.
<mgrwt>
<rscale>  0 0.15555807E+04</rscale>
<asrwt>0</asrwt>
<pdfrwt beam="1">  1        1 0.61557180E-01 0.15555807E+04</pdfrwt>
<pdfrwt beam="2">  1       -1 0.23260535E+00 0.15555807E+04</pdfrwt>
<totfact> 0.52396550E+00</totfact>
</mgrwt>
</event>
<event>
 6    1  0.2047711E-005  0.2833101E+04  0.7818608E-02  0.8293065E-01
          2   -1    0    0  501    0  0.00000000000E+00  0.00000000000E+00  0.24504916983E+04  0.24504916983E+04  0.00000000000E+00 0. -1.
         -2   -1    0    0    0  501 -0.00000000000E+00 -0.00000000000E+00 -0.81886224315E+03  0.81886224315E+03  0.00000000000E+00 0.  1.
         23    2    1    2    0    0  0.13002759356E+04  0.17249090573E+03  0.20420778147E+03  0.13307969379E+04  0.94069392603E+02 0.  0.
         11    1    3    3    0    0  0.32550532621E+03  0.60688305475E+02  0.14281201647E+02  0.33142229939E+03  0.00000000000E+00 0. -1.
        -11    1    3    3    0    0  0.97477060944E+03  0.11180260026E+03  0.18992657982E+03  0.99937463854E+03  0.00000000000E+00 0.  1.
         22    1    1    2    0    0 -0.13002759356E+04 -0.17249090573E+03  0.14274216737E+04  0.19385570035E+04  0.00000000000E+00 0.  1.
<mgrwt>
<rscale>  0 0.28331009E+04</rscale>
<asrwt>0</asrwt>
<pdfrwt beam="1">  1        2 0.37699872E+00 0.28331009E+04</pdfrwt>
<pdfrwt beam="2">  1       -2 0.12597881E+00 0.28331009E+04</pdfrwt>
<totfact> 0.15168532E+00</totfact>
</mgrwt>
</event>
<event>
 6    1  0.2047711E-005  0.1987136E+04  0.7818608E-02  0.8612659E-01
         -2   -1    0    0    0  501 -0.00000000000E+00  0.00000000000E+00  0.58332325012E+03  0.58332325012E+03  0.00000000000E+00 0.  1.
          2   -1    0    0  501    0  0.00000000000E+00 -0.00000000000E+00 -0.16923337655E+04  0.16923337655E+04  0.00000000000E+00 0. -1.
         23    2    1    2    0    0 -0.61872658268E+03  0.66586923358E+03 -0.10213477902E+03  0.91918985096E+03  0.90961797845E+02 0.  0.
         11    1    3    3    0    0 -0.55897901391E+02  0.41015590277E+02  0.12502240155E+02  0.70449698613E+02  0.00000000000E+00 0. -1.
        -11    1    3    3    0    0 -0.56282868129E+03  0.62485364331E+03 -0.11463701917E+03  0.84874015234E+03  0.00000000000E+00 0.  1.
         22    1    1    2    0    0  0.61872658268E+03 -0.66586923358E+03 -0.10068757364E+04  0.13564671647E+04  0.00000000000E+00 0. -1.
<mgrwt>
<rscale>  0 0.19871363E+04</rscale>
<asrwt>0</asrwt>
<pdfrwt beam="1">  1        2 0.26035904E+00 0.19871363E+04</pdfrwt>
<pdfrwt beam="2">  1       -2 0.89742040E-01 0.19871363E+04</pdfrwt>
<totfact> 0.97986970E+00</totfact>
</mgrwt>
</event>
<event>
 6    1  0.2047711E-005  0.1770986E+04  0.7818608E-02  0.8721883E-01
         -1   -1    0    0    0  501 -0.00000000000E+00  0.00000000000E+00  0.52255279383E+03  0.52255279383E+03  0.00000000000E+00 0.  1.
          1   -1    0    0  501    0  0.00000000000E+00 -0.00000000000E+00 -0.15005136112E+04  0.15005136112E+04  0.00000000000E+00 0. -1.
         23    2    1    2    0    0  0.31925468914E+03  0.93480722931E+02 -0.14248043132E+04  0.14659925214E+04  0.91676275769E+02 0.  0.
         11    1    3    3    0    0  0.14181371062E+03  0.71321328359E+02 -0.52007987566E+03  0.54376551699E+03  0.00000000000E+00 0.  1.
        -11    1    3    3    0    0  0.17744097852E+03  0.22159394573E+02 -0.90472443758E+03  0.92222700436E+03  0.00000000000E+00 0. -1.
         22    1    1    2    0    0 -0.31925468914E+03 -0.93480722931E+02  0.44684349586E+03  0.55707388369E+03  0.00000000000E+00 0.  1.
<mgrwt>
<rscale>  0 0.17709857E+04</rscale>
<asrwt>0</asrwt>
<pdfrwt beam="1">  1        1 0.23084825E+00 0.17709857E+04</pdfrwt>
<pdfrwt beam="2">  1       -1 0.80392737E-01 0.17709857E+04</pdfrwt>
<totfact> 0.95440381E+00</totfact>
</mgrwt>
</event>
<event>
 6    1  0.2047711E-005  0.8973455E+03  0.7818608E-02  0.9428906E-01
         -2   -1    0    0    0  501 -0.00000000000E+00  0.00000000000E+00  0.17012073454E+03  0.17012073454E+03  0.00000000000E+00 0.  1.
          2   -1    0    0  501    0  0.00000000000E+00 -0.00000000000E+00 -0.11833198224E+04  0.11833198224E+04  0.00000000000E+00 0. -1.
         23    2    1    2    0    0 -0.34801544448E+03  0.22219685579E+03 -0.75835460510E+03  0.86822730205E+03  0.90723473384E+02 0.  0.
         11    1    3    3    0    0 -0.25016590120E+03  0.11588157635E+03 -0.54147322909E+03  0.60762223107E+03  0.00000000000E+00 0.  1.
        -11    1    3    3    0    0 -0.97849543283E+02  0.10631527944E+03 -0.21688137601E+03  0.26060507099E+03  0.00000000000E+00 0. -1.
         22    1    1    2    0    0  0.34801544448E+03 -0.22219685579E+03 -0.25484448275E+03  0.48521325488E+03  0.00000000000E+00 0.  1.
<mgrwt>
<rscale>  0 0.89734550E+03</rscale>
<asrwt>0</asrwt>
<pdfrwt beam="1">  1        2 0.18204921E+00 0.89734550E+03</pdfrwt>
<pdfrwt beam="2">  1       -2 0.26172420E-01 0.89734550E+03</pdfrwt>
<totfact> 0.25608107E+02</totfact>
</mgrwt>
</event>
<event>
 6    1  0.2047711E-005  0.1234775E+04  0.7818608E-02  0.9082951E-01
         -2   -1    0    0    0  501 -0.00000000000E+00  0.00000000000E+00  0.34975824865E+03  0.34975824865E+03  0.00000000000E+00 0.  1.
          2   -1    0    0  501    0  0.00000000000E+00 -0.00000000000E+00 -0.10898023053E+04  0.10898023053E+04  0.00000000000E+00 0. -1.
         23    2    1    2    0    0 -0.54235514627E+02 -0.61148369202E+03 -0.35769212447E+03  0.71634081094E+03  0.91360302394E+02 0.  0.
         11    1    3    3    0    0 -0.42458089391E+02 -0.31438996628E+03 -0.13456740439E+03  0.34460430436E+03  0.00000000000E+00 0. -1.
        -11    1    3    3    0    0 -0.11777425236E+02 -0.29709372574E+03 -0.22312472008E+03  0.37173650659E+03  0.00000000000E+00 0.  1.
         22    1    1    2    0    0  0.54235514627E+02  0.61148369202E+03 -0.38235193222E+03  0.72321974304E+03  0.00000000000E+00 0. -1.
<mgrwt>
<rscale>  0 0.12347750E+04</rscale>
<asrwt>0</asrwt>
<pdfrwt beam="1">  1        2 0.16766189E+00 0.12347750E+04</pdfrwt>
<pdfrwt beam="2">  1       -2 0.53808962E-01 0.12347750E+04</pdfrwt>
<totfact> 0.70800202E+01</totfact>
</mgrwt>
</event>
<event>
 6    1  0.2047711E-005  0.3505064E+04  0.7818608E-02  0.8112591E-01
          2   -1    0    0  501    0  0.00000000000E+00  0.00000000000E+00  0.32139734212E+04  0.32139734212E+04  0.00000000000E+00 0. -1.
         -2   -1    0    0    0  501 -0.00000000000E+00 -0.00000000000E+00 -0.95562990907E+03  0.95562990907E+03  0.00000000000E+00 0.  1.
         23    2    1    2    0    0 -0.71190791902E+03  0.15388974509E+04  0.60812883230E+03  0.18035461165E+04  0.89104814518E+02 0.  0.
         13    1    3    3    0    0 -0.39375994458E+03  0.77600454857E+03  0.34525052154E+03  0.93617726739E+03  0.00000000000E+00 0. -1.
        -13    1    3    3    0    0 -0.31814797444E+03  0.76289290233E+03  0.26287831077E+03  0.86736884907E+03  0.00000000000E+00 0.  1.
         22    1    1    2    0    0  0.71190791902E+03 -0.15388974509E+04  0.16502146799E+04  0.23660572138E+04  0.00000000000E+00 0. -1.
<mgrwt>
<rscale>  0 0.35050644E+04</rscale>
<asrwt>0</asrwt>
<pdfrwt beam="1">  1        2 0.49445744E+00 0.35050644E+04</pdfrwt>
<pdfrwt beam="2">  1       -2 0.14701999E+00 0.35050644E+04</pdfrwt>
<totfact> 0.32917238E-01</totfact>
</mgrwt>
</event>
<event>
 6    1  0.2047711E-005  0.3241405E+04  0.7818608E-02  0.8177967E-01
          2   -1    0    0  501    0  0.00000000000E+00  0.00000000000E+00  0.11819042114E+04  0.11819042114E+04  0.00000000000E+00 0. -1.
         -2   -1    0    0    0  501 -0.00000000000E+00 -0.00000000000E+00 -0.22224107779E+04  0.22224107779E+04  0.00000000000E+00 0.  1.
         23    2    1    2    0    0  0.54352525284E+02 -0.72433131487E+03 -0.20408286967E+04  0.21680891139E+04  0.89546557882E+02 0.  0.
         13    1    3    3    0    0  0.22519845356E+02 -0.75278874059E+02 -0.16189299646E+03  0.17995386802E+03  0.00000000000E+00 0. -1.
        -13    1    3    3    0    0  0.31832679928E+02 -0.64905244081E+03 -0.18789357002E+04  0.19881352459E+04  0.00000000000E+00 0.  1.
         22    1    1    2    0    0 -0.54352525284E+02  0.72433131487E+03  0.10003221302E+04  0.12362258754E+04  0.00000000000E+00 0. -1.
<mgrwt>
<rscale>  0 0.32414050E+04</rscale>
<asrwt>0</asrwt>
<pdfrwt beam="1">  1        2 0.18183142E+00 0.32414050E+04</pdfrwt>
<pdfrwt beam="2">  1       -2 0.34190935E+00 0.32414050E+04</pdfrwt>
<totfact> 0.28497945E-01</totfact>
</mgrwt>
</event>
<event>
 6    1  0.2047711E-005  0.1168262E+04  0.7818608E-02  0.9141100E-01
         -2   -1    0    0    0  501 -0.00000000000E+00  0.00000000000E+00  0.40871519868E+03  0.40871519868E+03  0.00000000000E+00 0.  1.
          2   -1    0    0  501    0  0.00000000000E+00 -0.00000000000E+00 -0.83483302902E+03  0.83483302902E+03  0.00000000000E+00 0. -1.
         23    2    1    2    0    0 -0.46628181195E+03 -0.34352071444E+03 -0.17101367944E+03  0.61069489777E+03  0.90980053840E+02 0.  0.
         11    1    3    3    0    0 -0.94316361383E+01  0.51952909686E+01 -0.76147226338E+01  0.13188283030E+02  0.00000000000E+00 0.  1.
        -11    1    3    3    0    0 -0.45685017581E+03 -0.34871600541E+03 -0.16339895681E+03  0.59750661474E+03  0.00000000000E+00 0. -1.
         22    1    1    2    0    0  0.46628181195E+03  0.34352071444E+03 -0.25510415090E+03  0.63285332994E+03  0.00000000000E+00 0. -1.
<mgrwt>
<rscale>  0 0.11682619E+04</rscale>
<asrwt>0</asrwt>
<pdfrwt beam="1">  1        2 0.12843585E+00 0.11682619E+04</pdfrwt>
<pdfrwt beam="2">  1       -2 0.62879262E-01 0.11682619E+04</pdfrwt>
<totfact> 0.75415411E+01</totfact>
</mgrwt>
</event>
<event>
 6    1  0.2047711E-005  0.3985456E+04  0.7818608E-02  0.8007487E-01
         -2   -1    0    0    0  501 -0.00000000000E+00  0.00000000000E+00  0.13765897646E+04  0.13765897646E+04  0.00000000000E+00 0.  1.
          2   -1    0    0  501    0  0.00000000000E+00 -0.00000000000E+00 -0.28846395328E+04  0.28846395328E+04  0.00000000000E+00 0. -1.
         23    2    1    2    0    0  0.16293137653E+04  0.10977424921E+04 -0.11043320677E+04  0.22555648423E+04  0.91222352637E+02 0.  0.
         11    1    3    3    0    0  0.56760140987E+03  0.36732654113E+03 -0.33275556016E+03  0.75354257419E+03  0.00000000000E+00 0. -1.
        -11    1    3    3    0    0  0.10617123554E+04  0.73041595094E+03 -0.77157650756E+03  0.15020222682E+04  0.00000000000E+00 0.  1.
         22    1    1    2    0    0 -0.16293137653E+04 -0.10977424921E+04 -0.40371770039E+03  0.20056644550E+04  0.00000000000E+00 0.  1.
<mgrwt>
<rscale>  0 0.39854562E+04</rscale>
<asrwt>0</asrwt>
<pdfrwt beam="1">  1        2 0.44379069E+00 0.39854562E+04</pdfrwt>
<pdfrwt beam="2">  1       -2 0.21178304E+00 0.39854562E+04</pdfrwt>
<totfact> 0.18078039E-01</totfact>
</mgrwt>
</event>
<event>
 6    1  0.2047711E-005  0.1687841E+04  0.7818608E-02  0.8768330E-01
         -2   -1    0    0    0  501 -0.00000000000E+00  0.00000000000E+00  0.33651199833E+03  0.33651199833E+03  0.00000000000E+00 0.  1.
          2   -1    0    0  501    0  0.00000000000E+00 -0.00000000000E+00 -0.21164230320E+04  0.21164230320E+04  0.00000000000E+00 0. -1.
         23    2    1    2    0    0  0.65147398575E+03 -0.53039470469E+03 -0.82421124899E+03  0.11804968293E+04  0.92258789485E+02 0.  0.
         11    1    3    3    0    0  0.43211039344E+03 -0.39977241818E+03 -0.54616465659E+03  0.80301507493E+03  0.00000000000E+00 0. -1.
        -11    1    3    3    0    0  0.21936359231E+03 -0.13062228651E+03 -0.27804659240E+03  0.37748175441E+03  0.00000000000E+00 0.  1.
         22    1    1    2    0    0 -0.65147398575E+03  0.53039470469E+03 -0.95569978463E+03  0.12724382009E+04  0.00000000000E+00 0. -1.
<mgrwt>
<rscale>  0 0.16878409E+04</rscale>
<asrwt>0</asrwt>
<pdfrwt beam="1">  1        2 0.32560354E+00 0.16878409E+04</pdfrwt>
<pdfrwt beam="2">  1       -2 0.51771077E-01 0.16878409E+04</pdfrwt>
<totfact> 0.19313544E+01</totfact>
</mgrwt>
</event>
<event>
 6    1  0.2047711E-005  0.1688907E+04  0.7818608E-02  0.8767716E-01
         -2   -1    0    0    0  501 -0.00000000000E+00  0.00000000000E+00  0.51980104584E+03  0.51980104584E+03  0.00000000000E+00 0.  1.
          2   -1    0    0  501    0  0.00000000000E+00 -0.00000000000E+00 -0.13718746783E+04  0.13718746783E+04  0.00000000000E+00 0. -1.
         23    2    1    2    0    0 -0.52124096579E+03  0.57328989891E+03 -0.79634015618E+03  0.11148490556E+04  0.91527699493E+02 0.  0.
         11    1    3    3    0    0 -0.24779670433E+03  0.20697985780E+03 -0.34295468782E+03  0.47102206542E+03  0.00000000000E+00 0.  1.
        -11    1    3    3    0    0 -0.27344426146E+03  0.36631004111E+03 -0.45338546835E+03  0.64382699016E+03  0.00000000000E+00 0. -1.
         22    1    1    2    0    0  0.52124096579E+03 -0.57328989891E+03 -0.55733476301E+02  0.77682666857E+03  0.00000000000E+00 0.  1.
<mgrwt>
<rscale>  0 0.16889072E+04</rscale>
<asrwt>0</asrwt>
<pdfrwt beam="1">  1        2 0.21105764E+00 0.16889072E+04</pdfrwt>
<pdfrwt beam="2">  1       -2 0.79969391E-01 0.16889072E+04</pdfrwt>
<totfact> 0.19789961E+01</totfact>
</mgrwt>
</event>
<event>
 6    1  0.2047711E-005  0.1759076E+04  0.7818608E-02  0.8728370E-01
         -2   -1    0    0    0  501 -0.00000000000E+00  0.00000000000E+00  0.56156990425E+03  0.56156990425E+03  0.00000000000E+00 0.  1.
          2   -1    0    0  501    0  0.00000000000E+00 -0.00000000000E+00 -0.13775440352E+04  0.13775440352E+04  0.00000000000E+00 0. -1.
         23    2    1    2    0    0 -0.32185938224E+03 -0.68381822143E+03  0.80938354431E+02  0.76623166558E+03  0.96742577097E+02 0.  0.
         13    1    3    3    0    0 -0.23716034618E+03 -0.40399685503E+03  0.70026444150E+02  0.47366886277E+03  0.00000000000E+00 0. -1.
        -13    1    3    3    0    0 -0.84699036061E+02 -0.27982136641E+03  0.10911910281E+02  0.29256280282E+03  0.00000000000E+00 0.  1.
         22    1    1    2    0    0  0.32185938224E+03  0.68381822143E+03 -0.89691248534E+03  0.11728822738E+04  0.00000000000E+00 0. -1.
<mgrwt>
<rscale>  0 0.17590762E+04</rscale>
<asrwt>0</asrwt>
<pdfrwt beam="1">  1        2 0.21192985E+00 0.17590762E+04</pdfrwt>
<pdfrwt beam="2">  1       -2 0.86395370E-01 0.17590762E+04</pdfrwt>
<totfact> 0.16391988E+01</totfact>
</mgrwt>
</event>
<event>
 6    1  0.2047711E-005  0.7093093E+03  0.7818608E-02  0.9701443E-01
          1   -1    0    0  501    0  0.00000000000E+00  0.00000000000E+00  0.17278956527E+04  0.17278956527E+04  0.00000000000E+00 0. -1.
         -1   -1    0    0    0  501 -0.00000000000E+00 -0.00000000000E+00 -0.72793708525E+02  0.72793708525E+02  0.00000000000E+00 0.  1.
         23    2    1    2    0    0 -0.87315459637E+02 -0.29231225443E+03  0.12703074261E+04  0.13096320685E+04  0.91568305093E+02 0.  0.
         13    1    3    3    0    0  0.12563087248E+02 -0.10896825750E+03  0.44819033765E+03  0.46141791368E+03  0.00000000000E+00 0. -1.
        -13    1    3    3    0    0 -0.99878546885E+02 -0.18334399692E+03  0.82211708842E+03  0.84821415480E+03  0.00000000000E+00 0.  1.
         22    1    1    2    0    0  0.87315459637E+02  0.29231225443E+03  0.38479451806E+03  0.49105729270E+03  0.00000000000E+00 0.  1.
<mgrwt>
<rscale>  0 0.70930933E+03</rscale>
<asrwt>0</asrwt>
<pdfrwt beam="1">  1        1 0.26583007E+00 0.70930933E+03</pdfrwt>
<pdfrwt beam="2">  1       -1 0.11199033E-01 0.70930933E+03</pdfrwt>
<totfact> 0.24664653E+02</totfact>
</mgrwt>
</event>
<event>
 6    1  0.2047711E-005  0.3207637E+04  0.7818608E-02  0.8186803E-01
         -2   -1    0    0    0  501 -0.00000000000E+00  0.00000000000E+00  0.18294636621E+04  0.18294636621E+04  0.00000000000E+00 0.  1.
          2   -1    0    0  501    0  0.00000000000E+00 -0.00000000000E+00 -0.14060039064E+04  0.14060039064E+04  0.00000000000E+00 0. -1.
         23    2    1    2    0    0  0.77646412064E+03  0.13851242143E+04 -0.56687632570E+01  0.15905916140E+04  0.92108240450E+02 0.  0.
         11    1    3    3    0    0  0.50273532297E+03  0.94420893788E+03 -0.40278018898E+02  0.10704651522E+04  0.00000000000E+00 0. -1.
        -11    1    3    3    0    0  0.27372879767E+03  0.44091527646E+03  0.34609255641E+02  0.52012646180E+03  0.00000000000E+00 0.  1.
         22    1    1    2    0    0 -0.77646412064E+03 -0.13851242143E+04  0.42912851897E+03  0.16448759545E+04  0.00000000000E+00 0. -1.
<mgrwt>
<rscale>  0 0.32076365E+04</rscale>
<asrwt>0</asrwt>
<pdfrwt beam="1">  1        2 0.21630829E+00 0.32076365E+04</pdfrwt>
<pdfrwt beam="2">  1       -2 0.28145595E+00 0.32076365E+04</pdfrwt>
<totfact> 0.49845689E-01</totfact>
</mgrwt>
</event>
<event>
 6    1  0.2047711E-005  0.2698001E+04  0.7818608E-02  0.8335654E-01
          2   -1    0    0  501    0  0.00000000000E+00  0.00000000000E+00  0.28784795394E+04  0.28784795394E+04  0.00000000000E+00 0. -1.
         -2   -1    0    0    0  501 -0.00000000000E+00 -0.00000000000E+00 -0.63220955571E+03  0.63220955571E+03  0.00000000000E+00 0.  1.
         23    2    1    2    0    0 -0.10681760391E+04 -0.68138465318E+03  0.52650836721E+03  0.13746026939E+04  0.83883306484E+02 0.  0.
         11    1    3    3    0    0 -0.48924796387E+03 -0.34795617083E+03  0.21785943331E+03  0.63867033723E+03  0.00000000000E+00 0. -1.
        -11    1    3    3    0    0 -0.57892807524E+03 -0.33342848234E+03  0.30864893390E+03  0.73593235663E+03  0.00000000000E+00 0.  1.
         22    1    1    2    0    0  0.10681760391E+04  0.68138465318E+03  0.17197616165E+04  0.21360864013E+04  0.00000000000E+00 0. -1.
<mgrwt>
<rscale>  0 0.26980009E+04</rscale>
<asrwt>0</asrwt>
<pdfrwt beam="1">  1        2 0.44284300E+00 0.26980009E+04</pdfrwt>
<pdfrwt beam="2">  1       -2 0.97263011E-01 0.26980009E+04</pdfrwt>
<totfact> 0.16023045E+00</totfact>
</mgrwt>
</event>
<event>
 6    1  0.2047711E-005  0.1240479E+04  0.7818608E-02  0.9078145E-01
         -2   -1    0    0    0  501 -0.00000000000E+00  0.00000000000E+00  0.45243887910E+03  0.45243887910E+03  0.00000000000E+00 0.  1.
          2   -1    0    0  501    0  0.00000000000E+00 -0.00000000000E+00 -0.85027356867E+03  0.85027356867E+03  0.00000000000E+00 0. -1.
         23    2    1    2    0    0  0.31086243350E+03  0.34593946963E+03 -0.62569865691E+03  0.78480168632E+03  0.90029486174E+02 0.  0.
         13    1    3    3    0    0  0.17847618865E+03  0.25907152403E+03 -0.43718361133E+03  0.53861054065E+03  0.00000000000E+00 0.  1.
        -13    1    3    3    0    0  0.13238624485E+03  0.86867945596E+02 -0.18851504558E+03  0.24619114567E+03  0.00000000000E+00 0. -1.
         22    1    1    2    0    0 -0.31086243350E+03 -0.34593946963E+03  0.22786396735E+03  0.51791076145E+03  0.00000000000E+00 0.  1.
<mgrwt>
<rscale>  0 0.12404787E+04</rscale>
<asrwt>0</asrwt>
<pdfrwt beam="1">  1        2 0.13081132E+00 0.12404787E+04</pdfrwt>
<pdfrwt beam="2">  1       -2 0.69605981E-01 0.12404787E+04</pdfrwt>
<totfact> 0.58780594E+01</totfact>
</mgrwt>
</event>
<event>
 6    1  0.2047711E-005  0.1897014E+04  0.7818608E-02  0.8656344E-01
          2   -1    0    0  501    0  0.00000000000E+00  0.00000000000E+00  0.85429925431E+03  0.85429925431E+03  0.00000000000E+00 0.  1.
         -2   -1    0    0    0  501 -0.00000000000E+00 -0.00000000000E+00 -0.10531029533E+04  0.10531029533E+04  0.00000000000E+00 0. -1.
         23    2    1    2    0    0  0.92928019597E+02  0.79288016891E+03  0.41122166541E+03  0.90270049849E+03  0.92034519575E+02 0.  0.
         13    1    3    3    0    0  0.98300146546E+02  0.45516291697E+03  0.24771360457E+03  0.52744500157E+03  0.00000000000E+00 0.  1.
        -13    1    3    3    0    0 -0.53721269488E+01  0.33771725194E+03  0.16350806083E+03  0.37525549692E+03  0.00000000000E+00 0. -1.
         22    1    1    2    0    0 -0.92928019597E+02 -0.79288016891E+03 -0.61002536437E+03  0.10047017091E+04  0.00000000000E+00 0. -1.
<mgrwt>
<rscale>  0 0.18970135E+04</rscale>
<asrwt>0</asrwt>
<pdfrwt beam="1">  1        2 0.13143065E+00 0.18970135E+04</pdfrwt>
<pdfrwt beam="2">  1       -2 0.16201584E+00 0.18970135E+04</pdfrwt>
<totfact> 0.71850258E+00</totfact>
</mgrwt>
</event>
<event>
 6    1  0.2047711E-005  0.4487876E+04  0.7818608E-02  0.7912763E-01
          2   -1    0    0  501    0  0.00000000000E+00  0.00000000000E+00  0.12110737981E+04  0.12110737981E+04  0.00000000000E+00 0. -1.
         -2   -1    0    0    0  501 -0.00000000000E+00 -0.00000000000E+00 -0.41576797416E+04  0.41576797416E+04  0.00000000000E+00 0.  1.
         23    2    1    2    0    0  0.21717742880E+04 -0.41652745834E+03 -0.19233082159E+04  0.29321089368E+04  0.89719801518E+02 0.  0.
         11    1    3    3    0    0  0.52716474097E+03 -0.14014211995E+03 -0.48059445805E+03  0.72698934725E+03  0.00000000000E+00 0. -1.
        -11    1    3    3    0    0  0.16446095470E+04 -0.27638533838E+03 -0.14427137578E+04  0.22051195896E+04  0.00000000000E+00 0.  1.
         22    1    1    2    0    0 -0.21717742880E+04  0.41652745834E+03 -0.10232977277E+04  0.24366446029E+04  0.00000000000E+00 0. -1.
<mgrwt>
<rscale>  0 0.44878757E+04</rscale>
<asrwt>0</asrwt>
<pdfrwt beam="1">  1        2 0.18631904E+00 0.44878757E+04</pdfrwt>
<pdfrwt beam="2">  1       -2 0.63964305E+00 0.44878757E+04</pdfrwt>
<totfact> 0.51747510E-03</totfact>
</mgrwt>
</event>
<event>
 6    1  0.2047711E-005  0.4113790E+04  0.7818608E-02  0.7981977E-01
          2   -1    0    0  501    0  0.00000000000E+00  0.00000000000E+00  0.18618990089E+04  0.18618990089E+04  0.00000000000E+00 0. -1.
         -2   -1    0    0    0  501 -0.00000000000E+00 -0.00000000000E+00 -0.22723126408E+04  0.22723126408E+04  0.00000000000E+00 0.  1.
         23    2    1    2    0    0  0.15495730826E+04 -0.20910483744E+03 -0.15468237256E+04  0.22012529143E+04  0.89158192229E+02 0.  0.
         13    1    3    3    0    0  0.31320690128E+03 -0.74864035947E+02 -0.34082895507E+03  0.46890037695E+03  0.00000000000E+00 0.  1.
        -13    1    3    3    0    0  0.12363661813E+04 -0.13424080149E+03 -0.12059947705E+04  0.17323525373E+04  0.00000000000E+00 0. -1.
         22    1    1    2    0    0 -0.15495730826E+04  0.20910483744E+03  0.11364100937E+04  0.19329587353E+04  0.00000000000E+00 0. -1.
<mgrwt>
<rscale>  0 0.41137898E+04</rscale>
<asrwt>0</asrwt>
<pdfrwt beam="1">  1        2 0.28644600E+00 0.41137898E+04</pdfrwt>
<pdfrwt beam="2">  1       -2 0.34958656E+00 0.41137898E+04</pdfrwt>
<totfact> 0.97521561E-02</totfact>
</mgrwt>
</event>
<event>
 6    1  0.2047711E-005  0.1116808E+04  0.7818608E-02  0.9188963E-01
         -2   -1    0    0    0  501 -0.00000000000E+00  0.00000000000E+00  0.19689988001E+03  0.19689988001E+03  0.00000000000E+00 0.  1.
          2   -1    0    0  501    0  0.00000000000E+00 -0.00000000000E+00 -0.15836230216E+04  0.15836230216E+04  0.00000000000E+00 0. -1.
         23    2    1    2    0    0 -0.87360776898E+02 -0.49498704261E+03 -0.32373370115E+03  0.60468676158E+03  0.90545528221E+02 0.  0.
         13    1    3    3    0    0 -0.75614644767E+02 -0.29430026172E+03 -0.14943265389E+03  0.33861532245E+03  0.00000000000E+00 0.  1.
        -13    1    3    3    0    0 -0.11746132132E+02 -0.20068678089E+03 -0.17430104726E+03  0.26607143913E+03  0.00000000000E+00 0. -1.
         22    1    1    2    0    0  0.87360776898E+02  0.49498704261E+03 -0.10629894404E+04  0.11758361400E+04  0.00000000000E+00 0. -1.
<mgrwt>
<rscale>  0 0.11168083E+04</rscale>
<asrwt>0</asrwt>
<pdfrwt beam="1">  1        2 0.24363432E+00 0.11168083E+04</pdfrwt>
<pdfrwt beam="2">  1       -2 0.30292288E-01 0.11168083E+04</pdfrwt>
<totfact> 0.11370939E+02</totfact>
</mgrwt>
</event>
<event>
 6    1  0.2047711E-005  0.7773309E+03  0.7818608E-02  0.9593422E-01
         -2   -1    0    0    0  501 -0.00000000000E+00  0.00000000000E+00  0.30604484600E+04  0.30604484600E+04  0.00000000000E+00 0.  1.
          2   -1    0    0  501    0  0.00000000000E+00 -0.00000000000E+00 -0.49359050738E+02  0.49359050738E+02  0.00000000000E+00 0. -1.
         23    2    1    2    0    0  0.25987268857E+03 -0.13638724283E+03  0.25126598614E+04  0.25313895749E+04  0.91314329441E+02 0.  0.
         13    1    3    3    0    0  0.11958444347E+03 -0.13134176617E+02  0.92857066453E+03  0.93633136482E+03  0.00000000000E+00 0. -1.
        -13    1    3    3    0    0  0.14028824510E+03 -0.12325306622E+03  0.15840891969E+04  0.15950582101E+04  0.00000000000E+00 0.  1.
         22    1    1    2    0    0 -0.25987268857E+03  0.13638724283E+03  0.49842954789E+03  0.57841793583E+03  0.00000000000E+00 0. -1.
<mgrwt>
<rscale>  0 0.77733090E+03</rscale>
<asrwt>0</asrwt>
<pdfrwt beam="1">  1        2 0.75937026E-02 0.77733090E+03</pdfrwt>
<pdfrwt beam="2">  1       -2 0.47083807E+00 0.77733090E+03</pdfrwt>
<totfact> 0.25518490E+00</totfact>
</mgrwt>
</event>
<event>
 6    1  0.2047711E-005  0.2114193E+04  0.7818608E-02  0.8555017E-01
          2   -1    0    0  501    0  0.00000000000E+00  0.00000000000E+00  0.12338775138E+04  0.12338775138E+04  0.00000000000E+00 0. -1.
         -2   -1    0    0    0  501 -0.00000000000E+00 -0.00000000000E+00 -0.90564367172E+03  0.90564367172E+03  0.00000000000E+00 0.  1.
         23    2    1    2    0    0  0.64239696914E+03 -0.72333286735E+03  0.59078938760E+03  0.11371142235E+04  0.90068606451E+02 0.  0.
         13    1    3    3    0    0  0.35256634386E+03 -0.46141541650E+03  0.34037000650E+03  0.67309654191E+03  0.00000000000E+00 0.  1.
        -13    1    3    3    0    0  0.28983062528E+03 -0.26191745085E+03  0.25041938110E+03  0.46401768161E+03  0.00000000000E+00 0. -1.
         22    1    1    2    0    0 -0.64239696914E+03  0.72333286735E+03 -0.26255554554E+03  0.10024069620E+04  0.00000000000E+00 0.  1.
<mgrwt>
<rscale>  0 0.21141933E+04</rscale>
<asrwt>0</asrwt>
<pdfrwt beam="1">  1        2 0.18982731E+00 0.21141933E+04</pdfrwt>
<pdfrwt beam="2">  1       -2 0.13932980E+00 0.21141933E+04</pdfrwt>
<totfact> 0.60533035E+00</totfact>
</mgrwt>
</event>
<event>
 6    1  0.2047711E-005  0.1938254E+04  0.7818608E-02  0.8636046E-01
          1   -1    0    0  501    0  0.00000000000E+00  0.00000000000E+00  0.17036223529E+04  0.17036223529E+04  0.00000000000E+00 0. -1.
         -1   -1    0    0    0  501 -0.00000000000E+00 -0.00000000000E+00 -0.55129995250E+03  0.55129995250E+03  0.00000000000E+00 0.  1.
         23    2    1    2    0    0 -0.71939326405E+02 -0.47763253783E+03 -0.39719698486E+03  0.63186394750E+03  0.90435034613E+02 0.  0.
         13    1    3    3    0    0 -0.77399788662E+02 -0.21156652432E+03 -0.18417351001E+03  0.29098282301E+03  0.00000000000E+00 0. -1.
        -13    1    3    3    0    0  0.54604622565E+01 -0.26606601351E+03 -0.21302347485E+03  0.34088112449E+03  0.00000000000E+00 0.  1.
         22    1    1    2    0    0  0.71939326405E+02  0.47763253783E+03  0.15495193852E+04  0.16230583579E+04  0.00000000000E+00 0. -1.
<mgrwt>
<rscale>  0 0.19382538E+04</rscale>
<asrwt>0</asrwt>
<pdfrwt beam="1">  1        1 0.26209575E+00 0.19382538E+04</pdfrwt>
<pdfrwt beam="2">  1       -1 0.84815378E-01 0.19382538E+04</pdfrwt>
<totfact> 0.60785836E+00</totfact>
</mgrwt>
</event>
<event>
 6    1  0.2047711E-005  0.1162967E+04  0.7818608E-02  0.9145903E-01
          2   -1    0    0  501    0  0.00000000000E+00  0.00000000000E+00  0.13671973956E+04  0.13671973956E+04  0.00000000000E+00 0. -1.
         -2   -1    0    0    0  501 -0.00000000000E+00 -0.00000000000E+00 -0.24731117722E+03  0.24731117722E+03  0.00000000000E+00 0.  1.
         23    2    1    2    0    0  0.32080279214E+02 -0.33439673546E+03 -0.89191997351E+02  0.35962991225E+03  0.92347931189E+02 0.  0.
         11    1    3    3    0    0  0.38624394808E+02 -0.17979108719E+03 -0.61137902371E+01  0.18399472095E+03  0.00000000000E+00 0.  1.
        -11    1    3    3    0    0 -0.65441155940E+01 -0.15460564827E+03 -0.83078207114E+02  0.17563519130E+03  0.00000000000E+00 0. -1.
         22    1    1    2    0    0 -0.32080279214E+02  0.33439673546E+03  0.12090782158E+04  0.12548786606E+04  0.00000000000E+00 0. -1.
<mgrwt>
<rscale>  0 0.11629672E+04</rscale>
<asrwt>0</asrwt>
<pdfrwt beam="1">  1        2 0.21033806E+00 0.11629672E+04</pdfrwt>
<pdfrwt beam="2">  1       -2 0.38047874E-01 0.11629672E+04</pdfrwt>
<totfact> 0.97400929E+01</totfact>
</mgrwt>
</event>
<event>
 6    1  0.2047711E-005  0.1622642E+04  0.7818608E-02  0.8806758E-01
         -1   -1    0    0    0  501 -0.00000000000E+00  0.00000000000E+00  0.86702305959E+03  0.86702305959E+03  0.00000000000E+00 0.  1.
          1   -1    0    0  501    0  0.00000000000E+00 -0.00000000000E+00 -0.75919726075E+03  0.75919726075E+03  0.00000000000E+00 0. -1.
         23    2    1    2    0    0  0.46373554115E+03 -0.56463796703E+03 -0.29345389050E+03  0.79261845193E+03  0.90896306658E+02 0.  0.
         11    1    3    3    0    0  0.31739077605E+03 -0.36800223927E+03 -0.23886160383E+03  0.54149553887E+03  0.00000000000E+00 0. -1.
        -11    1    3    3    0    0  0.14634476510E+03 -0.19663572776E+03 -0.54592286662E+02  0.25112291306E+03  0.00000000000E+00 0.  1.
         22    1    1    2    0    0 -0.46373554115E+03  0.56463796703E+03  0.40127968934E+03  0.83360186841E+03  0.00000000000E+00 0.  1.
<mgrwt>
<rscale>  0 0.16226417E+04</rscale>
<asrwt>0</asrwt>
<pdfrwt beam="1">  1        1 0.11679958E+00 0.16226417E+04</pdfrwt>
<pdfrwt beam="2">  1       -1 0.13338816E+00 0.16226417E+04</pdfrwt>
<totfact> 0.10934393E+01</totfact>
</mgrwt>
</event>
<event>
 6    1  0.2047711E-005  0.2979025E+04  0.7818608E-02  0.8249746E-01
         -2   -1    0    0    0  501 -0.00000000000E+00  0.00000000000E+00  0.57851857822E+03  0.57851857822E+03  0.00000000000E+00 0.  1.
          2   -1    0    0  501    0  0.00000000000E+00 -0.00000000000E+00 -0.38350500755E+04  0.38350500755E+04  0.00000000000E+00 0. -1.
         23    2    1    2    0    0 -0.98270887140E+01 -0.14851852301E+04 -0.14919506099E+04  0.21071390651E+04  0.90811219935E+02 0.  0.
         13    1    3    3    0    0 -0.27798079030E+02 -0.97877013296E+03 -0.10354537836E+04  0.14251063975E+04  0.00000000000E+00 0. -1.
        -13    1    3    3    0    0  0.17970990316E+02 -0.50641509715E+03 -0.45649682636E+03  0.68203266754E+03  0.00000000000E+00 0.  1.
         22    1    1    2    0    0  0.98270887140E+01  0.14851852301E+04 -0.17645808874E+04  0.23064295887E+04  0.00000000000E+00 0. -1.
<mgrwt>
<rscale>  0 0.29790252E+04</rscale>
<asrwt>0</asrwt>
<pdfrwt beam="1">  1        2 0.59000772E+00 0.29790252E+04</pdfrwt>
<pdfrwt beam="2">  1       -2 0.89002856E-01 0.29790252E+04</pdfrwt>
<totfact> 0.42904309E-01</totfact>
</mgrwt>
</event>
<event>
 6    1  0.2047711E-005  0.1356268E+04  0.7818608E-02  0.8986097E-01
         -2   -1    0    0    0  501 -0.00000000000E+00  0.00000000000E+00  0.97934488494E+03  0.97934488494E+03  0.00000000000E+00 0.  1.
          2   -1    0    0  501    0  0.00000000000E+00 -0.00000000000E+00 -0.46956472603E+03  0.46956472603E+03  0.00000000000E+00 0. -1.
         23    2    1    2    0    0  0.24582397516E+03 -0.56468423131E+03  0.55150891974E+03  0.83162604782E+03  0.90233513779E+02 0.  0.
         11    1    3    3    0    0  0.14844086003E+03 -0.43914666459E+03  0.41271545881E+03  0.62065975533E+03  0.00000000000E+00 0.  1.
        -11    1    3    3    0    0  0.97383115130E+02 -0.12553756672E+03  0.13879346092E+03  0.21096629249E+03  0.00000000000E+00 0. -1.
         22    1    1    2    0    0 -0.24582397516E+03  0.56468423131E+03 -0.41728760828E+02  0.61728356315E+03  0.00000000000E+00 0. -1.
<mgrwt>
<rscale>  0 0.13562681E+04</rscale>
<asrwt>0</asrwt>
<pdfrwt beam="1">  1        2 0.72240728E-01 0.13562681E+04</pdfrwt>
<pdfrwt beam="2">  1       -2 0.15066844E+00 0.13562681E+04</pdfrwt>
<totfact> 0.19128216E+01</totfact>
</mgrwt>
</event>
<event>
 6    1  0.2047711E-005  0.2494174E+04  0.7818608E-02  0.8405064E-01
          2   -1    0    0  501    0  0.00000000000E+00  0.00000000000E+00  0.23174031620E+04  0.23174031620E+04  0.00000000000E+00 0. -1.
         -2   -1    0    0    0  501 -0.00000000000E+00 -0.00000000000E+00 -0.67110738490E+03  0.67110738490E+03  0.00000000000E+00 0.  1.
         23    2    1    2    0    0 -0.60108399986E+03  0.52578528435E+03 -0.32096711156E+03  0.86533476208E+03  0.89622673736E+02 0.  0.
         11    1    3    3    0    0 -0.40113860361E+03  0.39171602713E+03 -0.25355611248E+03  0.61534082214E+03  0.00000000000E+00 0.  1.
        -11    1    3    3    0    0 -0.19994539625E+03  0.13406925722E+03 -0.67410999073E+02  0.24999393995E+03  0.00000000000E+00 0. -1.
         22    1    1    2    0    0  0.60108399986E+03 -0.52578528435E+03  0.19672628886E+04  0.21231757848E+04  0.00000000000E+00 0. -1.
<mgrwt>
<rscale>  0 0.24941743E+04</rscale>
<asrwt>0</asrwt>
<pdfrwt beam="1">  1        2 0.35652356E+00 0.24941743E+04</pdfrwt>
<pdfrwt beam="2">  1       -2 0.10324729E+00 0.24941743E+04</pdfrwt>
<totfact> 0.30260183E+00</totfact>
</mgrwt>
</event>
<event>
 6    1  0.2655615E-005  0.3221494E+04  0.7818608E-02  0.8183164E-01
          2   -1    0    0  501    0  0.00000000000E+00  0.00000000000E+00  0.12758548183E+04  0.12758548183E+04  0.00000000000E+00 0. -1.
         -2   -1    0    0    0  501 -0.00000000000E+00 -0.00000000000E+00 -0.20335435296E+04  0.20335435296E+04  0.00000000000E+00 0.  1.
         23    2    1    2    0    0  0.63712792561E+03  0.14692588070E+04 -0.21665213888E+03  0.16190214644E+04  0.98177988479E+02 0.  0.
         13    1    3    3    0    0  0.25551617452E+03  0.55318859283E+03 -0.12838296792E+03  0.62272652194E+03  0.00000000000E+00 0. -1.
        -13    1    3    3    0    0  0.38161175109E+03  0.91607021414E+03 -0.88269170965E+02  0.99629494245E+03  0.00000000000E+00 0.  1.
         22    1    1    2    0    0 -0.63712792561E+03 -0.14692588070E+04 -0.54103657241E+03  0.16903768835E+04  0.00000000000E+00 0. -1.
<mgrwt>
<rscale>  0 0.32214943E+04</rscale>
<asrwt>0</asrwt>
<pdfrwt beam="1">  1        2 0.19628536E+00 0.32214943E+04</pdfrwt>
<pdfrwt beam="2">  1       -2 0.31285285E+00 0.32214943E+04</pdfrwt>
<totfact> 0.38038789E-01</totfact>
</mgrwt>
</event>
<event>
 6    1  0.2047711E-005  0.1668691E+04  0.7818608E-02  0.8779425E-01
         -2   -1    0    0    0  501 -0.00000000000E+00  0.00000000000E+00  0.40663200978E+03  0.40663200978E+03  0.00000000000E+00 0.  1.
          2   -1    0    0  501    0  0.00000000000E+00 -0.00000000000E+00 -0.17119462641E+04  0.17119462641E+04  0.00000000000E+00 0. -1.
         23    2    1    2    0    0 -0.19593637170E+03  0.79845690674E+03 -0.49495425635E+03  0.96419193474E+03  0.93604900863E+02 0.  0.
         11    1    3    3    0    0 -0.10108549502E+03  0.23274149630E+03 -0.15874085279E+03  0.29930843581E+03  0.00000000000E+00 0. -1.
        -11    1    3    3    0    0 -0.94850876682E+02  0.56571541044E+03 -0.33621340356E+03  0.66488349893E+03  0.00000000000E+00 0.  1.
         22    1    1    2    0    0  0.19593637170E+03 -0.79845690674E+03 -0.81035999794E+03  0.11543863391E+04  0.00000000000E+00 0. -1.
<mgrwt>
<rscale>  0 0.16686907E+04</rscale>
<asrwt>0</asrwt>
<pdfrwt beam="1">  1        2 0.26337635E+00 0.16686907E+04</pdfrwt>
<pdfrwt beam="2">  1       -2 0.62558771E-01 0.16686907E+04</pdfrwt>
<totfact> 0.21829925E+01</totfact>
</mgrwt>
</event>
<event>
 6    1  0.2047711E-005  0.3998115E+04  0.7818608E-02  0.8004927E-01
         -2   -1    0    0    0  501 -0.00000000000E+00  0.00000000000E+00  0.10212008825E+04  0.10212008825E+04  0.00000000000E+00 0.  1.
          2   -1    0    0  501    0  0.00000000000E+00 -0.00000000000E+00 -0.39132671247E+04  0.39132671247E+04  0.00000000000E+00 0. -1.
         23    2    1    2    0    0  0.55342559139E+03  0.73878469072E+03 -0.36338479332E+04  0.37502709030E+04  0.87168454806E+02 0.  0.
         13    1    3    3    0    0  0.42302422405E+03  0.60764911465E+03 -0.29982308165E+04  0.30882964511E+04  0.00000000000E+00 0. -1.
        -13    1    3    3    0    0  0.13040136734E+03  0.13113557607E+03 -0.63561711673E+03  0.66197445192E+03  0.00000000000E+00 0.  1.
         22    1    1    2    0    0 -0.55342559139E+03 -0.73878469072E+03  0.74178169103E+03  0.11841971042E+04  0.00000000000E+00 0.  1.
<mgrwt>
<rscale>  0 0.39981155E+04</rscale>
<asrwt>0</asrwt>
<pdfrwt beam="1">  1        2 0.60204109E+00 0.39981155E+04</pdfrwt>
<pdfrwt beam="2">  1       -2 0.15710783E+00 0.39981155E+04</pdfrwt>
<totfact> 0.83535431E-02</totfact>
</mgrwt>
</event>
<event>
 6    1  0.2047711E-005  0.3088775E+04  0.7818608E-02  0.8218825E-01
         -1   -1    0    0    0  501 -0.00000000000E+00  0.00000000000E+00  0.10255460695E+04  0.10255460695E+04  0.00000000000E+00 0. -1.
          1   -1    0    0  501    0  0.00000000000E+00 -0.00000000000E+00 -0.23257199403E+04  0.23257199403E+04  0.00000000000E+00 0.  1.
         23    2    1    2    0    0  0.21941449845E+03 -0.15233009976E+04 -0.77200942651E+03  0.17241377630E+04  0.89798773981E+02 0.  0.
         11    1    3    3    0    0  0.19167742143E+03 -0.11149241372E+04 -0.53866376832E+03  0.12529783401E+04  0.00000000000E+00 0. -1.
        -11    1    3    3    0    0  0.27737077022E+02 -0.40837686041E+03 -0.23334565820E+03  0.47115942287E+03  0.00000000000E+00 0.  1.
         22    1    1    2    0    0 -0.21941449845E+03  0.15233009976E+04 -0.52816444420E+03  0.16271282468E+04  0.00000000000E+00 0. -1.
<mgrwt>
<rscale>  0 0.30887751E+04</rscale>
<asrwt>0</asrwt>
<pdfrwt beam="1">  1        1 0.35780307E+00 0.30887751E+04</pdfrwt>
<pdfrwt beam="2">  1       -1 0.15777632E+00 0.30887751E+04</pdfrwt>
<totfact> 0.45854315E-01</totfact>
</mgrwt>
</event>
<event>
 6    1  0.2047711E-005  0.1260520E+04  0.7818608E-02  0.9061473E-01
          2   -1    0    0  501    0  0.00000000000E+00  0.00000000000E+00  0.94397456035E+03  0.94397456035E+03  0.00000000000E+00 0. -1.
         -2   -1    0    0    0  501 -0.00000000000E+00 -0.00000000000E+00 -0.42080318370E+03  0.42080318370E+03  0.00000000000E+00 0.  1.
         23    2    1    2    0    0  0.35736257447E+03 -0.46426682728E+03  0.50447306459E+03  0.77860257960E+03  0.92071752056E+02 0.  0.
         13    1    3    3    0    0  0.22336838781E+02 -0.62818949511E+02  0.32311125398E+02  0.74088889915E+02  0.00000000000E+00 0. -1.
        -13    1    3    3    0    0  0.33502573569E+03 -0.40144787777E+03  0.47216193919E+03  0.70451368969E+03  0.00000000000E+00 0.  1.
         22    1    1    2    0    0 -0.35736257447E+03  0.46426682728E+03  0.18698312055E+02  0.58617516445E+03  0.00000000000E+00 0.  1.
<mgrwt>
<rscale>  0 0.12605197E+04</rscale>
<asrwt>0</asrwt>
<pdfrwt beam="1">  1        2 0.14522686E+00 0.12605197E+04</pdfrwt>
<pdfrwt beam="2">  1       -2 0.64738951E-01 0.12605197E+04</pdfrwt>
<totfact> 0.59315316E+01</totfact>
</mgrwt>
</event>
<event>
 6    1  0.2047711E-005  0.2700998E+04  0.7818608E-02  0.8334681E-01
         -1   -1    0    0    0  501 -0.00000000000E+00  0.00000000000E+00  0.94477412664E+03  0.94477412664E+03  0.00000000000E+00 0.  1.
          1   -1    0    0  501    0  0.00000000000E+00 -0.00000000000E+00 -0.19304584189E+04  0.19304584189E+04  0.00000000000E+00 0. -1.
         23    2    1    2    0    0 -0.21850096871E+02  0.13331514821E+04 -0.27394318206E+03  0.13638273356E+04  0.84910737633E+02 0.  0.
         13    1    3    3    0    0  0.13617755260E+02  0.16033730418E+03 -0.56186300031E+02  0.17044176331E+03  0.00000000000E+00 0.  1.
        -13    1    3    3    0    0 -0.35467852131E+02  0.11728141779E+04 -0.21775688203E+03  0.11933855722E+04  0.00000000000E+00 0. -1.
         22    1    1    2    0    0  0.21850096871E+02 -0.13331514821E+04 -0.71174111020E+03  0.15114052100E+04  0.00000000000E+00 0. -1.
<mgrwt>
<rscale>  0 0.27009977E+04</rscale>
<asrwt>0</asrwt>
<pdfrwt beam="1">  1        1 0.29699360E+00 0.27009977E+04</pdfrwt>
<pdfrwt beam="2">  1       -1 0.14534987E+00 0.27009977E+04</pdfrwt>
<totfact> 0.11010369E+00</totfact>
</mgrwt>
</event>
<event>
 6    1  0.2047711E-005  0.2737296E+04  0.7818608E-02  0.8323004E-01
          2   -1    0    0  501    0  0.00000000000E+00  0.00000000000E+00  0.16821324548E+04  0.16821324548E+04  0.00000000000E+00 0. -1.
         -2   -1    0    0    0  501 -0.00000000000E+00 -0.00000000000E+00 -0.11135851606E+04  0.11135851606E+04  0.00000000000E+00 0.  1.
         23    2    1    2    0    0  0.88401695704E+03 -0.53211317532E+03 -0.63151064050E+03  0.12130712688E+04  0.90032229831E+02 0.  0.
         13    1    3    3    0    0  0.41704478025E+03 -0.20285250375E+03 -0.26265729493E+03  0.53297686778E+03  0.00000000000E+00 0.  1.
        -13    1    3    3    0    0  0.46697217679E+03 -0.32926067157E+03 -0.36885334557E+03  0.68009440101E+03  0.00000000000E+00 0. -1.
         22    1    1    2    0    0 -0.88401695704E+03  0.53211317532E+03  0.12000579347E+04  0.15826463466E+04  0.00000000000E+00 0. -1.
<mgrwt>
<rscale>  0 0.27372963E+04</rscale>
<asrwt>0</asrwt>
<pdfrwt beam="1">  1        2 0.25878961E+00 0.27372963E+04</pdfrwt>
<pdfrwt beam="2">  1       -2 0.17132079E+00 0.27372963E+04</pdfrwt>
<totfact> 0.18308159E+00</totfact>
</mgrwt>
</event>
<event>
 6    1  0.2047711E-005  0.1140476E+04  0.7818608E-02  0.9166615E-01
         -2   -1    0    0    0  501 -0.00000000000E+00  0.00000000000E+00  0.10158725775E+03  0.10158725775E+03  0.00000000000E+00 0.  1.
          2   -1    0    0  501    0  0.00000000000E+00 -0.00000000000E+00 -0.32009072281E+04  0.32009072281E+04  0.00000000000E+00 0. -1.
         23    2    1    2    0    0 -0.20323282915E+02 -0.39015339307E+03 -0.27477012678E+04  0.27768820641E+04  0.92623078934E+02 0.  0.
         13    1    3    3    0    0  0.11065804475E+02 -0.77172976180E+02 -0.81863560834E+03  0.82233957677E+03  0.00000000000E+00 0. -1.
        -13    1    3    3    0    0 -0.31389087391E+02 -0.31298041689E+03 -0.19290656594E+04  0.19545424873E+04  0.00000000000E+00 0.  1.
         22    1    1    2    0    0  0.20323282915E+02  0.39015339307E+03 -0.35161870261E+03  0.52561242183E+03  0.00000000000E+00 0.  1.
<mgrwt>
<rscale>  0 0.11404760E+04</rscale>
<asrwt>0</asrwt>
<pdfrwt beam="1">  1        2 0.49244730E+00 0.11404760E+04</pdfrwt>
<pdfrwt beam="2">  1       -2 0.15628808E-01 0.11404760E+04</pdfrwt>
<totfact> 0.42917421E+01</totfact>
</mgrwt>
</event>
<event>
 6    1  0.2047711E-005  0.6427872E+04  0.7818608E-02  0.7639502E-01
         -2   -1    0    0    0  501 -0.00000000000E+00  0.00000000000E+00  0.28954836675E+04  0.28954836675E+04  0.00000000000E+00 0.  1.
          2   -1    0    0  501    0  0.00000000000E+00 -0.00000000000E+00 -0.35674126585E+04  0.35674126585E+04  0.00000000000E+00 0. -1.
         23    2    1    2    0    0 -0.25942357185E+04 -0.73294845282E+02 -0.22410209041E+04  0.34301614994E+04  0.91663090105E+02 0.  0.
         13    1    3    3    0    0 -0.17827561010E+04 -0.98453842725E+01 -0.15214451935E+04  0.23437388345E+04  0.00000000000E+00 0. -1.
        -13    1    3    3    0    0 -0.81147961744E+03 -0.63449461009E+02 -0.71957571055E+03  0.10864226649E+04  0.00000000000E+00 0.  1.
         22    1    1    2    0    0  0.25942357185E+04  0.73294845282E+02  0.15690919131E+04  0.30327348267E+04  0.00000000000E+00 0.  1.
<mgrwt>
<rscale>  0 0.64278721E+04</rscale>
<asrwt>0</asrwt>
<pdfrwt beam="1">  1        2 0.54883271E+00 0.64278721E+04</pdfrwt>
<pdfrwt beam="2">  1       -2 0.44545903E+00 0.64278721E+04</pdfrwt>
<totfact> 0.17691619E-03</totfact>
</mgrwt>
</event>
<event>
 6    1  0.2047711E-005  0.1087697E+04  0.7818608E-02  0.9217267E-01
         -1   -1    0    0    0  501 -0.00000000000E+00  0.00000000000E+00  0.82258960469E+03  0.82258960469E+03  0.00000000000E+00 0.  1.
          1   -1    0    0  501    0  0.00000000000E+00 -0.00000000000E+00 -0.35956122444E+03  0.35956122444E+03  0.00000000000E+00 0. -1.
         23    2    1    2    0    0  0.16892987327E+03 -0.37123900072E+03 -0.15141369824E+03  0.44465861524E+03  0.91866633545E+02 0.  0.
         13    1    3    3    0    0 -0.49960054574E+01 -0.55163435617E+02 -0.60999199765E+01  0.55724085666E+02  0.00000000000E+00 0.  1.
        -13    1    3    3    0    0  0.17392587873E+03 -0.31607556510E+03 -0.14531377826E+03  0.38893452958E+03  0.00000000000E+00 0. -1.
         22    1    1    2    0    0 -0.16892987327E+03  0.37123900072E+03  0.61444207848E+03  0.73749221389E+03  0.00000000000E+00 0.  1.
<mgrwt>
<rscale>  0 0.10876972E+04</rscale>
<asrwt>0</asrwt>
<pdfrwt beam="1">  1        1 0.55317112E-01 0.10876972E+04</pdfrwt>
<pdfrwt beam="2">  1       -1 0.12655225E+00 0.10876972E+04</pdfrwt>
<totfact> 0.37414372E+01</totfact>
</mgrwt>
</event>
<event>
 6    1  0.2047711E-005  0.5808969E+04  0.7818608E-02  0.7714549E-01
          2   -1    0    0  501    0  0.00000000000E+00  0.00000000000E+00  0.37777355720E+04  0.37777355720E+04  0.00000000000E+00 0. -1.
         -2   -1    0    0    0  501 -0.00000000000E+00 -0.00000000000E+00 -0.22330921135E+04  0.22330921135E+04  0.00000000000E+00 0.  1.
         23    2    1    2    0    0  0.25274990110E+04 -0.13967688280E+04  0.10865275010E+04  0.30869459095E+04  0.97358248959E+02 0.  0.
         13    1    3    3    0    0  0.14265658488E+04 -0.83496901623E+03  0.64901628238E+03  0.17758055957E+04  0.00000000000E+00 0. -1.
        -13    1    3    3    0    0  0.11009331622E+04 -0.56179981176E+03  0.43751121863E+03  0.13111403138E+04  0.00000000000E+00 0.  1.
         22    1    1    2    0    0 -0.25274990110E+04  0.13967688280E+04  0.45811595753E+03  0.29238817760E+04  0.00000000000E+00 0.  1.
<mgrwt>
<rscale>  0 0.58089694E+04</rscale>
<asrwt>0</asrwt>
<pdfrwt beam="1">  1        2 0.58119009E+00 0.58089694E+04</pdfrwt>
<pdfrwt beam="2">  1       -2 0.34355263E+00 0.58089694E+04</pdfrwt>
<totfact> 0.59366099E-03</totfact>
</mgrwt>
</event>
<event>
 6    1  0.2047711E-005  0.2224139E+04  0.7818608E-02  0.8508448E-01
          2   -1    0    0  501    0  0.00000000000E+00  0.00000000000E+00  0.15361556297E+04  0.15361556297E+04  0.00000000000E+00 0. -1.
         -2   -1    0    0    0  501 -0.00000000000E+00 -0.00000000000E+00 -0.80506062066E+03  0.80506062066E+03  0.00000000000E+00 0.  1.
         23    2    1    2    0    0  0.40918174945E+03 -0.41874798411E+03  0.13591746479E+04  0.14825756906E+04  0.88855932370E+02 0.  0.
         11    1    3    3    0    0  0.13796463548E+03 -0.18009236355E+03  0.61063264919E+03  0.65141364148E+03  0.00000000000E+00 0. -1.
        -11    1    3    3    0    0  0.27121711396E+03 -0.23865562056E+03  0.74854199866E+03  0.83116204912E+03  0.00000000000E+00 0.  1.
         22    1    1    2    0    0 -0.40918174945E+03  0.41874798411E+03 -0.62807963877E+03  0.85864055979E+03  0.00000000000E+00 0.  1.
<mgrwt>
<rscale>  0 0.22241388E+04</rscale>
<asrwt>0</asrwt>
<pdfrwt beam="1">  1        2 0.23633164E+00 0.22241388E+04</pdfrwt>
<pdfrwt beam="2">  1       -2 0.12385548E+00 0.22241388E+04</pdfrwt>
<totfact> 0.54221104E+00</totfact>
</mgrwt>
</event>
<event>
 6    1  0.2047711E-005  0.3345622E+04  0.7818608E-02  0.8151383E-01
          2   -1    0    0  501    0  0.00000000000E+00  0.00000000000E+00  0.20704174571E+04  0.20704174571E+04  0.00000000000E+00 0. -1.
         -2   -1    0    0    0  501 -0.00000000000E+00 -0.00000000000E+00 -0.13515615375E+04  0.13515615375E+04  0.00000000000E+00 0.  1.
         23    2    1    2    0    0 -0.82077475786E+03 -0.74350803141E+03  0.16403358269E+04  0.19812845039E+04  0.91166137685E+02 0.  0.
         13    1    3    3    0    0 -0.77805997537E+03 -0.67833437989E+03  0.15018360143E+04  0.18223683135E+04  0.00000000000E+00 0.  1.
        -13    1    3    3    0    0 -0.42714782488E+02 -0.65173651516E+02  0.13849981256E+03  0.15891619041E+03  0.00000000000E+00 0. -1.
         22    1    1    2    0    0  0.82077475786E+03  0.74350803141E+03 -0.92147990732E+03  0.14406944907E+04  0.00000000000E+00 0.  1.
<mgrwt>
<rscale>  0 0.33456220E+04</rscale>
<asrwt>0</asrwt>
<pdfrwt beam="1">  1        2 0.31852576E+00 0.33456220E+04</pdfrwt>
<pdfrwt beam="2">  1       -2 0.20793255E+00 0.33456220E+04</pdfrwt>
<totfact> 0.59976524E-01</totfact>
</mgrwt>
</event>
<event>
 6    1  0.2047711E-005  0.3506743E+04  0.7818608E-02  0.8112194E-01
         -2   -1    0    0    0  501 -0.00000000000E+00  0.00000000000E+00  0.12100089673E+04  0.12100089673E+04  0.00000000000E+00 0.  1.
          2   -1    0    0  501    0  0.00000000000E+00 -0.00000000000E+00 -0.25407348042E+04  0.25407348042E+04  0.00000000000E+00 0. -1.
         23    2    1    2    0    0 -0.49598085721E+03 -0.26165165774E+03  0.11098136768E+04  0.12466088472E+04  0.88817902974E+02 0.  0.
         13    1    3    3    0    0 -0.40150755932E+03 -0.22916931201E+03  0.83873107990E+03  0.95770387812E+03  0.00000000000E+00 0. -1.
        -13    1    3    3    0    0 -0.94473297887E+02 -0.32482345729E+02  0.27108259693E+03  0.28890496907E+03  0.00000000000E+00 0.  1.
         22    1    1    2    0    0  0.49598085721E+03  0.26165165774E+03 -0.24405395137E+04  0.25041349243E+04  0.00000000000E+00 0. -1.
<mgrwt>
<rscale>  0 0.35067432E+04</rscale>
<asrwt>0</asrwt>
<pdfrwt beam="1">  1        2 0.39088228E+00 0.35067432E+04</pdfrwt>
<pdfrwt beam="2">  1       -2 0.18615523E+00 0.35067432E+04</pdfrwt>
<totfact> 0.44538754E-01</totfact>
</mgrwt>
</event>
<event>
 6    1  0.2047711E-005  0.2947517E+04  0.7818608E-02  0.8258878E-01
         -2   -1    0    0    0  501 -0.00000000000E+00  0.00000000000E+00  0.16508830370E+04  0.16508830370E+04  0.00000000000E+00 0.  1.
          2   -1    0    0  501    0  0.00000000000E+00 -0.00000000000E+00 -0.13156381932E+04  0.13156381932E+04  0.00000000000E+00 0. -1.
         23    2    1    2    0    0  0.42382473282E+03  0.78018571242E+03  0.13498806184E+04  0.16182620173E+04  0.90978693681E+02 0.  0.
         11    1    3    3    0    0  0.14763076605E+03  0.21087614371E+03  0.44490447141E+03  0.51400737324E+03  0.00000000000E+00 0.  1.
        -11    1    3    3    0    0  0.27619396677E+03  0.56930956871E+03  0.90497614702E+03  0.11042546441E+04  0.00000000000E+00 0. -1.
         22    1    1    2    0    0 -0.42382473282E+03 -0.78018571242E+03 -0.10146357746E+04  0.13482592129E+04  0.00000000000E+00 0. -1.
<mgrwt>
<rscale>  0 0.29475174E+04</rscale>
<asrwt>0</asrwt>
<pdfrwt beam="1">  1        2 0.20240588E+00 0.29475174E+04</pdfrwt>
<pdfrwt beam="2">  1       -2 0.25398200E+00 0.29475174E+04</pdfrwt>
<totfact> 0.84531198E-01</totfact>
</mgrwt>
</event>
<event>
 6    1  0.2047711E-005  0.1283043E+04  0.7818608E-02  0.9043121E-01
          2   -1    0    0  501    0  0.00000000000E+00  0.00000000000E+00  0.17662192640E+04  0.17662192640E+04  0.00000000000E+00 0. -1.
         -2   -1    0    0    0  501 -0.00000000000E+00 -0.00000000000E+00 -0.23301184975E+03  0.23301184975E+03  0.00000000000E+00 0.  1.
         23    2    1    2    0    0  0.48857697859E+03  0.26465536237E+03  0.27619705728E+03  0.62488582876E+03  0.73807585688E+02 0.  0.
         11    1    3    3    0    0  0.24102958956E+03  0.14559979512E+03  0.10138063847E+03  0.29928681434E+03  0.00000000000E+00 0.  1.
        -11    1    3    3    0    0  0.24754738903E+03  0.11905556725E+03  0.17481641881E+03  0.32559901442E+03  0.00000000000E+00 0. -1.
         22    1    1    2    0    0 -0.48857697859E+03 -0.26465536237E+03  0.12570103570E+04  0.13743452850E+04  0.00000000000E+00 0. -1.
<mgrwt>
<rscale>  0 0.12830433E+04</rscale>
<asrwt>0</asrwt>
<pdfrwt beam="1">  1        2 0.27172603E+00 0.12830433E+04</pdfrwt>
<pdfrwt beam="2">  1       -2 0.35847978E-01 0.12830433E+04</pdfrwt>
<totfact> 0.64689662E+01</totfact>
</mgrwt>
</event>
<event>
 6    1  0.2047711E-005  0.1009137E+04  0.7818608E-02  0.9298580E-01
          2   -1    0    0  501    0  0.00000000000E+00  0.00000000000E+00  0.71154097876E+03  0.71154097876E+03  0.00000000000E+00 0. -1.
         -2   -1    0    0    0  501 -0.00000000000E+00 -0.00000000000E+00 -0.35780013279E+03  0.35780013279E+03  0.00000000000E+00 0.  1.
         23    2    1    2    0    0  0.45337124464E+03 -0.17051454977E+03  0.44869158075E+02  0.49486533596E+03  0.90872230277E+02 0.  0.
         13    1    3    3    0    0  0.20136567172E+03 -0.12195234562E+03  0.76615587937E+01  0.23554024674E+03  0.00000000000E+00 0. -1.
        -13    1    3    3    0    0  0.25200557292E+03 -0.48562204150E+02  0.37207599282E+02  0.25932508922E+03  0.00000000000E+00 0.  1.
         22    1    1    2    0    0 -0.45337124464E+03  0.17051454977E+03  0.30887168790E+03  0.57447577559E+03  0.00000000000E+00 0. -1.
<mgrwt>
<rscale>  0 0.10091372E+04</rscale>
<asrwt>0</asrwt>
<pdfrwt beam="1">  1        2 0.10946784E+00 0.10091372E+04</pdfrwt>
<pdfrwt beam="2">  1       -2 0.55046174E-01 0.10091372E+04</pdfrwt>
<totfact> 0.12432543E+02</totfact>
</mgrwt>
</event>
<event>
 6    1  0.2047711E-005  0.1540362E+04  0.7818608E-02  0.8858047E-01
         -2   -1    0    0    0  501 -0.00000000000E+00  0.00000000000E+00  0.42022994214E+03  0.42022994214E+03  0.00000000000E+00 0.  1.
          2   -1    0    0  501    0  0.00000000000E+00 -0.00000000000E+00 -0.14115582151E+04  0.14115582151E+04  0.00000000000E+00 0. -1.
         23    2    1    2    0    0 -0.20896430531E+03 -0.61157568877E+03 -0.52391549378E+01  0.65277897462E+03  0.91662625831E+02 0.  0.
         13    1    3    3    0    0 -0.14043853431E+03 -0.39671813368E+03  0.40091388792E+02  0.42274765401E+03  0.00000000000E+00 0. -1.
        -13    1    3    3    0    0 -0.68525771002E+02 -0.21485755509E+03 -0.45330543729E+02  0.23003132062E+03  0.00000000000E+00 0.  1.
         22    1    1    2    0    0  0.20896430531E+03  0.61157568877E+03 -0.98608911801E+03  0.11790091826E+04  0.00000000000E+00 0. -1.
<mgrwt>
<rscale>  0 0.15403623E+04</rscale>
<asrwt>0</asrwt>
<pdfrwt beam="1">  1        2 0.21716280E+00 0.15403623E+04</pdfrwt>
<pdfrwt beam="2">  1       -2 0.64650761E-01 0.15403623E+04</pdfrwt>
<totfact> 0.30318270E+01</totfact>
</mgrwt>
</event>
<event>
 6    1  0.2047711E-005  0.3667654E+04  0.7818608E-02  0.8075168E-01
         -2   -1    0    0    0  501 -0.00000000000E+00  0.00000000000E+00  0.10475928134E+04  0.10475928134E+04  0.00000000000E+00 0.  1.
          2   -1    0    0  501    0  0.00000000000E+00 -0.00000000000E+00 -0.32101412659E+04  0.32101412659E+04  0.00000000000E+00 0. -1.
         23    2    1    2    0    0  0.13599754122E+04 -0.97034841754E+03 -0.20824241128E+03  0.16866601256E+04  0.10172661423E+03 0.  0.
         13    1    3    3    0    0  0.47558068672E+03 -0.31921072738E+03 -0.11726556660E+03  0.58465690039E+03  0.00000000000E+00 0. -1.
        -13    1    3    3    0    0  0.88439472549E+03 -0.65113769016E+03 -0.90976844676E+02  0.11020032252E+04  0.00000000000E+00 0.  1.
         22    1    1    2    0    0 -0.13599754122E+04  0.97034841754E+03 -0.19543060412E+04  0.25710739538E+04  0.00000000000E+00 0. -1.
<mgrwt>
<rscale>  0 0.36676537E+04</rscale>
<asrwt>0</asrwt>
<pdfrwt beam="1">  1        2 0.49386789E+00 0.36676537E+04</pdfrwt>
<pdfrwt beam="2">  1       -2 0.16116813E+00 0.36676537E+04</pdfrwt>
<totfact> 0.25534776E-01</totfact>
</mgrwt>
</event>
<event>
 6    1  0.2047711E-005  0.1871851E+04  0.7818608E-02  0.8668996E-01
         -2   -1    0    0    0  501 -0.00000000000E+00  0.00000000000E+00  0.50219347583E+03  0.50219347583E+03  0.00000000000E+00 0.  1.
          2   -1    0    0  501    0  0.00000000000E+00 -0.00000000000E+00 -0.17442611539E+04  0.17442611539E+04  0.00000000000E+00 0. -1.
         23    2    1    2    0    0 -0.33656123665E+03 -0.29733148569E+03 -0.16049467015E+04  0.16690806919E+04  0.91087666078E+02 0.  0.
         13    1    3    3    0    0 -0.13846933332E+03 -0.18306819396E+03 -0.80934844256E+03  0.84126845975E+03  0.00000000000E+00 0.  1.
        -13    1    3    3    0    0 -0.19809190333E+03 -0.11426329173E+03 -0.79559825895E+03  0.82781223212E+03  0.00000000000E+00 0. -1.
         22    1    1    2    0    0  0.33656123665E+03  0.29733148569E+03  0.36287902347E+03  0.57737393782E+03  0.00000000000E+00 0.  1.
<mgrwt>
<rscale>  0 0.18718510E+04</rscale>
<asrwt>0</asrwt>
<pdfrwt beam="1">  1        2 0.26834787E+00 0.18718510E+04</pdfrwt>
<pdfrwt beam="2">  1       -2 0.77260535E-01 0.18718510E+04</pdfrwt>
<totfact> 0.12999420E+01</totfact>
</mgrwt>
</event>
<event>
 6    1  0.2862719E-005  0.3013356E+04  0.7818608E-02  0.8239927E-01
          2   -1    0    0  501    0  0.00000000000E+00  0.00000000000E+00  0.24677285530E+04  0.24677285530E+04  0.00000000000E+00 0. -1.
         -2   -1    0    0    0  501 -0.00000000000E+00 -0.00000000000E+00 -0.91990627982E+03  0.91990627982E+03  0.00000000000E+00 0.  1.
         23    2    1    2    0    0  0.26533810309E+03 -0.10476265358E+04 -0.40334450299E+03  0.11571690842E+04  0.91803234426E+02 0.  0.
         11    1    3    3    0    0  0.17007298298E+03 -0.57701245146E+03 -0.18228359872E+03  0.62856622486E+03  0.00000000000E+00 0.  1.
        -11    1    3    3    0    0  0.95265120107E+02 -0.47061408432E+03 -0.22106090428E+03  0.52860285931E+03  0.00000000000E+00 0. -1.
         22    1    1    2    0    0 -0.26533810309E+03  0.10476265358E+04  0.19511667762E+04  0.22304657486E+04  0.00000000000E+00 0. -1.
<mgrwt>
<rscale>  0 0.30133563E+04</rscale>
<asrwt>0</asrwt>
<pdfrwt beam="1">  1        2 0.37965054E+00 0.30133563E+04</pdfrwt>
<pdfrwt beam="2">  1       -2 0.14152404E+00 0.30133563E+04</pdfrwt>
<totfact> 0.10848433E+00</totfact>
</mgrwt>
</event>
<event>
 6    1  0.2047711E-005  0.1815985E+04  0.7818608E-02  0.8697845E-01
         -2   -1    0    0    0  501 -0.00000000000E+00  0.00000000000E+00  0.10532767375E+04  0.10532767375E+04  0.00000000000E+00 0.  1.
          2   -1    0    0  501    0  0.00000000000E+00 -0.00000000000E+00 -0.78274846869E+03  0.78274846869E+03  0.00000000000E+00 0. -1.
         23    2    1    2    0    0 -0.47056325124E+03  0.77289459409E+03  0.17501771665E+03  0.92612516085E+03  0.90998821038E+02 0.  0.
         11    1    3    3    0    0 -0.85451996381E+02  0.20568749333E+03  0.62759585108E+02  0.23140474092E+03  0.00000000000E+00 0.  1.
        -11    1    3    3    0    0 -0.38511125486E+03  0.56720710076E+03  0.11225813154E+03  0.69472041993E+03  0.00000000000E+00 0. -1.
         22    1    1    2    0    0  0.47056325124E+03 -0.77289459409E+03  0.95510552189E+02  0.90990004537E+03  0.00000000000E+00 0. -1.
<mgrwt>
<rscale>  0 0.18159854E+04</rscale>
<asrwt>0</asrwt>
<pdfrwt beam="1">  1        2 0.12042284E+00 0.18159854E+04</pdfrwt>
<pdfrwt beam="2">  1       -2 0.16204257E+00 0.18159854E+04</pdfrwt>
<totfact> 0.81302795E+00</totfact>
</mgrwt>
</event>
<event>
 6    1  0.2047711E-005  0.8708720E+03  0.7818608E-02  0.9462744E-01
         -2   -1    0    0    0  501 -0.00000000000E+00  0.00000000000E+00  0.12484042274E+03  0.12484042274E+03  0.00000000000E+00 0.  1.
          2   -1    0    0  501    0  0.00000000000E+00 -0.00000000000E+00 -0.15187748660E+04  0.15187748660E+04  0.00000000000E+00 0. -1.
         23    2    1    2    0    0  0.17649459354E+03 -0.34128944796E+03 -0.33755686693E+03  0.51953236805E+03  0.91325868180E+02 0.  0.
         13    1    3    3    0    0  0.12713882302E+03 -0.15249105637E+03 -0.19085235433E+03  0.27539503217E+03  0.00000000000E+00 0.  1.
        -13    1    3    3    0    0  0.49355770526E+02 -0.18879839159E+03 -0.14670451259E+03  0.24413733587E+03  0.00000000000E+00 0. -1.
         22    1    1    2    0    0 -0.17649459354E+03  0.34128944796E+03 -0.10563775764E+04  0.11240829207E+04  0.00000000000E+00 0. -1.
<mgrwt>
<rscale>  0 0.87087197E+03</rscale>
<asrwt>0</asrwt>
<pdfrwt beam="1">  1        2 0.23365767E+00 0.87087197E+03</pdfrwt>
<pdfrwt beam="2">  1       -2 0.19206219E-01 0.87087197E+03</pdfrwt>
<totfact> 0.28548974E+02</totfact>
</mgrwt>
</event>
<event>
 6    1  0.2047711E-005  0.2287885E+04  0.7818608E-02  0.8482713E-01
         -2   -1    0    0    0  501 -0.00000000000E+00  0.00000000000E+00  0.11984578394E+04  0.11984578394E+04  0.00000000000E+00 0.  1.
          2   -1    0    0  501    0  0.00000000000E+00 -0.00000000000E+00 -0.10919072829E+04  0.10919072829E+04  0.00000000000E+00 0. -1.
         23    2    1    2    0    0 -0.83434763817E+03  0.68852634431E+03  0.42006587600E+03  0.11640896836E+04  0.91896372325E+02 0.  0.
         11    1    3    3    0    0 -0.44195660761E+03  0.30549026794E+03  0.21318930767E+03  0.57801351863E+03  0.00000000000E+00 0.  1.
        -11    1    3    3    0    0 -0.39239103056E+03  0.38303607638E+03  0.20687656833E+03  0.58607616501E+03  0.00000000000E+00 0. -1.
         22    1    1    2    0    0  0.83434763817E+03 -0.68852634431E+03 -0.31351531946E+03  0.11262754386E+04  0.00000000000E+00 0. -1.
<mgrwt>
<rscale>  0 0.22878853E+04</rscale>
<asrwt>0</asrwt>
<pdfrwt beam="1">  1        2 0.16798574E+00 0.22878853E+04</pdfrwt>
<pdfrwt beam="2">  1       -2 0.18437813E+00 0.22878853E+04</pdfrwt>
<totfact> 0.33836354E+00</totfact>
</mgrwt>
</event>
<event>
 6    1  0.2047711E-005  0.1258323E+04  0.7818608E-02  0.9063284E-01
         -1   -1    0    0    0  501 -0.00000000000E+00  0.00000000000E+00  0.40740304088E+03  0.40740304088E+03  0.00000000000E+00 0.  1.
          1   -1    0    0  501    0  0.00000000000E+00 -0.00000000000E+00 -0.97162860044E+03  0.97162860044E+03  0.00000000000E+00 0. -1.
         23    2    1    2    0    0 -0.34766863128E+02  0.47410535207E+03  0.16425500552E+03  0.50916466681E+03  0.79273775344E+02 0.  0.
         13    1    3    3    0    0  0.55903305771E+01  0.23558837070E+03  0.11531777383E+03  0.26235723959E+03  0.00000000000E+00 0.  1.
        -13    1    3    3    0    0 -0.40357193705E+02  0.23851698137E+03  0.48937231694E+02  0.24680742722E+03  0.00000000000E+00 0. -1.
         22    1    1    2    0    0  0.34766863128E+02 -0.47410535207E+03 -0.72848056508E+03  0.86986697451E+03  0.00000000000E+00 0. -1.
<mgrwt>
<rscale>  0 0.12583234E+04</rscale>
<asrwt>0</asrwt>
<pdfrwt beam="1">  1        1 0.14948132E+00 0.12583234E+04</pdfrwt>
<pdfrwt beam="2">  1       -1 0.62677391E-01 0.12583234E+04</pdfrwt>
<totfact> 0.40538324E+01</totfact>
</mgrwt>
</event>
<event>
 6    1  0.2047711E-005  0.6589915E+03  0.7818608E-02  0.9790052E-01
         -2   -1    0    0    0  501 -0.00000000000E+00  0.00000000000E+00  0.19620734341E+03  0.19620734341E+03  0.00000000000E+00 0.  1.
          2   -1    0    0  501    0  0.00000000000E+00 -0.00000000000E+00 -0.55333022831E+03  0.55333022831E+03  0.00000000000E+00 0. -1.
         23    2    1    2    0    0  0.14280149192E+03  0.42506981926E+02  0.15158976995E+03  0.21945486609E+03  0.54606504113E+02 0.  0.
         13    1    3    3    0    0  0.10345618984E+03  0.24251291807E+02  0.70582810255E+02  0.12756661583E+03  0.00000000000E+00 0.  1.
        -13    1    3    3    0    0  0.39345302078E+02  0.18255690118E+02  0.81006959693E+02  0.91888250261E+02  0.00000000000E+00 0. -1.
         22    1    1    2    0    0 -0.14280149192E+03 -0.42506981926E+02 -0.50871265485E+03  0.53008270563E+03  0.00000000000E+00 0. -1.
<mgrwt>
<rscale>  0 0.65899151E+03</rscale>
<asrwt>0</asrwt>
<pdfrwt beam="1">  1        2 0.85127728E-01 0.65899151E+03</pdfrwt>
<pdfrwt beam="2">  1       -2 0.30185745E-01 0.65899151E+03</pdfrwt>
<totfact> 0.55743067E+02</totfact>
</mgrwt>
</event>
<event>
 6    1  0.2047711E-005  0.4012226E+04  0.7818608E-02  0.8002085E-01
          1   -1    0    0  501    0  0.00000000000E+00  0.00000000000E+00  0.13067831555E+04  0.13067831555E+04  0.00000000000E+00 0. -1.
         -1   -1    0    0    0  501 -0.00000000000E+00 -0.00000000000E+00 -0.30796922451E+04  0.30796922451E+04  0.00000000000E+00 0.  1.
         23    2    1    2    0    0  0.88593454719E+03 -0.17937633296E+04 -0.74064641355E+03  0.21352461503E+04  0.90841114190E+02 0.  0.
         13    1    3    3    0    0  0.41562647130E+03 -0.81054134383E+03 -0.29128860936E+03  0.95633241483E+03  0.00000000000E+00 0.  1.
        -13    1    3    3    0    0  0.47030807589E+03 -0.98322198580E+03 -0.44935780420E+03  0.11789137355E+04  0.00000000000E+00 0. -1.
         22    1    1    2    0    0 -0.88593454719E+03  0.17937633296E+04 -0.10322626760E+04  0.22512292502E+04  0.00000000000E+00 0. -1.
<mgrwt>
<rscale>  0 0.40122263E+04</rscale>
<asrwt>0</asrwt>
<pdfrwt beam="1">  1        1 0.20104356E+00 0.40122263E+04</pdfrwt>
<pdfrwt beam="2">  1       -1 0.47379881E+00 0.40122263E+04</pdfrwt>
<totfact> 0.15560051E-02</totfact>
</mgrwt>
</event>
<event>
 6    1  0.2047711E-005  0.2167206E+04  0.7818608E-02  0.8532203E-01
         -2   -1    0    0    0  501 -0.00000000000E+00  0.00000000000E+00  0.11384099980E+04  0.11384099980E+04  0.00000000000E+00 0.  1.
          2   -1    0    0  501    0  0.00000000000E+00 -0.00000000000E+00 -0.10314345494E+04  0.10314345494E+04  0.00000000000E+00 0. -1.
         23    2    1    2    0    0  0.64635917081E+02  0.10791547773E+04  0.90148652775E+02  0.10886248767E+04  0.90689070102E+02 0.  0.
         11    1    3    3    0    0 -0.52494759809E+01  0.34718990451E+03 -0.45423154453E+01  0.34725929710E+03  0.00000000000E+00 0. -1.
        -11    1    3    3    0    0  0.69885393062E+02  0.73196487281E+03  0.94690968220E+02  0.74136557963E+03  0.00000000000E+00 0.  1.
         22    1    1    2    0    0 -0.64635917081E+02 -0.10791547773E+04  0.16826795880E+02  0.10812196707E+04  0.00000000000E+00 0.  1.
<mgrwt>
<rscale>  0 0.21672059E+04</rscale>
<asrwt>0</asrwt>
<pdfrwt beam="1">  1        2 0.15868224E+00 0.21672059E+04</pdfrwt>
<pdfrwt beam="2">  1       -2 0.17514000E+00 0.21672059E+04</pdfrwt>
<totfact> 0.43202413E+00</totfact>
</mgrwt>
</event>
<event>
 6    1  0.2047711E-005  0.3785648E+04  0.7818608E-02  0.8049242E-01
         -2   -1    0    0    0  501 -0.00000000000E+00  0.00000000000E+00  0.17960885539E+04  0.17960885539E+04  0.00000000000E+00 0.  1.
          2   -1    0    0  501    0  0.00000000000E+00 -0.00000000000E+00 -0.19947692522E+04  0.19947692522E+04  0.00000000000E+00 0. -1.
         23    2    1    2    0    0  0.73288714962E+03 -0.17139629322E+03 -0.18372918440E+04  0.19876532280E+04  0.92864264313E+02 0.  0.
         11    1    3    3    0    0  0.42735870833E+03 -0.14671304415E+03 -0.10980563752E+04  0.11873870413E+04  0.00000000000E+00 0.  1.
        -11    1    3    3    0    0  0.30552844129E+03 -0.24683249079E+02 -0.73923546882E+03  0.80026618671E+03  0.00000000000E+00 0. -1.
         22    1    1    2    0    0 -0.73288714962E+03  0.17139629322E+03  0.16386111457E+04  0.18032045781E+04  0.00000000000E+00 0.  1.
<mgrwt>
<rscale>  0 0.37856477E+04</rscale>
<asrwt>0</asrwt>
<pdfrwt beam="1">  1        2 0.30688758E+00 0.37856477E+04</pdfrwt>
<pdfrwt beam="2">  1       -2 0.27632131E+00 0.37856477E+04</pdfrwt>
<totfact> 0.23945738E-01</totfact>
</mgrwt>
</event>
<event>
 6    1  0.2047711E-005  0.2188732E+04  0.7818608E-02  0.8523133E-01
          2   -1    0    0  501    0  0.00000000000E+00  0.00000000000E+00  0.84467921746E+03  0.84467921746E+03  0.00000000000E+00 0. -1.
         -2   -1    0    0    0  501 -0.00000000000E+00 -0.00000000000E+00 -0.14178600722E+04  0.14178600722E+04  0.00000000000E+00 0.  1.
         23    2    1    2    0    0 -0.30121092573E+03  0.61016164154E+03  0.59645495483E+03  0.90936776409E+03  0.90365738163E+02 0.  0.
         11    1    3    3    0    0 -0.19964477147E+03  0.40391958857E+03  0.44994449210E+03  0.63675671553E+03  0.00000000000E+00 0.  1.
        -11    1    3    3    0    0 -0.10156615426E+03  0.20624205297E+03  0.14651046273E+03  0.27261104856E+03  0.00000000000E+00 0. -1.
         22    1    1    2    0    0  0.30121092573E+03 -0.61016164154E+03 -0.11696358096E+04  0.13531715256E+04  0.00000000000E+00 0.  1.
<mgrwt>
<rscale>  0 0.21887320E+04</rscale>
<asrwt>0</asrwt>
<pdfrwt beam="1">  1        2 0.12995065E+00 0.21887320E+04</pdfrwt>
<pdfrwt beam="2">  1       -2 0.21813232E+00 0.21887320E+04</pdfrwt>
<totfact> 0.29736608E+00</totfact>
</mgrwt>
</event>
<event>
 6    1  0.2047711E-005  0.1287512E+04  0.7818608E-02  0.9039527E-01
         -2   -1    0    0    0  501 -0.00000000000E+00  0.00000000000E+00  0.42301173861E+03  0.42301173861E+03  0.00000000000E+00 0.  1.
          2   -1    0    0  501    0  0.00000000000E+00 -0.00000000000E+00 -0.97969359447E+03  0.97969359447E+03  0.00000000000E+00 0. -1.
         23    2    1    2    0    0  0.15123101786E+03 -0.20439622784E+03 -0.91975342420E+03  0.95945641605E+03  0.99807886701E+02 0.  0.
         13    1    3    3    0    0  0.11013807976E+03 -0.10356112804E+03 -0.67258798747E+03  0.68936920786E+03  0.00000000000E+00 0.  1.
        -13    1    3    3    0    0  0.41092938100E+02 -0.10083509980E+03 -0.24716543673E+03  0.27008720819E+03  0.00000000000E+00 0. -1.
         22    1    1    2    0    0 -0.15123101786E+03  0.20439622784E+03  0.36307156834E+03  0.44324891704E+03  0.00000000000E+00 0.  1.
<mgrwt>
<rscale>  0 0.12875122E+04</rscale>
<asrwt>0</asrwt>
<pdfrwt beam="1">  1        2 0.15072209E+00 0.12875122E+04</pdfrwt>
<pdfrwt beam="2">  1       -2 0.65078729E-01 0.12875122E+04</pdfrwt>
<totfact> 0.55469350E+01</totfact>
</mgrwt>
</event>
<event>
 6    1  0.2047711E-005  0.2323922E+04  0.7818608E-02  0.8468548E-01
         -2   -1    0    0    0  501 -0.00000000000E+00  0.00000000000E+00  0.10109120119E+04  0.10109120119E+04  0.00000000000E+00 0.  1.
          2   -1    0    0  501    0  0.00000000000E+00 -0.00000000000E+00 -0.13355796218E+04  0.13355796218E+04  0.00000000000E+00 0. -1.
         23    2    1    2    0    0 -0.11168747621E+04 -0.25075613888E+03 -0.35333565326E+03  0.12014546334E+04  0.91429082194E+02 0.  0.
         11    1    3    3    0    0 -0.16628000234E+03 -0.15578741910E+02 -0.77360988218E+02  0.18405558638E+03  0.00000000000E+00 0. -1.
        -11    1    3    3    0    0 -0.95059475971E+03 -0.23517739697E+03 -0.27597466504E+03  0.10173990471E+04  0.00000000000E+00 0.  1.
         22    1    1    2    0    0  0.11168747621E+04  0.25075613888E+03  0.28668043320E+02  0.11450370003E+04  0.00000000000E+00 0.  1.
<mgrwt>
<rscale>  0 0.23239221E+04</rscale>
<asrwt>0</asrwt>
<pdfrwt beam="1">  1        2 0.20547379E+00 0.23239221E+04</pdfrwt>
<pdfrwt beam="2">  1       -2 0.15552493E+00 0.23239221E+04</pdfrwt>
<totfact> 0.38803231E+00</totfact>
</mgrwt>
</event>
<event>
 6    1  0.2047711E-005  0.2482333E+04  0.7818608E-02  0.8409307E-01
         -2   -1    0    0    0  501 -0.00000000000E+00  0.00000000000E+00  0.82266987973E+03  0.82266987973E+03  0.00000000000E+00 0.  1.
          2   -1    0    0  501    0  0.00000000000E+00 -0.00000000000E+00 -0.18725541279E+04  0.18725541279E+04  0.00000000000E+00 0. -1.
         23    2    1    2    0    0 -0.73319117643E+03 -0.76779108409E+03  0.16901709244E+03  0.10788104070E+04  0.90513351362E+02 0.  0.
         13    1    3    3    0    0 -0.63570257863E+03 -0.70420600745E+03  0.14126598668E+03  0.95915585199E+03  0.00000000000E+00 0. -1.
        -13    1    3    3    0    0 -0.97488597798E+02 -0.63585076648E+02  0.27751105754E+02  0.11965455505E+03  0.00000000000E+00 0.  1.
         22    1    1    2    0    0  0.73319117643E+03  0.76779108409E+03 -0.12189013406E+04  0.16164136005E+04  0.00000000000E+00 0.  1.
<mgrwt>
<rscale>  0 0.24823327E+04</rscale>
<asrwt>0</asrwt>
<pdfrwt beam="1">  1        2 0.28808524E+00 0.24823327E+04</pdfrwt>
<pdfrwt beam="2">  1       -2 0.12656460E+00 0.24823327E+04</pdfrwt>
<totfact> 0.32645663E+00</totfact>
</mgrwt>
</event>
<event>
 6    1  0.2047711E-005  0.1349930E+04  0.7818608E-02  0.8990881E-01
          2   -1    0    0  501    0  0.00000000000E+00  0.00000000000E+00  0.17360706235E+04  0.17360706235E+04  0.00000000000E+00 0. -1.
         -2   -1    0    0    0  501 -0.00000000000E+00 -0.00000000000E+00 -0.26241896989E+03  0.26241896989E+03  0.00000000000E+00 0.  1.
         23    2    1    2    0    0 -0.19987446113E+03  0.41983250008E+03  0.14582963783E+04  0.15332531881E+04  0.89598457572E+02 0.  0.
         11    1    3    3    0    0 -0.80450469925E+02  0.88164266387E+02  0.31541139883E+03  0.33723814507E+03  0.00000000000E+00 0.  1.
        -11    1    3    3    0    0 -0.11942399121E+03  0.33166823370E+03  0.11428849794E+04  0.11960150430E+04  0.00000000000E+00 0. -1.
         22    1    1    2    0    0  0.19987446113E+03 -0.41983250008E+03  0.15355275347E+02  0.46523640530E+03  0.00000000000E+00 0.  1.
<mgrwt>
<rscale>  0 0.13499302E+04</rscale>
<asrwt>0</asrwt>
<pdfrwt beam="1">  1        2 0.26708778E+00 0.13499302E+04</pdfrwt>
<pdfrwt beam="2">  1       -2 0.40372150E-01 0.13499302E+04</pdfrwt>
<totfact> 0.53117539E+01</totfact>
</mgrwt>
</event>
<event>
 6    1  0.2047711E-005  0.5688393E+04  0.7818608E-02  0.7730285E-01
          2   -1    0    0  501    0  0.00000000000E+00  0.00000000000E+00  0.15456738189E+04  0.15456738189E+04  0.00000000000E+00 0. -1.
         -2   -1    0    0    0  501 -0.00000000000E+00 -0.00000000000E+00 -0.52336089517E+04  0.52336089517E+04  0.00000000000E+00 0.  1.
         23    2    1    2    0    0 -0.21305113917E+04  0.37288673301E+02  0.39937926141E+03  0.21698784498E+04  0.91648553278E+02 0.  0.
         13    1    3    3    0    0 -0.15942180638E+04 -0.25947038735E+01  0.32458850644E+03  0.16269282916E+04  0.00000000000E+00 0.  1.
        -13    1    3    3    0    0 -0.53629332787E+03  0.39883377174E+02  0.74790754966E+02  0.54295015823E+03  0.00000000000E+00 0. -1.
         22    1    1    2    0    0  0.21305113917E+04 -0.37288673301E+02 -0.40873143942E+04  0.46094043208E+04  0.00000000000E+00 0.  1.
<mgrwt>
<rscale>  0 0.56883925E+04</rscale>
<asrwt>0</asrwt>
<pdfrwt beam="1">  1        2 0.23779597E+00 0.56883925E+04</pdfrwt>
<pdfrwt beam="2">  1       -2 0.80517060E+00 0.56883925E+04</pdfrwt>
<totfact> 0.59980353E-04</totfact>
</mgrwt>
</event>
<event>
 6    1  0.2191601E-005  0.4095374E+04  0.7818608E-02  0.7985578E-01
         -2   -1    0    0    0  501 -0.00000000000E+00  0.00000000000E+00  0.14079533569E+04  0.14079533569E+04  0.00000000000E+00 0.  1.
          2   -1    0    0  501    0  0.00000000000E+00 -0.00000000000E+00 -0.29780972502E+04  0.29780972502E+04  0.00000000000E+00 0. -1.
         23    2    1    2    0    0 -0.15146028637E+04 -0.57545696861E+03 -0.21247071307E+04  0.26735340548E+04  0.90727029432E+02 0.  0.
         11    1    3    3    0    0 -0.16314019431E+03 -0.43889714148E+02 -0.18683993260E+03  0.25189321234E+03  0.00000000000E+00 0.  1.
        -11    1    3    3    0    0 -0.13514626694E+04 -0.53156725446E+03 -0.19378671981E+04  0.24216408425E+04  0.00000000000E+00 0. -1.
         22    1    1    2    0    0  0.15146028637E+04  0.57545696861E+03  0.55456323736E+03  0.17125165522E+04  0.00000000000E+00 0.  1.
<mgrwt>
<rscale>  0 0.40953740E+04</rscale>
<asrwt>0</asrwt>
<pdfrwt beam="1">  1        2 0.45816880E+00 0.40953740E+04</pdfrwt>
<pdfrwt beam="2">  1       -2 0.21660821E+00 0.40953740E+04</pdfrwt>
<totfact> 0.14603630E-01</totfact>
</mgrwt>
</event>
<event>
 6    1  0.2047711E-005  0.2974505E+04  0.7818608E-02  0.8251049E-01
          2   -1    0    0  501    0  0.00000000000E+00  0.00000000000E+00  0.26020969996E+04  0.26020969996E+04  0.00000000000E+00 0. -1.
         -2   -1    0    0    0  501 -0.00000000000E+00 -0.00000000000E+00 -0.85005298808E+03  0.85005298808E+03  0.00000000000E+00 0.  1.
         23    2    1    2    0    0  0.68889630529E+03  0.21537604673E+03  0.23841584846E+04  0.24927055297E+04  0.91674518885E+02 0.  0.
         13    1    3    3    0    0  0.26816018960E+03  0.43045165507E+02  0.81996110336E+03  0.86377021516E+03  0.00000000000E+00 0. -1.
        -13    1    3    3    0    0  0.42073611568E+03  0.17233088123E+03  0.15641973812E+04  0.16289353146E+04  0.00000000000E+00 0.  1.
         22    1    1    2    0    0 -0.68889630529E+03 -0.21537604673E+03 -0.63211447303E+03  0.95944445798E+03  0.00000000000E+00 0.  1.
<mgrwt>
<rscale>  0 0.29745052E+04</rscale>
<asrwt>0</asrwt>
<pdfrwt beam="1">  1        2 0.40032261E+00 0.29745052E+04</pdfrwt>
<pdfrwt beam="2">  1       -2 0.13077738E+00 0.29745052E+04</pdfrwt>
<totfact> 0.11132430E+00</totfact>
</mgrwt>
</event>
<event>
 6    1  0.2047711E-005  0.2392673E+04  0.7818608E-02  0.8442252E-01
          2   -1    0    0  501    0  0.00000000000E+00  0.00000000000E+00  0.84489699389E+03  0.84489699389E+03  0.00000000000E+00 0. -1.
         -2   -1    0    0    0  501 -0.00000000000E+00 -0.00000000000E+00 -0.16939587831E+04  0.16939587831E+04  0.00000000000E+00 0.  1.
         23    2    1    2    0    0  0.97932921731E+02  0.11490112833E+04 -0.75604573038E+03  0.13819332327E+04  0.91194992667E+02 0.  0.
         13    1    3    3    0    0  0.54589264614E+02  0.99875965908E+03 -0.66133365007E+03  0.11991092699E+04  0.00000000000E+00 0.  1.
        -13    1    3    3    0    0  0.43343657117E+02  0.15025162426E+03 -0.94712080316E+02  0.18282396277E+03  0.00000000000E+00 0. -1.
         22    1    1    2    0    0 -0.97932921731E+02 -0.11490112833E+04 -0.93016058831E+02  0.11569225443E+04  0.00000000000E+00 0. -1.
<mgrwt>
<rscale>  0 0.23926727E+04</rscale>
<asrwt>0</asrwt>
<pdfrwt beam="1">  1        2 0.12998415E+00 0.23926727E+04</pdfrwt>
<pdfrwt beam="2">  1       -2 0.26060905E+00 0.23926727E+04</pdfrwt>
<totfact> 0.15925940E+00</totfact>
</mgrwt>
</event>
<event>
 6    1  0.2047711E-005  0.2630729E+04  0.7818608E-02  0.8357837E-01
         -2   -1    0    0    0  501 -0.00000000000E+00  0.00000000000E+00  0.64592748849E+03  0.64592748849E+03  0.00000000000E+00 0.  1.
          2   -1    0    0  501    0  0.00000000000E+00 -0.00000000000E+00 -0.26786044080E+04  0.26786044080E+04  0.00000000000E+00 0. -1.
         23    2    1    2    0    0  0.66757171789E+03  0.11292195477E+04 -0.92036594494E+03  0.16046410599E+04  0.83729762640E+02 0.  0.
         13    1    3    3    0    0  0.63025511166E+03  0.10776421852E+04 -0.89512505737E+03  0.15361585378E+04  0.00000000000E+00 0.  1.
        -13    1    3    3    0    0  0.37316606227E+02  0.51577362554E+02 -0.25240887567E+02  0.68482522102E+02  0.00000000000E+00 0. -1.
         22    1    1    2    0    0 -0.66757171789E+03 -0.11292195477E+04 -0.11123109746E+04  0.17198908366E+04  0.00000000000E+00 0.  1.
<mgrwt>
<rscale>  0 0.26307293E+04</rscale>
<asrwt>0</asrwt>
<pdfrwt beam="1">  1        2 0.41209299E+00 0.26307293E+04</pdfrwt>
<pdfrwt beam="2">  1       -2 0.99373458E-01 0.26307293E+04</pdfrwt>
<totfact> 0.20223186E+00</totfact>
</mgrwt>
</event>
<event>
 6    1  0.2047711E-005  0.2056962E+04  0.7818608E-02  0.8580443E-01
          2   -1    0    0  501    0  0.00000000000E+00  0.00000000000E+00  0.23278952912E+04  0.23278952912E+04  0.00000000000E+00 0. -1.
         -2   -1    0    0    0  501 -0.00000000000E+00 -0.00000000000E+00 -0.45439017145E+03  0.45439017145E+03  0.00000000000E+00 0.  1.
         23    2    1    2    0    0  0.10347963523E+03  0.35850926956E+03  0.22318758669E+04  0.22649204816E+04  0.96736607678E+02 0.  0.
         11    1    3    3    0    0  0.72521652862E+02  0.19867766366E+03  0.15213950805E+04  0.15360257794E+04  0.00000000000E+00 0. -1.
        -11    1    3    3    0    0  0.30957982365E+02  0.15983160590E+03  0.71048078646E+03  0.72889470216E+03  0.00000000000E+00 0.  1.
         22    1    1    2    0    0 -0.10347963523E+03 -0.35850926956E+03 -0.35837074714E+03  0.51736498110E+03  0.00000000000E+00 0.  1.
<mgrwt>
<rscale>  0 0.20569616E+04</rscale>
<asrwt>0</asrwt>
<pdfrwt beam="1">  1        2 0.35813773E+00 0.20569616E+04</pdfrwt>
<pdfrwt beam="2">  1       -2 0.69906182E-01 0.20569616E+04</pdfrwt>
<totfact> 0.75371376E+00</totfact>
</mgrwt>
</event>
<event>
 6    1  0.2047711E-005  0.6170554E+04  0.7818608E-02  0.7669608E-01
          2   -1    0    0  501    0  0.00000000000E+00  0.00000000000E+00  0.29698577420E+04  0.29698577420E+04  0.00000000000E+00 0. -1.
         -2   -1    0    0    0  501 -0.00000000000E+00 -0.00000000000E+00 -0.32051818806E+04  0.32051818806E+04  0.00000000000E+00 0.  1.
         23    2    1    2    0    0  0.20555311371E+04  0.90654195612E+02  0.21820252617E+04  0.30006098216E+04  0.94861055905E+02 0.  0.
         13    1    3    3    0    0  0.17575819891E+04  0.94791503879E+02  0.18232528400E+04  0.25342317960E+04  0.00000000000E+00 0. -1.
        -13    1    3    3    0    0  0.29794914800E+03 -0.41373082669E+01  0.35877242177E+03  0.46637802557E+03  0.00000000000E+00 0.  1.
         22    1    1    2    0    0 -0.20555311371E+04 -0.90654195612E+02 -0.24173494003E+04  0.31744298011E+04  0.00000000000E+00 0.  1.
<mgrwt>
<rscale>  0 0.61705540E+04</rscale>
<asrwt>0</asrwt>
<pdfrwt beam="1">  1        2 0.45690119E+00 0.61705540E+04</pdfrwt>
<pdfrwt beam="2">  1       -2 0.49310491E+00 0.61705540E+04</pdfrwt>
<totfact> 0.22241310E-03</totfact>
</mgrwt>
</event>
<event>
 6    1  0.2047711E-005  0.3266547E+04  0.7818608E-02  0.8171460E-01
          2   -1    0    0  501    0  0.00000000000E+00  0.00000000000E+00  0.13448926183E+04  0.13448926183E+04  0.00000000000E+00 0. -1.
         -2   -1    0    0    0  501 -0.00000000000E+00 -0.00000000000E+00 -0.19834915142E+04  0.19834915142E+04  0.00000000000E+00 0.  1.
         23    2    1    2    0    0 -0.96995465084E+03  0.12687753657E+04 -0.66185041161E+03  0.17311541596E+04  0.90806408530E+02 0.  0.
         13    1    3    3    0    0 -0.51804662536E+03  0.60289646627E+03 -0.32816972820E+03  0.85997199117E+03  0.00000000000E+00 0. -1.
        -13    1    3    3    0    0 -0.45190802548E+03  0.66587889942E+03 -0.33368068341E+03  0.87118216847E+03  0.00000000000E+00 0.  1.
         22    1    1    2    0    0  0.96995465084E+03 -0.12687753657E+04  0.23251515640E+02  0.15972299729E+04  0.00000000000E+00 0.  1.
<mgrwt>
<rscale>  0 0.32665475E+04</rscale>
<asrwt>0</asrwt>
<pdfrwt beam="1">  1        2 0.20690656E+00 0.32665475E+04</pdfrwt>
<pdfrwt beam="2">  1       -2 0.30515254E+00 0.32665475E+04</pdfrwt>
<totfact> 0.38525604E-01</totfact>
</mgrwt>
</event>
<event>
 6    1  0.2047711E-005  0.6429549E+03  0.7818608E-02  0.9820089E-01
         -2   -1    0    0    0  501 -0.00000000000E+00  0.00000000000E+00  0.14507480403E+03  0.14507480403E+03  0.00000000000E+00 0.  1.
          2   -1    0    0  501    0  0.00000000000E+00 -0.00000000000E+00 -0.71237563449E+03  0.71237563449E+03  0.00000000000E+00 0. -1.
         23    2    1    2    0    0 -0.28228516687E+03  0.10573106683E+03 -0.16083483900E+03  0.35140836898E+03  0.82195026767E+02 0.  0.
         11    1    3    3    0    0 -0.18225293156E+03  0.30766727872E+02 -0.73460607891E+02  0.19889490571E+03  0.00000000000E+00 0.  1.
        -11    1    3    3    0    0 -0.10003223531E+03  0.74964338958E+02 -0.87374231109E+02  0.15251346327E+03  0.00000000000E+00 0. -1.
         22    1    1    2    0    0  0.28228516687E+03 -0.10573106683E+03 -0.40646599146E+03  0.50604206954E+03  0.00000000000E+00 0.  1.
<mgrwt>
<rscale>  0 0.64295491E+03</rscale>
<asrwt>0</asrwt>
<pdfrwt beam="1">  1        2 0.10959625E+00 0.64295491E+03</pdfrwt>
<pdfrwt beam="2">  1       -2 0.22319200E-01 0.64295491E+03</pdfrwt>
<totfact> 0.70814016E+02</totfact>
</mgrwt>
</event>
<event>
 6    1  0.2047711E-005  0.1280789E+04  0.7818608E-02  0.9044940E-01
         -2   -1    0    0    0  501 -0.00000000000E+00  0.00000000000E+00  0.19051889319E+03  0.19051889319E+03  0.00000000000E+00 0.  1.
          2   -1    0    0  501    0  0.00000000000E+00 -0.00000000000E+00 -0.21525695086E+04  0.21525695086E+04  0.00000000000E+00 0. -1.
         23    2    1    2    0    0  0.61463657738E+03  0.18522875945E+02 -0.12913664734E+04  0.14331771767E+04  0.90819777911E+02 0.  0.
         11    1    3    3    0    0  0.53096049422E+03  0.41250065474E+02 -0.11501755511E+04  0.12674874408E+04  0.00000000000E+00 0. -1.
        -11    1    3    3    0    0  0.83676083165E+02 -0.22727189529E+02 -0.14119092226E+03  0.16568973585E+03  0.00000000000E+00 0.  1.
         22    1    1    2    0    0 -0.61463657738E+03 -0.18522875945E+02 -0.67068414207E+03  0.90991122513E+03  0.00000000000E+00 0.  1.
<mgrwt>
<rscale>  0 0.12807891E+04</rscale>
<asrwt>0</asrwt>
<pdfrwt beam="1">  1        2 0.33116453E+00 0.12807891E+04</pdfrwt>
<pdfrwt beam="2">  1       -2 0.29310600E-01 0.12807891E+04</pdfrwt>
<totfact> 0.57818207E+01</totfact>
</mgrwt>
</event>
<event>
 6    1  0.2047711E-005  0.2302706E+04  0.7818608E-02  0.8476855E-01
         -2   -1    0    0    0  501 -0.00000000000E+00  0.00000000000E+00  0.71060062759E+03  0.71060062759E+03  0.00000000000E+00 0.  1.
          2   -1    0    0  501    0  0.00000000000E+00 -0.00000000000E+00 -0.18654842276E+04  0.18654842276E+04  0.00000000000E+00 0. -1.
         23    2    1    2    0    0 -0.15606289208E+03  0.39800347076E+03  0.61538448074E+03  0.75492822635E+03  0.91957483568E+02 0.  0.
         13    1    3    3    0    0 -0.12920681221E+03  0.28835114842E+03  0.38256919276E+03  0.49618542136E+03  0.00000000000E+00 0. -1.
        -13    1    3    3    0    0 -0.26856079873E+02  0.10965232235E+03  0.23281528798E+03  0.25874280500E+03  0.00000000000E+00 0.  1.
         22    1    1    2    0    0  0.15606289208E+03 -0.39800347076E+03 -0.17702680807E+04  0.18211566288E+04  0.00000000000E+00 0. -1.
<mgrwt>
<rscale>  0 0.23027065E+04</rscale>
<asrwt>0</asrwt>
<pdfrwt beam="1">  1        2 0.28699757E+00 0.23027065E+04</pdfrwt>
<pdfrwt beam="2">  1       -2 0.10932318E+00 0.23027065E+04</pdfrwt>
<totfact> 0.47973765E+00</totfact>
</mgrwt>
</event>
<event>
 6    1  0.2047711E-005  0.1406770E+04  0.7818608E-02  0.8948933E-01
         -2   -1    0    0    0  501 -0.00000000000E+00  0.00000000000E+00  0.19473759427E+03  0.19473759427E+03  0.00000000000E+00 0. -1.
          2   -1    0    0  501    0  0.00000000000E+00 -0.00000000000E+00 -0.25405995296E+04  0.25405995296E+04  0.00000000000E+00 0.  1.
         23    2    1    2    0    0 -0.59505843211E+03  0.66759359441E+02 -0.18845321288E+04  0.19794425941E+04  0.90444951592E+02 0.  0.
         13    1    3    3    0    0 -0.31790825347E+03 -0.87746903925E+01 -0.95924054943E+03  0.10105865052E+04  0.00000000000E+00 0.  1.
        -13    1    3    3    0    0 -0.27715017864E+03  0.75534049834E+02 -0.92529157936E+03  0.96885608892E+03  0.00000000000E+00 0. -1.
         22    1    1    2    0    0  0.59505843211E+03 -0.66759359441E+02 -0.46132980654E+03  0.75589452975E+03  0.00000000000E+00 0. -1.
<mgrwt>
<rscale>  0 0.14067697E+04</rscale>
<asrwt>0</asrwt>
<pdfrwt beam="1">  1        2 0.39086147E+00 0.14067697E+04</pdfrwt>
<pdfrwt beam="2">  1       -2 0.29959630E-01 0.14067697E+04</pdfrwt>
<totfact> 0.33103190E+01</totfact>
</mgrwt>
</event>
<event>
 6    1  0.2047711E-005  0.2415305E+04  0.7818608E-02  0.8433796E-01
          2   -1    0    0  501    0  0.00000000000E+00  0.00000000000E+00  0.27172390742E+04  0.27172390742E+04  0.00000000000E+00 0. -1.
         -2   -1    0    0    0  501 -0.00000000000E+00 -0.00000000000E+00 -0.53673010096E+03  0.53673010096E+03  0.00000000000E+00 0.  1.
         23    2    1    2    0    0  0.10162969870E+04  0.39970556478E+03  0.40260326004E+03  0.11674474692E+04  0.90664789643E+02 0.  0.
         11    1    3    3    0    0  0.45781614849E+03  0.15913601356E+03  0.22196861914E+03  0.53309470502E+03  0.00000000000E+00 0. -1.
        -11    1    3    3    0    0  0.55848083851E+03  0.24056955122E+03  0.18063464089E+03  0.63435276420E+03  0.00000000000E+00 0.  1.
         22    1    1    2    0    0 -0.10162969870E+04 -0.39970556478E+03  0.17779057132E+04  0.20865217060E+04  0.00000000000E+00 0. -1.
<mgrwt>
<rscale>  0 0.24153045E+04</rscale>
<asrwt>0</asrwt>
<pdfrwt beam="1">  1        2 0.41803677E+00 0.24153045E+04</pdfrwt>
<pdfrwt beam="2">  1       -2 0.82573863E-01 0.24153045E+04</pdfrwt>
<totfact> 0.29972721E+00</totfact>
</mgrwt>
</event>
<event>
 6    1  0.2047711E-005  0.3822109E+04  0.7818608E-02  0.8041427E-01
         -2   -1    0    0    0  501 -0.00000000000E+00  0.00000000000E+00  0.90404091844E+03  0.90404091844E+03  0.00000000000E+00 0. -1.
          2   -1    0    0  501    0  0.00000000000E+00 -0.00000000000E+00 -0.40397828101E+04  0.40397828101E+04  0.00000000000E+00 0.  1.
         23    2    1    2    0    0  0.19449232825E+03  0.47861675603E+03 -0.39471817555E+04  0.39818799061E+04  0.90678061182E+02 0.  0.
         13    1    3    3    0    0  0.26110976374E+02  0.15871979759E+03 -0.13886261824E+04  0.13979114534E+04  0.00000000000E+00 0.  1.
        -13    1    3    3    0    0  0.16838135188E+03  0.31989695844E+03 -0.25585555731E+04  0.25839684526E+04  0.00000000000E+00 0. -1.
         22    1    1    2    0    0 -0.19449232825E+03 -0.47861675603E+03  0.81143986384E+03  0.96194382244E+03  0.00000000000E+00 0. -1.
<mgrwt>
<rscale>  0 0.38221088E+04</rscale>
<asrwt>0</asrwt>
<pdfrwt beam="1">  1        2 0.62150505E+00 0.38221088E+04</pdfrwt>
<pdfrwt beam="2">  1       -2 0.13908322E+00 0.38221088E+04</pdfrwt>
<totfact> 0.92505771E-02</totfact>
</mgrwt>
</event>
<event>
 6    1  0.2047711E-005  0.8752857E+03  0.7818608E-02  0.9457014E-01
         -2   -1    0    0    0  501 -0.00000000000E+00  0.00000000000E+00  0.44318436587E+03  0.44318436587E+03  0.00000000000E+00 0.  1.
          2   -1    0    0  501    0  0.00000000000E+00 -0.00000000000E+00 -0.43217062968E+03  0.43217062968E+03  0.00000000000E+00 0. -1.
         23    2    1    2    0    0 -0.11100200912E+03  0.37093162637E+03  0.19962522976E+03  0.44467412416E+03  0.89292367378E+02 0.  0.
         11    1    3    3    0    0 -0.53791093868E+02  0.21712207537E+03  0.16233929864E+03  0.27638655046E+03  0.00000000000E+00 0. -1.
        -11    1    3    3    0    0 -0.57210915248E+02  0.15380955100E+03  0.37285931121E+02  0.16828757370E+03  0.00000000000E+00 0.  1.
         22    1    1    2    0    0  0.11100200912E+03 -0.37093162637E+03 -0.18861149357E+03  0.43068087139E+03  0.00000000000E+00 0. -1.
<mgrwt>
<rscale>  0 0.87528571E+03</rscale>
<asrwt>0</asrwt>
<pdfrwt beam="1">  1        2 0.66487789E-01 0.87528571E+03</pdfrwt>
<pdfrwt beam="2">  1       -2 0.68182210E-01 0.87528571E+03</pdfrwt>
<totfact> 0.14412145E+02</totfact>
</mgrwt>
</event>
<event>
 6    1  0.2047711E-005  0.1375255E+04  0.7818608E-02  0.8971928E-01
         -2   -1    0    0    0  501 -0.00000000000E+00  0.00000000000E+00  0.14300243594E+04  0.14300243594E+04  0.00000000000E+00 0.  1.
          2   -1    0    0  501    0  0.00000000000E+00 -0.00000000000E+00 -0.33064583609E+03  0.33064583609E+03  0.00000000000E+00 0. -1.
         23    2    1    2    0    0  0.53495026803E+03 -0.26408152569E+03  0.12213270182E+03  0.61571594439E+03  0.90988383035E+02 0.  0.
         11    1    3    3    0    0  0.28524465955E+03 -0.11937606938E+03  0.21092766674E+02  0.30993558451E+03  0.00000000000E+00 0.  1.
        -11    1    3    3    0    0  0.24970560848E+03 -0.14470545631E+03  0.10103993514E+03  0.30578035988E+03  0.00000000000E+00 0. -1.
         22    1    1    2    0    0 -0.53495026803E+03  0.26408152569E+03  0.97724582154E+03  0.11449542511E+04  0.00000000000E+00 0.  1.
<mgrwt>
<rscale>  0 0.13752550E+04</rscale>
<asrwt>0</asrwt>
<pdfrwt beam="1">  1        2 0.50868591E-01 0.13752550E+04</pdfrwt>
<pdfrwt beam="2">  1       -2 0.22000375E+00 0.13752550E+04</pdfrwt>
<totfact> 0.94873694E+00</totfact>
</mgrwt>
</event>
<event>
 6    1  0.2047711E-005  0.1249297E+04  0.7818608E-02  0.9070769E-01
          2   -1    0    0  501    0  0.00000000000E+00  0.00000000000E+00  0.61271353653E+03  0.61271353653E+03  0.00000000000E+00 0. -1.
         -2   -1    0    0    0  501 -0.00000000000E+00 -0.00000000000E+00 -0.63681601164E+03  0.63681601164E+03  0.00000000000E+00 0.  1.
         23    2    1    2    0    0 -0.39979697998E+03 -0.17633952977E+03  0.42963222395E+03  0.61960222530E+03  0.91595932104E+02 0.  0.
         11    1    3    3    0    0 -0.19077940383E+03 -0.80387679193E+02  0.14070435837E+03  0.25031315658E+03  0.00000000000E+00 0. -1.
        -11    1    3    3    0    0 -0.20901757615E+03 -0.95951850581E+02  0.28892786557E+03  0.36928906872E+03  0.00000000000E+00 0.  1.
         22    1    1    2    0    0  0.39979697998E+03  0.17633952977E+03 -0.45373469906E+03  0.62992732287E+03  0.00000000000E+00 0.  1.
<mgrwt>
<rscale>  0 0.12492971E+04</rscale>
<asrwt>0</asrwt>
<pdfrwt beam="1">  1        2 0.94263621E-01 0.12492971E+04</pdfrwt>
<pdfrwt beam="2">  1       -2 0.97971694E-01 0.12492971E+04</pdfrwt>
<totfact> 0.41239382E+01</totfact>
</mgrwt>
</event>
<event>
 6    1  0.2047711E-005  0.3939006E+04  0.7818608E-02  0.8016965E-01
         -2   -1    0    0    0  501 -0.00000000000E+00  0.00000000000E+00  0.16210317234E+04  0.16210317234E+04  0.00000000000E+00 0.  1.
          2   -1    0    0  501    0  0.00000000000E+00 -0.00000000000E+00 -0.23928842225E+04  0.23928842225E+04  0.00000000000E+00 0. -1.
         23    2    1    2    0    0  0.31258037052E+03 -0.18117569687E+04 -0.11026481123E+04  0.21458700312E+04  0.93570988251E+02 0.  0.
         13    1    3    3    0    0  0.17889178685E+03 -0.12591296461E+04 -0.73737937605E+03  0.14700809778E+04  0.00000000000E+00 0.  1.
        -13    1    3    3    0    0  0.13368858367E+03 -0.55262732260E+03 -0.36526873623E+03  0.67578905344E+03  0.00000000000E+00 0. -1.
         22    1    1    2    0    0 -0.31258037052E+03  0.18117569687E+04  0.33079561314E+03  0.18680459146E+04  0.00000000000E+00 0.  1.
<mgrwt>
<rscale>  0 0.39390056E+04</rscale>
<asrwt>0</asrwt>
<pdfrwt beam="1">  1        2 0.36813603E+00 0.39390056E+04</pdfrwt>
<pdfrwt beam="2">  1       -2 0.24938950E+00 0.39390056E+04</pdfrwt>
<totfact> 0.20622843E-01</totfact>
</mgrwt>
</event>
<event>
 6    1  0.2047711E-005  0.7220322E+03  0.7818608E-02  0.9680279E-01
         -2   -1    0    0    0  501 -0.00000000000E+00  0.00000000000E+00  0.93736988068E+03  0.93736988068E+03  0.00000000000E+00 0.  1.
          2   -1    0    0  501    0  0.00000000000E+00 -0.00000000000E+00 -0.13904077721E+03  0.13904077721E+03  0.00000000000E+00 0. -1.
         23    2    1    2    0    0  0.15122589749E+03  0.30807806368E+03  0.54267255201E+03  0.64846014942E+03  0.90695652023E+02 0.  0.
         13    1    3    3    0    0  0.38561998921E+02  0.19677389440E+02  0.91975932015E+02  0.10165529738E+03  0.00000000000E+00 0. -1.
        -13    1    3    3    0    0  0.11266389857E+03  0.28840067424E+03  0.45069661999E+03  0.54680485204E+03  0.00000000000E+00 0.  1.
         22    1    1    2    0    0 -0.15122589749E+03 -0.30807806368E+03  0.25565655147E+03  0.42795050847E+03  0.00000000000E+00 0. -1.
<mgrwt>
<rscale>  0 0.72203223E+03</rscale>
<asrwt>0</asrwt>
<pdfrwt beam="1">  1        2 0.21390889E-01 0.72203223E+03</pdfrwt>
<pdfrwt beam="2">  1       -2 0.14421075E+00 0.72203223E+03</pdfrwt>
<totfact> 0.88309538E+01</totfact>
</mgrwt>
</event>
<event>
 6    1  0.2047711E-005  0.3974222E+04  0.7818608E-02  0.8009767E-01
          2   -1    0    0  501    0  0.00000000000E+00  0.00000000000E+00  0.25520281490E+04  0.25520281490E+04  0.00000000000E+00 0. -1.
         -2   -1    0    0    0  501 -0.00000000000E+00 -0.00000000000E+00 -0.15472440034E+04  0.15472440034E+04  0.00000000000E+00 0.  1.
         23    2    1    2    0    0 -0.55032628383E+03  0.16314038095E+04 -0.51829579670E+03  0.18005529613E+04  0.94989605603E+02 0.  0.
         13    1    3    3    0    0 -0.32642907225E+03  0.10157480496E+04 -0.36636095206E+03  0.11280604534E+04  0.00000000000E+00 0.  1.
        -13    1    3    3    0    0 -0.22389721159E+03  0.61565575997E+03 -0.15193484464E+03  0.67249250789E+03  0.00000000000E+00 0. -1.
         22    1    1    2    0    0  0.55032628383E+03 -0.16314038095E+04  0.15230799423E+04  0.22987191910E+04  0.00000000000E+00 0. -1.
<mgrwt>
<rscale>  0 0.39742221E+04</rscale>
<asrwt>0</asrwt>
<pdfrwt beam="1">  1        2 0.39261971E+00 0.39742221E+04</pdfrwt>
<pdfrwt beam="2">  1       -2 0.23803754E+00 0.39742221E+04</pdfrwt>
<totfact> 0.19551582E-01</totfact>
</mgrwt>
</event>
<event>
 6    1  0.2047711E-005  0.1132357E+04  0.7818608E-02  0.9174216E-01
          2   -1    0    0  501    0  0.00000000000E+00  0.00000000000E+00  0.36235727097E+04  0.36235727097E+04  0.00000000000E+00 0. -1.
         -2   -1    0    0    0  501 -0.00000000000E+00 -0.00000000000E+00 -0.88464669651E+02  0.88464669651E+02  0.00000000000E+00 0.  1.
         23    2    1    2    0    0 -0.24222946518E+03  0.50769194789E+03  0.17957708069E+04  0.18840001155E+04  0.90760212644E+02 0.  0.
         11    1    3    3    0    0 -0.10430536067E+03  0.24375646185E+03  0.99249201586E+03  0.10272960734E+04  0.00000000000E+00 0. -1.
        -11    1    3    3    0    0 -0.13792410451E+03  0.26393548604E+03  0.80327879109E+03  0.85670404201E+03  0.00000000000E+00 0.  1.
         22    1    1    2    0    0  0.24222946518E+03 -0.50769194789E+03  0.17393372331E+04  0.18280372639E+04  0.00000000000E+00 0.  1.
<mgrwt>
<rscale>  0 0.11323571E+04</rscale>
<asrwt>0</asrwt>
<pdfrwt beam="1">  1        2 0.55747261E+00 0.11323571E+04</pdfrwt>
<pdfrwt beam="2">  1       -2 0.13609952E-01 0.11323571E+04</pdfrwt>
<totfact> 0.28136951E+01</totfact>
</mgrwt>
</event>
<event>
 6    1  0.2047711E-005  0.2478757E+04  0.7818608E-02  0.8410593E-01
          2   -1    0    0  501    0  0.00000000000E+00  0.00000000000E+00  0.31510558043E+04  0.31510558043E+04  0.00000000000E+00 0. -1.
         -2   -1    0    0    0  501 -0.00000000000E+00 -0.00000000000E+00 -0.48747456306E+03  0.48747456306E+03  0.00000000000E+00 0.  1.
         23    2    1    2    0    0  0.12242380197E+04  0.18243747090E+03  0.13243633429E+04  0.18149222025E+04  0.89231035436E+02 0.  0.
         13    1    3    3    0    0  0.39976712172E+03  0.22933311269E+02  0.39769011834E+03  0.56435548957E+03  0.00000000000E+00 0. -1.
        -13    1    3    3    0    0  0.82447089793E+03  0.15950415963E+03  0.92667322457E+03  0.12505667130E+04  0.00000000000E+00 0.  1.
         22    1    1    2    0    0 -0.12242380197E+04 -0.18243747090E+03  0.13392178983E+04  0.18236081648E+04  0.00000000000E+00 0. -1.
<mgrwt>
<rscale>  0 0.24787574E+04</rscale>
<asrwt>0</asrwt>
<pdfrwt beam="1">  1        2 0.48477780E+00 0.24787574E+04</pdfrwt>
<pdfrwt beam="2">  1       -2 0.74996089E-01 0.24787574E+04</pdfrwt>
<totfact> 0.19917965E+00</totfact>
</mgrwt>
</event>
<event>
 6    1  0.2047711E-005  0.2998630E+04  0.7818608E-02  0.8244122E-01
         -2   -1    0    0    0  501 -0.00000000000E+00  0.00000000000E+00  0.91838995976E+03  0.91838995976E+03  0.00000000000E+00 0.  1.
          2   -1    0    0  501    0  0.00000000000E+00 -0.00000000000E+00 -0.24477026164E+04  0.24477026164E+04  0.00000000000E+00 0. -1.
         23    2    1    2    0    0 -0.81152024761E+03  0.11505140613E+04 -0.13393940010E+04  0.19454178022E+04  0.91795521739E+02 0.  0.
         13    1    3    3    0    0 -0.40980927249E+03  0.62214882418E+03 -0.76226384427E+03  0.10658606698E+04  0.00000000000E+00 0.  1.
        -13    1    3    3    0    0 -0.40171097511E+03  0.52836523710E+03 -0.57713015674E+03  0.87955713238E+03  0.00000000000E+00 0. -1.
         22    1    1    2    0    0  0.81152024761E+03 -0.11505140613E+04 -0.18991865560E+03  0.14206747739E+04  0.00000000000E+00 0.  1.
<mgrwt>
<rscale>  0 0.29986300E+04</rscale>
<asrwt>0</asrwt>
<pdfrwt beam="1">  1        2 0.37656964E+00 0.29986300E+04</pdfrwt>
<pdfrwt beam="2">  1       -2 0.14129076E+00 0.29986300E+04</pdfrwt>
<totfact> 0.11202758E+00</totfact>
</mgrwt>
</event>
<event>
 6    1  0.2047711E-005  0.4517170E+04  0.7818608E-02  0.7907638E-01
          2   -1    0    0  501    0  0.00000000000E+00  0.00000000000E+00  0.16153458173E+04  0.16153458173E+04  0.00000000000E+00 0. -1.
         -2   -1    0    0    0  501 -0.00000000000E+00 -0.00000000000E+00 -0.31579659243E+04  0.31579659243E+04  0.00000000000E+00 0.  1.
         23    2    1    2    0    0 -0.22422295475E+04 -0.81546935222E+02 -0.50646527697E+03  0.23019032205E+04  0.89488063257E+02 0.  0.
         13    1    3    3    0    0 -0.96140329943E+03 -0.15976716413E+02 -0.25807751880E+03  0.99556796118E+03  0.00000000000E+00 0. -1.
        -13    1    3    3    0    0 -0.12808262481E+04 -0.65570218809E+02 -0.24838775817E+03  0.13063352593E+04  0.00000000000E+00 0.  1.
         22    1    1    2    0    0  0.22422295475E+04  0.81546935222E+02 -0.10361548301E+04  0.24714085211E+04  0.00000000000E+00 0.  1.
<mgrwt>
<rscale>  0 0.45171704E+04</rscale>
<asrwt>0</asrwt>
<pdfrwt beam="1">  1        2 0.24851474E+00 0.45171704E+04</pdfrwt>
<pdfrwt beam="2">  1       -2 0.48584091E+00 0.45171704E+04</pdfrwt>
<totfact> 0.16812813E-02</totfact>
</mgrwt>
</event>
<event>
 6    1  0.2047711E-005  0.1996013E+04  0.7818608E-02  0.8608487E-01
          2   -1    0    0  501    0  0.00000000000E+00  0.00000000000E+00  0.19764538650E+04  0.19764538650E+04  0.00000000000E+00 0.  1.
         -2   -1    0    0    0  501 -0.00000000000E+00 -0.00000000000E+00 -0.50394135850E+03  0.50394135850E+03  0.00000000000E+00 0. -1.
         23    2    1    2    0    0 -0.69396405407E+03 -0.34180551159E+03 -0.41484086304E+02  0.78021793889E+03  0.92746895606E+02 0.  0.
         13    1    3    3    0    0 -0.20046140046E+03 -0.14096457496E+03 -0.33586558601E+02  0.24735367672E+03  0.00000000000E+00 0. -1.
        -13    1    3    3    0    0 -0.49350265362E+03 -0.20084093663E+03 -0.78975277034E+01  0.53286426217E+03  0.00000000000E+00 0.  1.
         22    1    1    2    0    0  0.69396405407E+03  0.34180551159E+03  0.15139965928E+04  0.17001772846E+04  0.00000000000E+00 0.  1.
<mgrwt>
<rscale>  0 0.19960129E+04</rscale>
<asrwt>0</asrwt>
<pdfrwt beam="1">  1        2 0.30406982E+00 0.19960129E+04</pdfrwt>
<pdfrwt beam="2">  1       -2 0.77529441E-01 0.19960129E+04</pdfrwt>
<totfact> 0.94900211E+00</totfact>
</mgrwt>
</event>
<event>
 6    1  0.2047711E-005  0.3298280E+04  0.7818608E-02  0.8163333E-01
          2   -1    0    0  501    0  0.00000000000E+00  0.00000000000E+00  0.26948298262E+04  0.26948298262E+04  0.00000000000E+00 0. -1.
         -2   -1    0    0    0  501 -0.00000000000E+00 -0.00000000000E+00 -0.10092149278E+04  0.10092149278E+04  0.00000000000E+00 0.  1.
         23    2    1    2    0    0  0.61384986853E+03 -0.13716125874E+04  0.84068766921E+02  0.15078929463E+04  0.92416604278E+02 0.  0.
         13    1    3    3    0    0  0.37099688376E+03 -0.72193626410E+03  0.59855024094E+02  0.81388775706E+03  0.00000000000E+00 0. -1.
        -13    1    3    3    0    0  0.24285298476E+03 -0.64967632334E+03  0.24213742827E+02  0.69400518922E+03  0.00000000000E+00 0.  1.
         22    1    1    2    0    0 -0.61384986853E+03  0.13716125874E+04  0.16015461315E+04  0.21961518077E+04  0.00000000000E+00 0. -1.
<mgrwt>
<rscale>  0 0.32982798E+04</rscale>
<asrwt>0</asrwt>
<pdfrwt beam="1">  1        2 0.41458920E+00 0.32982798E+04</pdfrwt>
<pdfrwt beam="2">  1       -2 0.15526384E+00 0.32982798E+04</pdfrwt>
<totfact> 0.61027321E-01</totfact>
</mgrwt>
</event>
<event>
 6    1  0.2047711E-005  0.3362946E+04  0.7818608E-02  0.8147061E-01
          2   -1    0    0  501    0  0.00000000000E+00  0.00000000000E+00  0.20798079898E+04  0.20798079898E+04  0.00000000000E+00 0. -1.
         -2   -1    0    0    0  501 -0.00000000000E+00 -0.00000000000E+00 -0.13594289377E+04  0.13594289377E+04  0.00000000000E+00 0.  1.
         23    2    1    2    0    0  0.26652560636E+03 -0.96272393991E+03 -0.10212653632E+04  0.14314524390E+04  0.90553076732E+02 0.  0.
         13    1    3    3    0    0  0.12466439499E+02 -0.15949966700E+03 -0.18154475656E+03  0.24197945062E+03  0.00000000000E+00 0. -1.
        -13    1    3    3    0    0  0.25405916686E+03 -0.80322427291E+03 -0.83972060661E+03  0.11894729884E+04  0.00000000000E+00 0.  1.
         22    1    1    2    0    0 -0.26652560636E+03  0.96272393991E+03  0.17416444152E+04  0.20077844885E+04  0.00000000000E+00 0. -1.
<mgrwt>
<rscale>  0 0.33629458E+04</rscale>
<asrwt>0</asrwt>
<pdfrwt beam="1">  1        2 0.31997046E+00 0.33629458E+04</pdfrwt>
<pdfrwt beam="2">  1       -2 0.20914291E+00 0.33629458E+04</pdfrwt>
<totfact> 0.58118327E-01</totfact>
</mgrwt>
</event>
<event>
 6    1  0.2047711E-005  0.2409705E+04  0.7818608E-02  0.8435879E-01
          4   -1    0    0  501    0  0.00000000000E+00  0.00000000000E+00  0.62774606081E+03  0.62774606081E+03  0.00000000000E+00 0. -1.
         -4   -1    0    0    0  501 -0.00000000000E+00 -0.00000000000E+00 -0.23125114842E+04  0.23125114842E+04  0.00000000000E+00 0.  1.
         23    2    1    2    0    0  0.45352726620E+03  0.43697362684E+03 -0.20944096923E+04  0.21889644206E+04  0.91544219448E+02 0.  0.
         11    1    3    3    0    0  0.37293583262E+03  0.30678439974E+03 -0.15569514939E+04  0.16301213935E+04  0.00000000000E+00 0. -1.
        -11    1    3    3    0    0  0.80591433583E+02  0.13018922709E+03 -0.53745819831E+03  0.55884302711E+03  0.00000000000E+00 0.  1.
         22    1    1    2    0    0 -0.45352726620E+03 -0.43697362684E+03  0.40964426884E+03  0.75129312438E+03  0.00000000000E+00 0. -1.
<mgrwt>
<rscale>  0 0.24097054E+04</rscale>
<asrwt>0</asrwt>
<pdfrwt beam="1">  1        4 0.96576317E-01 0.24097054E+04</pdfrwt>
<pdfrwt beam="2">  1       -4 0.35577100E+00 0.24097054E+04</pdfrwt>
<totfact> 0.21880918E-02</totfact>
</mgrwt>
</event>
<event>
 6    1  0.2047711E-005  0.9551733E+03  0.7818608E-02  0.9359124E-01
          2   -1    0    0  501    0  0.00000000000E+00  0.00000000000E+00  0.26463669395E+04  0.26463669395E+04  0.00000000000E+00 0. -1.
         -2   -1    0    0    0  501 -0.00000000000E+00 -0.00000000000E+00 -0.86189483827E+02  0.86189483827E+02  0.00000000000E+00 0.  1.
         23    2    1    2    0    0 -0.47176586023E+03 -0.32784205787E+02  0.12925632082E+04  0.13796027244E+04  0.94584348491E+02 0.  0.
         13    1    3    3    0    0 -0.15959147194E+03  0.28216130898E+02  0.49933388806E+03  0.52497611348E+03  0.00000000000E+00 0. -1.
        -13    1    3    3    0    0 -0.31217438829E+03 -0.61000336685E+02  0.79322932009E+03  0.85462661089E+03  0.00000000000E+00 0.  1.
         22    1    1    2    0    0  0.47176586023E+03  0.32784205787E+02  0.12676142475E+04  0.13529536990E+04  0.00000000000E+00 0. -1.
<mgrwt>
<rscale>  0 0.95517328E+03</rscale>
<asrwt>0</asrwt>
<pdfrwt beam="1">  1        2 0.40713331E+00 0.95517328E+03</pdfrwt>
<pdfrwt beam="2">  1       -2 0.13259923E-01 0.95517328E+03</pdfrwt>
<totfact> 0.12578997E+02</totfact>
</mgrwt>
</event>
<event>
 6    1  0.2047711E-005  0.4835480E+04  0.7818608E-02  0.7854399E-01
         -3   -1    0    0    0  501 -0.00000000000E+00  0.00000000000E+00  0.37503234890E+04  0.37503234890E+04  0.00000000000E+00 0. -1.
          3   -1    0    0  501    0  0.00000000000E+00 -0.00000000000E+00 -0.15586564929E+04  0.15586564929E+04  0.00000000000E+00 0.  1.
         23    2    1    2    0    0 -0.62976023695E+03 -0.86620567410E+03 -0.12828017969E+04  0.16732072141E+04  0.84449425016E+02 0.  0.
         13    1    3    3    0    0 -0.12225034305E+03 -0.20395534607E+03 -0.32965764987E+03  0.40646905871E+03  0.00000000000E+00 0. -1.
        -13    1    3    3    0    0 -0.50750989390E+03 -0.66225032803E+03 -0.95314414703E+03  0.12667381554E+04  0.00000000000E+00 0.  1.
         22    1    1    2    0    0  0.62976023695E+03  0.86620567410E+03  0.34744687930E+04  0.36357727678E+04  0.00000000000E+00 0. -1.
<mgrwt>
<rscale>  0 0.48354797E+04</rscale>
<asrwt>0</asrwt>
<pdfrwt beam="1">  1        3 0.23979331E+00 0.48354797E+04</pdfrwt>
<pdfrwt beam="2">  1       -3 0.57697284E+00 0.48354797E+04</pdfrwt>
<totfact> 0.19220022E-04</totfact>
</mgrwt>
</event>
<event>
 6    1  0.2047711E-005  0.2723796E+04  0.7818608E-02  0.8327325E-01
         -2   -1    0    0    0  501 -0.00000000000E+00  0.00000000000E+00  0.54011104956E+03  0.54011104956E+03  0.00000000000E+00 0.  1.
          2   -1    0    0  501    0  0.00000000000E+00 -0.00000000000E+00 -0.34340470503E+04  0.34340470503E+04  0.00000000000E+00 0. -1.
         23    2    1    2    0    0 -0.84117109691E+03 -0.17650867283E+03 -0.29870711135E+04  0.31096361076E+04  0.92297121261E+02 0.  0.
         11    1    3    3    0    0 -0.39204295050E+03 -0.10681812484E+03 -0.12692315223E+04  0.13326876769E+04  0.00000000000E+00 0. -1.
        -11    1    3    3    0    0 -0.44912814642E+03 -0.69690547998E+02 -0.17178395911E+04  0.17769484307E+04  0.00000000000E+00 0.  1.
         22    1    1    2    0    0  0.84117109691E+03  0.17650867283E+03  0.93135112776E+02  0.86452199226E+03  0.00000000000E+00 0.  1.
<mgrwt>
<rscale>  0 0.27237964E+04</rscale>
<asrwt>0</asrwt>
<pdfrwt beam="1">  1        2 0.52831494E+00 0.27237964E+04</pdfrwt>
<pdfrwt beam="2">  1       -2 0.83094006E-01 0.27237964E+04</pdfrwt>
<totfact> 0.10036192E+00</totfact>
</mgrwt>
</event>
<event>
 6    1  0.2047711E-005  0.3157361E+04  0.7818608E-02  0.8200170E-01
          1   -1    0    0  501    0  0.00000000000E+00  0.00000000000E+00  0.17224034998E+04  0.17224034998E+04  0.00000000000E+00 0. -1.
         -1   -1    0    0    0  501 -0.00000000000E+00 -0.00000000000E+00 -0.14469505724E+04  0.14469505724E+04  0.00000000000E+00 0.  1.
         23    2    1    2    0    0  0.19625625149E+03  0.11936133239E+04 -0.87832672927E+03  0.14976971758E+04  0.91704436234E+02 0.  0.
         11    1    3    3    0    0  0.12324920670E+03  0.64747218545E+03 -0.42565728306E+03  0.78459844539E+03  0.00000000000E+00 0. -1.
        -11    1    3    3    0    0  0.73007044793E+02  0.54614113847E+03 -0.45266944621E+03  0.71309873037E+03  0.00000000000E+00 0.  1.
         22    1    1    2    0    0 -0.19625625149E+03 -0.11936133239E+04  0.11537796567E+04  0.16716568965E+04  0.00000000000E+00 0. -1.
<mgrwt>
<rscale>  0 0.31573614E+04</rscale>
<asrwt>0</asrwt>
<pdfrwt beam="1">  1        1 0.26498515E+00 0.31573614E+04</pdfrwt>
<pdfrwt beam="2">  1       -1 0.22260778E+00 0.31573614E+04</pdfrwt>
<totfact> 0.40846214E-01</totfact>
</mgrwt>
</event>
<event>
 6    1  0.2047711E-005  0.1655911E+04  0.7818608E-02  0.8786917E-01
         -2   -1    0    0    0  501 -0.00000000000E+00  0.00000000000E+00  0.31283093232E+03  0.31283093232E+03  0.00000000000E+00 0.  1.
          2   -1    0    0  501    0  0.00000000000E+00 -0.00000000000E+00 -0.21913118997E+04  0.21913118997E+04  0.00000000000E+00 0. -1.
         23    2    1    2    0    0 -0.21722319899E+03  0.11686288366E+03 -0.21333609185E+04  0.21494505128E+04  0.89810059483E+02 0.  0.
         13    1    3    3    0    0 -0.64496143500E+02  0.54644999863E+02 -0.43764086956E+03  0.44573014173E+03  0.00000000000E+00 0.  1.
        -13    1    3    3    0    0 -0.15272705549E+03  0.62217883792E+02 -0.16957200489E+04  0.17037203711E+04  0.00000000000E+00 0. -1.
         22    1    1    2    0    0  0.21722319899E+03 -0.11686288366E+03  0.25487995116E+03  0.35469231915E+03  0.00000000000E+00 0.  1.
<mgrwt>
<rscale>  0 0.16559108E+04</rscale>
<asrwt>0</asrwt>
<pdfrwt beam="1">  1        2 0.33712491E+00 0.16559108E+04</pdfrwt>
<pdfrwt beam="2">  1       -2 0.48127835E-01 0.16559108E+04</pdfrwt>
<totfact> 0.20406142E+01</totfact>
</mgrwt>
</event>
<event>
 6    1  0.2047711E-005  0.2804556E+04  0.7818608E-02  0.8301855E-01
         -2   -1    0    0    0  501 -0.00000000000E+00  0.00000000000E+00  0.87617243936E+03  0.87617243936E+03  0.00000000000E+00 0.  1.
          2   -1    0    0  501    0  0.00000000000E+00 -0.00000000000E+00 -0.22442886664E+04  0.22442886664E+04  0.00000000000E+00 0. -1.
         23    2    1    2    0    0 -0.17542011746E+03  0.48326611004E+03  0.76520566263E+03  0.92606354932E+03  0.87952490234E+02 0.  0.
         13    1    3    3    0    0 -0.63767929808E+01  0.81854136224E+02  0.16701918413E+03  0.18610795516E+03  0.00000000000E+00 0. -1.
        -13    1    3    3    0    0 -0.16904332448E+03  0.40141197381E+03  0.59818647850E+03  0.73995559416E+03  0.00000000000E+00 0.  1.
         22    1    1    2    0    0  0.17542011746E+03 -0.48326611004E+03 -0.21333218897E+04  0.21943975564E+04  0.00000000000E+00 0. -1.
<mgrwt>
<rscale>  0 0.28045562E+04</rscale>
<asrwt>0</asrwt>
<pdfrwt beam="1">  1        2 0.34527517E+00 0.28045562E+04</pdfrwt>
<pdfrwt beam="2">  1       -2 0.13479576E+00 0.28045562E+04</pdfrwt>
<totfact> 0.16793514E+00</totfact>
</mgrwt>
</event>
<event>
 6    1  0.2047711E-005  0.2202060E+04  0.7818608E-02  0.8517571E-01
          2   -1    0    0  501    0  0.00000000000E+00  0.00000000000E+00  0.17077551619E+04  0.17077551619E+04  0.00000000000E+00 0. -1.
         -2   -1    0    0    0  501 -0.00000000000E+00 -0.00000000000E+00 -0.70986010364E+03  0.70986010364E+03  0.00000000000E+00 0.  1.
         23    2    1    2    0    0 -0.31212422199E+03 -0.64972483091E+03 -0.41116904018E+03  0.83488802455E+03  0.91728665520E+02 0.  0.
         11    1    3    3    0    0 -0.17156127779E+03 -0.28485695866E+03 -0.15082036205E+03  0.36513496209E+03  0.00000000000E+00 0. -1.
        -11    1    3    3    0    0 -0.14056294420E+03 -0.36486787226E+03 -0.26034867813E+03  0.46975306246E+03  0.00000000000E+00 0.  1.
         22    1    1    2    0    0  0.31212422199E+03  0.64972483091E+03  0.14090640984E+04  0.15827272410E+04  0.00000000000E+00 0. -1.
<mgrwt>
<rscale>  0 0.22020602E+04</rscale>
<asrwt>0</asrwt>
<pdfrwt beam="1">  1        2 0.26273156E+00 0.22020602E+04</pdfrwt>
<pdfrwt beam="2">  1       -2 0.10920925E+00 0.22020602E+04</pdfrwt>
<totfact> 0.59334447E+00</totfact>
</mgrwt>
</event>
<event>
 6    1  0.2047711E-005  0.3807809E+04  0.7818608E-02  0.8044481E-01
          2   -1    0    0  501    0  0.00000000000E+00  0.00000000000E+00  0.23130973862E+04  0.23130973862E+04  0.00000000000E+00 0. -1.
         -2   -1    0    0    0  501 -0.00000000000E+00 -0.00000000000E+00 -0.15670984886E+04  0.15670984886E+04  0.00000000000E+00 0.  1.
         23    2    1    2    0    0  0.99523219500E+03 -0.97481903287E+03 -0.94755577703E+03  0.16872784789E+04  0.91035411166E+02 0.  0.
         13    1    3    3    0    0  0.49889383793E+03 -0.45797354211E+03 -0.41225998586E+03  0.79283864861E+03  0.00000000000E+00 0.  1.
        -13    1    3    3    0    0  0.49633835707E+03 -0.51684549076E+03 -0.53529579117E+03  0.89443983032E+03  0.00000000000E+00 0. -1.
         22    1    1    2    0    0 -0.99523219500E+03  0.97481903287E+03  0.16935546747E+04  0.21929173958E+04  0.00000000000E+00 0. -1.
<mgrwt>
<rscale>  0 0.38078085E+04</rscale>
<asrwt>0</asrwt>
<pdfrwt beam="1">  1        2 0.35586114E+00 0.38078085E+04</pdfrwt>
<pdfrwt beam="2">  1       -2 0.24109207E+00 0.38078085E+04</pdfrwt>
<totfact> 0.26045424E-01</totfact>
</mgrwt>
</event>
<event>
 6    1  0.2047711E-005  0.1914021E+04  0.7818608E-02  0.8647909E-01
          2   -1    0    0  501    0  0.00000000000E+00  0.00000000000E+00  0.25646339327E+04  0.25646339327E+04  0.00000000000E+00 0. -1.
         -2   -1    0    0    0  501 -0.00000000000E+00 -0.00000000000E+00 -0.35711483754E+03  0.35711483754E+03  0.00000000000E+00 0.  1.
         23    2    1    2    0    0 -0.26527316535E+03  0.85546804455E+03  0.16108003970E+04  0.18455198763E+04  0.95237950217E+02 0.  0.
         13    1    3    3    0    0 -0.77691025240E+02  0.13111718644E+03  0.28002799435E+03  0.31881544756E+03  0.00000000000E+00 0.  1.
        -13    1    3    3    0    0 -0.18758214011E+03  0.72435085810E+03  0.13307724027E+04  0.15267044287E+04  0.00000000000E+00 0. -1.
         22    1    1    2    0    0  0.26527316535E+03 -0.85546804455E+03  0.59671869810E+03  0.10762288939E+04  0.00000000000E+00 0.  1.
<mgrwt>
<rscale>  0 0.19140207E+04</rscale>
<asrwt>0</asrwt>
<pdfrwt beam="1">  1        2 0.39455905E+00 0.19140207E+04</pdfrwt>
<pdfrwt beam="2">  1       -2 0.54940746E-01 0.19140207E+04</pdfrwt>
<totfact> 0.93141516E+00</totfact>
</mgrwt>
</event>
<event>
 6    1  0.2047711E-005  0.7102198E+04  0.7818608E-02  0.7566987E-01
          2   -1    0    0  501    0  0.00000000000E+00  0.00000000000E+00  0.26147825330E+04  0.26147825330E+04  0.00000000000E+00 0. -1.
         -2   -1    0    0    0  501 -0.00000000000E+00 -0.00000000000E+00 -0.48226965852E+04  0.48226965852E+04  0.00000000000E+00 0.  1.
         23    2    1    2    0    0  0.20934277383E+04 -0.26591206783E+04  0.20153818473E+02  0.33856093135E+04  0.92637842651E+02 0.  0.
         11    1    3    3    0    0  0.76324850310E+03 -0.10341310372E+04  0.28210005917E+02  0.12856014483E+04  0.00000000000E+00 0. -1.
        -11    1    3    3    0    0  0.13301792351E+04 -0.16249896412E+04 -0.80561874436E+01  0.21000078652E+04  0.00000000000E+00 0.  1.
         22    1    1    2    0    0 -0.20934277383E+04  0.26591206783E+04 -0.22280678707E+04  0.40518698046E+04  0.00000000000E+00 0. -1.
<mgrwt>
<rscale>  0 0.71021976E+04</rscale>
<asrwt>0</asrwt>
<pdfrwt beam="1">  1        2 0.40227424E+00 0.71021976E+04</pdfrwt>
<pdfrwt beam="2">  1       -2 0.74195332E+00 0.71021976E+04</pdfrwt>
<totfact> 0.29321427E-04</totfact>
</mgrwt>
</event>
<event>
 6    1  0.2047711E-005  0.5925287E+03  0.7818608E-02  0.9921029E-01
         -2   -1    0    0    0  501 -0.00000000000E+00  0.00000000000E+00  0.12491697715E+03  0.12491697715E+03  0.00000000000E+00 0.  1.
          2   -1    0    0  501    0  0.00000000000E+00 -0.00000000000E+00 -0.70264726887E+03  0.70264726887E+03  0.00000000000E+00 0. -1.
         23    2    1    2    0    0 -0.25423441600E+03 -0.13344297766E+03 -0.34019936773E+03  0.45492084219E+03  0.93676017687E+02 0.  0.
         13    1    3    3    0    0 -0.28052276064E+02 -0.54944514982E+02 -0.56010361930E+02  0.83324609585E+02  0.00000000000E+00 0. -1.
        -13    1    3    3    0    0 -0.22618213993E+03 -0.78498462676E+02 -0.28418900580E+03  0.37159623260E+03  0.00000000000E+00 0.  1.
         22    1    1    2    0    0  0.25423441600E+03  0.13344297766E+03 -0.23753092399E+03  0.37264340383E+03  0.00000000000E+00 0.  1.
<mgrwt>
<rscale>  0 0.59252873E+03</rscale>
<asrwt>0</asrwt>
<pdfrwt beam="1">  1        2 0.10809958E+00 0.59252873E+03</pdfrwt>
<pdfrwt beam="2">  1       -2 0.19217996E-01 0.59252873E+03</pdfrwt>
<totfact> 0.93744473E+02</totfact>
</mgrwt>
</event>
<event>
 6    1  0.2047711E-005  0.4288088E+04  0.7818608E-02  0.7948824E-01
          2   -1    0    0  501    0  0.00000000000E+00  0.00000000000E+00  0.24367161255E+04  0.24367161255E+04  0.00000000000E+00 0. -1.
         -2   -1    0    0    0  501 -0.00000000000E+00 -0.00000000000E+00 -0.18865245773E+04  0.18865245773E+04  0.00000000000E+00 0.  1.
         23    2    1    2    0    0 -0.10775187728E+04 -0.54536932287E+03 -0.15097618437E+04  0.19353792368E+04  0.88530003187E+02 0.  0.
         11    1    3    3    0    0 -0.56142561629E+03 -0.33237108899E+03 -0.82927988999E+03  0.10551655791E+04  0.00000000000E+00 0.  1.
        -11    1    3    3    0    0 -0.51609315648E+03 -0.21299823389E+03 -0.68048195374E+03  0.88021365768E+03  0.00000000000E+00 0. -1.
         22    1    1    2    0    0  0.10775187728E+04  0.54536932287E+03  0.20599533919E+04  0.23878614660E+04  0.00000000000E+00 0. -1.
<mgrwt>
<rscale>  0 0.42880881E+04</rscale>
<asrwt>0</asrwt>
<pdfrwt beam="1">  1        2 0.37487940E+00 0.42880881E+04</pdfrwt>
<pdfrwt beam="2">  1       -2 0.29023455E+00 0.42880881E+04</pdfrwt>
<totfact> 0.10645286E-01</totfact>
</mgrwt>
</event>
<event>
 6    1  0.2047711E-005  0.1415400E+04  0.7818608E-02  0.8942746E-01
         -2   -1    0    0    0  501 -0.00000000000E+00  0.00000000000E+00  0.77605302440E+03  0.77605302440E+03  0.00000000000E+00 0.  1.
          2   -1    0    0  501    0  0.00000000000E+00 -0.00000000000E+00 -0.64536714935E+03  0.64536714935E+03  0.00000000000E+00 0. -1.
         23    2    1    2    0    0 -0.21026531143E+03  0.66448543354E+03  0.16510850406E+03  0.72361123861E+03  0.10295636917E+03 0.  0.
         11    1    3    3    0    0 -0.77241198905E+02  0.41141785766E+03  0.10059551816E+03  0.43052330330E+03  0.00000000000E+00 0. -1.
        -11    1    3    3    0    0 -0.13302411253E+03  0.25306757588E+03  0.64512985902E+02  0.29308793531E+03  0.00000000000E+00 0.  1.
         22    1    1    2    0    0  0.21026531143E+03 -0.66448543354E+03 -0.34422629005E+02  0.69780893514E+03  0.00000000000E+00 0.  1.
<mgrwt>
<rscale>  0 0.14153998E+04</rscale>
<asrwt>0</asrwt>
<pdfrwt beam="1">  1        2 0.99287253E-01 0.14153998E+04</pdfrwt>
<pdfrwt beam="2">  1       -2 0.11939277E+00 0.14153998E+04</pdfrwt>
<totfact> 0.23711952E+01</totfact>
</mgrwt>
</event>
<event>
 6    1  0.2047711E-005  0.8475806E+03  0.7818608E-02  0.9493590E-01
          2   -1    0    0  501    0  0.00000000000E+00  0.00000000000E+00  0.58390306598E+03  0.58390306598E+03  0.00000000000E+00 0. -1.
         -2   -1    0    0    0  501 -0.00000000000E+00 -0.00000000000E+00 -0.30758221425E+03  0.30758221425E+03  0.00000000000E+00 0.  1.
         23    2    1    2    0    0  0.28996666372E+03  0.13570383142E+02  0.45742678208E+03  0.54933885051E+03  0.90934538827E+02 0.  0.
         13    1    3    3    0    0  0.14570627203E+03 -0.38307532312E+02  0.23743059299E+03  0.28119578807E+03  0.00000000000E+00 0.  1.
        -13    1    3    3    0    0  0.14426039168E+03  0.51877915454E+02  0.21999618909E+03  0.26814306244E+03  0.00000000000E+00 0. -1.
         22    1    1    2    0    0 -0.28996666372E+03 -0.13570383142E+02 -0.18110593035E+03  0.34214642973E+03  0.00000000000E+00 0.  1.
<mgrwt>
<rscale>  0 0.84758055E+03</rscale>
<asrwt>0</asrwt>
<pdfrwt beam="1">  1        2 0.89831241E-01 0.84758055E+03</pdfrwt>
<pdfrwt beam="2">  1       -2 0.47320341E-01 0.84758055E+03</pdfrwt>
<totfact> 0.21806192E+02</totfact>
</mgrwt>
</event>
<event>
 6    1  0.2047711E-005  0.1701045E+04  0.7818608E-02  0.8760768E-01
          2   -1    0    0  501    0  0.00000000000E+00  0.00000000000E+00  0.14635411545E+04  0.14635411545E+04  0.00000000000E+00 0. -1.
         -2   -1    0    0    0  501 -0.00000000000E+00 -0.00000000000E+00 -0.49427289906E+03  0.49427289906E+03  0.00000000000E+00 0.  1.
         23    2    1    2    0    0  0.95641978115E+01  0.34138097166E+03  0.13795631338E+04  0.14239841847E+04  0.88904873126E+02 0.  0.
         13    1    3    3    0    0  0.19920529728E+02  0.31465476370E+03  0.11428590565E+04  0.11855510410E+04  0.00000000000E+00 0. -1.
        -13    1    3    3    0    0 -0.10356331917E+02  0.26726207969E+02  0.23670407724E+03  0.23843314364E+03  0.00000000000E+00 0.  1.
         22    1    1    2    0    0 -0.95641978115E+01 -0.34138097166E+03 -0.41029487835E+03  0.53382986887E+03  0.00000000000E+00 0.  1.
<mgrwt>
<rscale>  0 0.17010452E+04</rscale>
<asrwt>0</asrwt>
<pdfrwt beam="1">  1        2 0.22516017E+00 0.17010452E+04</pdfrwt>
<pdfrwt beam="2">  1       -2 0.76041985E-01 0.17010452E+04</pdfrwt>
<totfact> 0.19614078E+01</totfact>
</mgrwt>
</event>
<event>
 6    1  0.2643350E-005  0.2166243E+04  0.7818608E-02  0.8532611E-01
          2   -1    0    0  501    0  0.00000000000E+00  0.00000000000E+00  0.19780358116E+04  0.19780358116E+04  0.00000000000E+00 0. -1.
         -2   -1    0    0    0  501 -0.00000000000E+00 -0.00000000000E+00 -0.59308947855E+03  0.59308947855E+03  0.00000000000E+00 0.  1.
         23    2    1    2    0    0 -0.96729535300E+03  0.26771993322E+03  0.21642506752E+03  0.10307434509E+04  0.90873479241E+02 0.  0.
         11    1    3    3    0    0 -0.29053349141E+03  0.51952817237E+02  0.32032873748E+02  0.29687524290E+03  0.00000000000E+00 0.  1.
        -11    1    3    3    0    0 -0.67676186159E+03  0.21576711598E+03  0.18439219377E+03  0.73386820804E+03  0.00000000000E+00 0. -1.
         22    1    1    2    0    0  0.96729535300E+03 -0.26771993322E+03  0.11685212655E+04  0.15403818392E+04  0.00000000000E+00 0. -1.
<mgrwt>
<rscale>  0 0.21662430E+04</rscale>
<asrwt>0</asrwt>
<pdfrwt beam="1">  1        2 0.30431320E+00 0.21662430E+04</pdfrwt>
<pdfrwt beam="2">  1       -2 0.91244536E-01 0.21662430E+04</pdfrwt>
<totfact> 0.64477530E+00</totfact>
</mgrwt>
</event>
<event>
 6    1  0.2047711E-005  0.2271012E+04  0.7818608E-02  0.8489439E-01
          2   -1    0    0  501    0  0.00000000000E+00  0.00000000000E+00  0.23819488763E+04  0.23819488763E+04  0.00000000000E+00 0. -1.
         -2   -1    0    0    0  501 -0.00000000000E+00 -0.00000000000E+00 -0.54131047448E+03  0.54131047448E+03  0.00000000000E+00 0.  1.
         23    2    1    2    0    0 -0.93855574015E+03  0.60287349749E+03  0.11814968516E+04  0.16275699920E+04  0.93305611019E+02 0.  0.
         11    1    3    3    0    0 -0.30541689004E+03  0.24003761035E+03  0.37487623101E+03  0.53984231001E+03  0.00000000000E+00 0.  1.
        -11    1    3    3    0    0 -0.63313885011E+03  0.36283588714E+03  0.80662062058E+03  0.10877276819E+04  0.00000000000E+00 0. -1.
         22    1    1    2    0    0  0.93855574015E+03 -0.60287349749E+03  0.65914155024E+03  0.12956893588E+04  0.00000000000E+00 0. -1.
<mgrwt>
<rscale>  0 0.22710120E+04</rscale>
<asrwt>0</asrwt>
<pdfrwt beam="1">  1        2 0.36645367E+00 0.22710120E+04</pdfrwt>
<pdfrwt beam="2">  1       -2 0.83278536E-01 0.22710120E+04</pdfrwt>
<totfact> 0.46699138E+00</totfact>
</mgrwt>
</event>
<event>
 6    1  0.2047711E-005  0.1634623E+04  0.7818608E-02  0.8799555E-01
          2   -1    0    0  501    0  0.00000000000E+00  0.00000000000E+00  0.13579333631E+04  0.13579333631E+04  0.00000000000E+00 0.  1.
         -2   -1    0    0    0  501 -0.00000000000E+00 -0.00000000000E+00 -0.49192272552E+03  0.49192272552E+03  0.00000000000E+00 0. -1.
         23    2    1    2    0    0  0.78744217394E+03 -0.13224665426E+03  0.61789188869E+03  0.10137237615E+04  0.91055607531E+02 0.  0.
         13    1    3    3    0    0  0.68771444808E+03 -0.85008513310E+02  0.54307539904E+03  0.88040246392E+03  0.00000000000E+00 0. -1.
        -13    1    3    3    0    0  0.99727725866E+02 -0.47238140948E+02  0.74816489643E+02  0.13332129758E+03  0.00000000000E+00 0.  1.
         22    1    1    2    0    0 -0.78744217394E+03  0.13224665426E+03  0.24811874887E+03  0.83613232709E+03  0.00000000000E+00 0. -1.
<mgrwt>
<rscale>  0 0.16346232E+04</rscale>
<asrwt>0</asrwt>
<pdfrwt beam="1">  1        2 0.20891282E+00 0.16346232E+04</pdfrwt>
<pdfrwt beam="2">  1       -2 0.75680420E-01 0.16346232E+04</pdfrwt>
<totfact> 0.22901564E+01</totfact>
</mgrwt>
</event>
<event>
 6    1  0.2047711E-005  0.1676202E+04  0.7818608E-02  0.8775055E-01
         -2   -1    0    0    0  501 -0.00000000000E+00  0.00000000000E+00  0.24955814239E+03  0.24955814239E+03  0.00000000000E+00 0.  1.
          2   -1    0    0  501    0  0.00000000000E+00 -0.00000000000E+00 -0.28146289123E+04  0.28146289123E+04  0.00000000000E+00 0. -1.
         23    2    1    2    0    0 -0.13496899765E+02 -0.53755901586E+03 -0.24555906154E+04  0.25154268465E+04  0.91077371224E+02 0.  0.
         13    1    3    3    0    0 -0.10810176666E+02 -0.19000968577E+03 -0.67950737846E+03  0.70565630301E+03  0.00000000000E+00 0. -1.
        -13    1    3    3    0    0 -0.26867230987E+01 -0.34754933010E+03 -0.17760832370E+04  0.18097705435E+04  0.00000000000E+00 0.  1.
         22    1    1    2    0    0  0.13496899765E+02  0.53755901586E+03 -0.10948015443E+03  0.54876020815E+03  0.00000000000E+00 0.  1.
<mgrwt>
<rscale>  0 0.16762023E+04</rscale>
<asrwt>0</asrwt>
<pdfrwt beam="1">  1        2 0.43301983E+00 0.16762023E+04</pdfrwt>
<pdfrwt beam="2">  1       -2 0.38393561E-01 0.16762023E+04</pdfrwt>
<totfact> 0.13889626E+01</totfact>
</mgrwt>
</event>
<event>
 6    1  0.2047711E-005  0.4047096E+04  0.7818608E-02  0.7995113E-01
          2   -1    0    0  501    0  0.00000000000E+00  0.00000000000E+00  0.24953773632E+04  0.24953773632E+04  0.00000000000E+00 0. -1.
         -2   -1    0    0    0  501 -0.00000000000E+00 -0.00000000000E+00 -0.16409330063E+04  0.16409330063E+04  0.00000000000E+00 0.  1.
         23    2    1    2    0    0 -0.83378144574E+03  0.14421643298E+04  0.15998370933E+04  0.23113063189E+04  0.87342551633E+02 0.  0.
         13    1    3    3    0    0 -0.36045478226E+03  0.61012811207E+03  0.62175363729E+03  0.94274150682E+03  0.00000000000E+00 0.  1.
        -13    1    3    3    0    0 -0.47332666348E+03  0.83203621770E+03  0.97808345603E+03  0.13685648121E+04  0.00000000000E+00 0. -1.
         22    1    1    2    0    0  0.83378144574E+03 -0.14421643298E+04 -0.74539273634E+03  0.18250040506E+04  0.00000000000E+00 0. -1.
<mgrwt>
<rscale>  0 0.40470963E+04</rscale>
<asrwt>0</asrwt>
<pdfrwt beam="1">  1        2 0.38390421E+00 0.40470963E+04</pdfrwt>
<pdfrwt beam="2">  1       -2 0.25245123E+00 0.40470963E+04</pdfrwt>
<totfact> 0.17086053E-01</totfact>
</mgrwt>
</event>
<event>
 6    1  0.2047711E-005  0.2796931E+04  0.7818608E-02  0.8304222E-01
          2   -1    0    0  501    0  0.00000000000E+00  0.00000000000E+00  0.17104687096E+04  0.17104687096E+04  0.00000000000E+00 0. -1.
         -2   -1    0    0    0  501 -0.00000000000E+00 -0.00000000000E+00 -0.11433740993E+04  0.11433740993E+04  0.00000000000E+00 0.  1.
         23    2    1    2    0    0  0.28588922918E+03 -0.60938223185E+02  0.16776000440E+04  0.17055099145E+04  0.94741977342E+02 0.  0.
         11    1    3    3    0    0  0.36471701326E+02  0.34275905890E+01  0.43221826470E+03  0.43376786616E+03  0.00000000000E+00 0. -1.
        -11    1    3    3    0    0  0.24941752786E+03 -0.64365813774E+02  0.12453817793E+04  0.12717420483E+04  0.00000000000E+00 0.  1.
         22    1    1    2    0    0 -0.28588922918E+03  0.60938223185E+02 -0.11105054337E+04  0.11483328945E+04  0.00000000000E+00 0.  1.
<mgrwt>
<rscale>  0 0.27969309E+04</rscale>
<asrwt>0</asrwt>
<pdfrwt beam="1">  1        2 0.26314903E+00 0.27969309E+04</pdfrwt>
<pdfrwt beam="2">  1       -2 0.17590371E+00 0.27969309E+04</pdfrwt>
<totfact> 0.16309957E+00</totfact>
</mgrwt>
</event>
<event>
 6    1  0.2047711E-005  0.3021950E+04  0.7818608E-02  0.8237490E-01
         -2   -1    0    0    0  501 -0.00000000000E+00  0.00000000000E+00  0.58952786083E+03  0.58952786083E+03  0.00000000000E+00 0.  1.
          2   -1    0    0  501    0  0.00000000000E+00 -0.00000000000E+00 -0.38726686727E+04  0.38726686727E+04  0.00000000000E+00 0. -1.
         23    2    1    2    0    0 -0.13489236929E+04 -0.67583976528E+03 -0.15692905556E+04  0.21788574832E+04  0.91610952236E+02 0.  0.
         11    1    3    3    0    0 -0.90134550395E+03 -0.49618674705E+03 -0.10903436867E+04  0.14991578838E+04  0.00000000000E+00 0. -1.
        -11    1    3    3    0    0 -0.44757818899E+03 -0.17965301824E+03 -0.47894686895E+03  0.67969959945E+03  0.00000000000E+00 0.  1.
         22    1    1    2    0    0  0.13489236929E+04  0.67583976528E+03 -0.17138502563E+04  0.22833390503E+04  0.00000000000E+00 0. -1.
<mgrwt>
<rscale>  0 0.30219504E+04</rscale>
<asrwt>0</asrwt>
<pdfrwt beam="1">  1        2 0.59579517E+00 0.30219504E+04</pdfrwt>
<pdfrwt beam="2">  1       -2 0.90696596E-01 0.30219504E+04</pdfrwt>
<totfact> 0.38272655E-01</totfact>
</mgrwt>
</event>
<event>
 6    1  0.2047711E-005  0.2268951E+04  0.7818608E-02  0.8490265E-01
          2   -1    0    0  501    0  0.00000000000E+00  0.00000000000E+00  0.29834316684E+04  0.29834316684E+04  0.00000000000E+00 0. -1.
         -2   -1    0    0    0  501 -0.00000000000E+00 -0.00000000000E+00 -0.43139392739E+03  0.43139392739E+03  0.00000000000E+00 0.  1.
         23    2    1    2    0    0 -0.17368006934E+03 -0.52540373649E+03  0.27654249324E+04  0.28217421731E+04  0.91869374388E+02 0.  0.
         11    1    3    3    0    0 -0.94949345323E+02 -0.40532453751E+03  0.21292489649E+04  0.21695632080E+04  0.00000000000E+00 0. -1.
        -11    1    3    3    0    0 -0.78730724020E+02 -0.12007919898E+03  0.63617596744E+03  0.65217896507E+03  0.00000000000E+00 0.  1.
         22    1    1    2    0    0  0.17368006934E+03  0.52540373649E+03 -0.21338719140E+03  0.59308342268E+03  0.00000000000E+00 0.  1.
<mgrwt>
<rscale>  0 0.22689507E+04</rscale>
<asrwt>0</asrwt>
<pdfrwt beam="1">  1        2 0.45898947E+00 0.22689507E+04</pdfrwt>
<pdfrwt beam="2">  1       -2 0.66368298E-01 0.22689507E+04</pdfrwt>
<totfact> 0.33859910E+00</totfact>
</mgrwt>
</event>
<event>
 6    1  0.2047711E-005  0.3116470E+04  0.7818608E-02  0.8211232E-01
          2   -1    0    0  501    0  0.00000000000E+00  0.00000000000E+00  0.25840147498E+04  0.25840147498E+04  0.00000000000E+00 0. -1.
         -2   -1    0    0    0  501 -0.00000000000E+00 -0.00000000000E+00 -0.93966025451E+03  0.93966025451E+03  0.00000000000E+00 0.  1.
         23    2    1    2    0    0 -0.12720768619E+04  0.63394733822E+01 -0.19134664014E+03  0.12902878032E+04  0.10004672349E+03 0.  0.
         11    1    3    3    0    0 -0.71059511756E+03  0.27478650218E+02 -0.62817920414E+02  0.71389536239E+03  0.00000000000E+00 0.  1.
        -11    1    3    3    0    0 -0.56148174434E+03 -0.21139176835E+02 -0.12852871972E+03  0.57639244080E+03  0.00000000000E+00 0. -1.
         22    1    1    2    0    0  0.12720768619E+04 -0.63394733822E+01  0.18357011354E+04  0.22333872011E+04  0.00000000000E+00 0. -1.
<mgrwt>
<rscale>  0 0.31164698E+04</rscale>
<asrwt>0</asrwt>
<pdfrwt beam="1">  1        2 0.39754073E+00 0.31164698E+04</pdfrwt>
<pdfrwt beam="2">  1       -2 0.14456312E+00 0.31164698E+04</pdfrwt>
<totfact> 0.87059701E-01</totfact>
</mgrwt>
</event>
<event>
 6    1  0.2047711E-005  0.1904806E+04  0.7818608E-02  0.8652468E-01
         -2   -1    0    0    0  501 -0.00000000000E+00  0.00000000000E+00  0.73029453585E+03  0.73029453585E+03  0.00000000000E+00 0. -1.
          2   -1    0    0  501    0  0.00000000000E+00 -0.00000000000E+00 -0.12420620859E+04  0.12420620859E+04  0.00000000000E+00 0.  1.
         23    2    1    2    0    0 -0.99701973360E+02 -0.94460148091E+03 -0.23115494720E+03  0.98192445642E+03  0.92361178434E+02 0.  0.
         13    1    3    3    0    0 -0.63737025882E+02 -0.39347740466E+03 -0.13805310636E+03  0.42183591196E+03  0.00000000000E+00 0. -1.
        -13    1    3    3    0    0 -0.35964947478E+02 -0.55112407625E+03 -0.93101840840E+02  0.56008854447E+03  0.00000000000E+00 0.  1.
         22    1    1    2    0    0  0.99701973360E+02  0.94460148091E+03 -0.28061260286E+03  0.99043216533E+03  0.00000000000E+00 0.  1.
<mgrwt>
<rscale>  0 0.19048057E+04</rscale>
<asrwt>0</asrwt>
<pdfrwt beam="1">  1        2 0.19108647E+00 0.19048057E+04</pdfrwt>
<pdfrwt beam="2">  1       -2 0.11235301E+00 0.19048057E+04</pdfrwt>
<totfact> 0.10448809E+01</totfact>
</mgrwt>
</event>
<event>
 6    1  0.2047711E-005  0.1740877E+04  0.7818608E-02  0.8738388E-01
          2   -1    0    0  501    0  0.00000000000E+00  0.00000000000E+00  0.15320046133E+04  0.15320046133E+04  0.00000000000E+00 0. -1.
         -2   -1    0    0    0  501 -0.00000000000E+00 -0.00000000000E+00 -0.49455662173E+03  0.49455662173E+03  0.00000000000E+00 0.  1.
         23    2    1    2    0    0 -0.75422516127E+03  0.98795899887E+02  0.33217899352E+02  0.76676192489E+03  0.90577021955E+02 0.  0.
         11    1    3    3    0    0 -0.11598005117E+03  0.51612600178E+01 -0.26006313042E+02  0.11897201012E+03  0.00000000000E+00 0. -1.
        -11    1    3    3    0    0 -0.63824511010E+03  0.93634639869E+02  0.59224212395E+02  0.64778991477E+03  0.00000000000E+00 0.  1.
         22    1    1    2    0    0  0.75422516127E+03 -0.98795899887E+02  0.10042300922E+04  0.12597993102E+04  0.00000000000E+00 0. -1.
<mgrwt>
<rscale>  0 0.17408768E+04</rscale>
<asrwt>0</asrwt>
<pdfrwt beam="1">  1        2 0.23569302E+00 0.17408768E+04</pdfrwt>
<pdfrwt beam="2">  1       -2 0.76085635E-01 0.17408768E+04</pdfrwt>
<totfact> 0.17862024E+01</totfact>
</mgrwt>
</event>
<event>
 6    1  0.2047711E-005  0.3223241E+04  0.7818608E-02  0.8182706E-01
         -2   -1    0    0    0  501 -0.00000000000E+00  0.00000000000E+00  0.79893963388E+03  0.79893963388E+03  0.00000000000E+00 0.  1.
          2   -1    0    0  501    0  0.00000000000E+00 -0.00000000000E+00 -0.32509600720E+04  0.32509600720E+04  0.00000000000E+00 0. -1.
         23    2    1    2    0    0 -0.91094609425E+03  0.82421654534E+03  0.81392785990E+02  0.12343467825E+04  0.88495726555E+02 0.  0.
         11    1    3    3    0    0 -0.24090844094E+03  0.22105436597E+03 -0.17396088638E+02  0.32742103404E+03  0.00000000000E+00 0.  1.
        -11    1    3    3    0    0 -0.67003765331E+03  0.60316217937E+03  0.98788874628E+02  0.90692574846E+03  0.00000000000E+00 0. -1.
         22    1    1    2    0    0  0.91094609425E+03 -0.82421654534E+03 -0.25334132241E+04  0.28155529233E+04  0.00000000000E+00 0. -1.
<mgrwt>
<rscale>  0 0.32232411E+04</rscale>
<asrwt>0</asrwt>
<pdfrwt beam="1">  1        2 0.50014770E+00 0.32232411E+04</pdfrwt>
<pdfrwt beam="2">  1       -2 0.12291379E+00 0.32232411E+04</pdfrwt>
<totfact> 0.50414692E-01</totfact>
</mgrwt>
</event>
<event>
 6    1  0.2047711E-005  0.5222601E+04  0.7818608E-02  0.7795057E-01
         -2   -1    0    0    0  501 -0.00000000000E+00  0.00000000000E+00  0.30485332670E+04  0.30485332670E+04  0.00000000000E+00 0.  1.
          2   -1    0    0  501    0  0.00000000000E+00 -0.00000000000E+00 -0.22367776552E+04  0.22367776552E+04  0.00000000000E+00 0. -1.
         23    2    1    2    0    0  0.42647547641E+03 -0.21643240205E+04  0.18186627540E+04  0.28604311745E+04  0.91391978191E+02 0.  0.
         13    1    3    3    0    0  0.31046096688E+03 -0.16055669175E+04  0.12961321718E+04  0.20866695343E+04  0.00000000000E+00 0. -1.
        -13    1    3    3    0    0  0.11601450953E+03 -0.55875710307E+03  0.52253058217E+03  0.77376164027E+03  0.00000000000E+00 0.  1.
         22    1    1    2    0    0 -0.42647547641E+03  0.21643240205E+04 -0.10069071422E+04  0.24248797477E+04  0.00000000000E+00 0. -1.
<mgrwt>
<rscale>  0 0.52226013E+04</rscale>
<asrwt>0</asrwt>
<pdfrwt beam="1">  1        2 0.34411964E+00 0.52226013E+04</pdfrwt>
<pdfrwt beam="2">  1       -2 0.46900512E+00 0.52226013E+04</pdfrwt>
<totfact> 0.92100478E-03</totfact>
</mgrwt>
</event>
<event>
 6    1  0.2047711E-005  0.2986124E+03  0.7818608E-02  0.1085936E+00
          2   -1    0    0  501    0  0.00000000000E+00  0.00000000000E+00  0.30196576712E+03  0.30196576712E+03  0.00000000000E+00 0. -1.
         -2   -1    0    0    0  501 -0.00000000000E+00 -0.00000000000E+00 -0.73824073865E+02  0.73824073865E+02  0.00000000000E+00 0.  1.
         23    2    1    2    0    0 -0.99861222600E+01  0.78500944488E+02 -0.22681800379E+02  0.11277929769E+03  0.77088163791E+02 0.  0.
         11    1    3    3    0    0  0.81282458903E+01  0.84179865978E+02 -0.33459234717E+02  0.90949648735E+02  0.00000000000E+00 0. -1.
        -11    1    3    3    0    0 -0.18114368150E+02 -0.56789214894E+01  0.10777434338E+02  0.21829648959E+02  0.00000000000E+00 0.  1.
         22    1    1    2    0    0  0.99861222600E+01 -0.78500944488E+02  0.25082349364E+03  0.26301054329E+03  0.00000000000E+00 0. -1.
<mgrwt>
<rscale>  0 0.29861241E+03</rscale>
<asrwt>0</asrwt>
<pdfrwt beam="1">  1        2 0.46456271E-01 0.29861241E+03</pdfrwt>
<pdfrwt beam="2">  1       -2 0.11357550E-01 0.29861241E+03</pdfrwt>
<totfact> 0.58513733E+03</totfact>
</mgrwt>
</event>
<event>
 6    1  0.2047711E-005  0.1956703E+04  0.7818608E-02  0.8627135E-01
          2   -1    0    0  501    0  0.00000000000E+00  0.00000000000E+00  0.88743479129E+03  0.88743479129E+03  0.00000000000E+00 0. -1.
         -2   -1    0    0    0  501 -0.00000000000E+00 -0.00000000000E+00 -0.10785824885E+04  0.10785824885E+04  0.00000000000E+00 0.  1.
         23    2    1    2    0    0  0.12771861834E+03  0.96289593411E+03  0.48832911706E+01  0.97510417875E+03  0.85578545722E+02 0.  0.
         13    1    3    3    0    0  0.10347194906E+03  0.50512891725E+03  0.25331560357E+02  0.51623962967E+03  0.00000000000E+00 0.  1.
        -13    1    3    3    0    0  0.24246669275E+02  0.45776701686E+03 -0.20448269187E+02  0.45886454909E+03  0.00000000000E+00 0. -1.
         22    1    1    2    0    0 -0.12771861834E+03 -0.96289593411E+03 -0.19603098837E+03  0.99091310104E+03  0.00000000000E+00 0. -1.
<mgrwt>
<rscale>  0 0.19567030E+04</rscale>
<asrwt>0</asrwt>
<pdfrwt beam="1">  1        2 0.13652843E+00 0.19567030E+04</pdfrwt>
<pdfrwt beam="2">  1       -2 0.16593577E+00 0.19567030E+04</pdfrwt>
<totfact> 0.63527013E+00</totfact>
</mgrwt>
</event>
<event>
 6    1  0.2047711E-005  0.1729151E+04  0.7818608E-02  0.8744911E-01
          2   -1    0    0  501    0  0.00000000000E+00  0.00000000000E+00  0.30298028623E+04  0.30298028623E+04  0.00000000000E+00 0.  1.
         -2   -1    0    0    0  501 -0.00000000000E+00 -0.00000000000E+00 -0.24671262945E+03  0.24671262945E+03  0.00000000000E+00 0. -1.
         23    2    1    2    0    0  0.24986265473E+02  0.25409562654E+03  0.29558388999E+04  0.29682445024E+04  0.91120376879E+02 0.  0.
         11    1    3    3    0    0 -0.28868591099E+02  0.12624478843E+03  0.12132718387E+04  0.12201637992E+04  0.00000000000E+00 0.  1.
        -11    1    3    3    0    0  0.53854856572E+02  0.12785083811E+03  0.17425670611E+04  0.17480807032E+04  0.00000000000E+00 0. -1.
         22    1    1    2    0    0 -0.24986265473E+02 -0.25409562654E+03 -0.17274866706E+03  0.30827098933E+03  0.00000000000E+00 0. -1.
<mgrwt>
<rscale>  0 0.17291508E+04</rscale>
<asrwt>0</asrwt>
<pdfrwt beam="1">  1        2 0.46612349E+00 0.17291508E+04</pdfrwt>
<pdfrwt beam="2">  1       -2 0.37955791E-01 0.17291508E+04</pdfrwt>
<totfact> 0.10422242E+01</totfact>
</mgrwt>
</event>
<event>
 6    1  0.2047711E-005  0.3262043E+04  0.7818608E-02  0.8172621E-01
         -2   -1    0    0    0  501 -0.00000000000E+00  0.00000000000E+00  0.15448171620E+04  0.15448171620E+04  0.00000000000E+00 0.  1.
          2   -1    0    0  501    0  0.00000000000E+00 -0.00000000000E+00 -0.17220360857E+04  0.17220360857E+04  0.00000000000E+00 0. -1.
         23    2    1    2    0    0  0.14787294116E+04  0.13339671955E+03  0.58453572049E+03  0.15981095599E+04  0.88525698232E+02 0.  0.
         11    1    3    3    0    0  0.50879057182E+03  0.18985769193E+02  0.16573203156E+03  0.53543945660E+03  0.00000000000E+00 0.  1.
        -11    1    3    3    0    0  0.96993883981E+03  0.11441095036E+03  0.41880368893E+03  0.10626701033E+04  0.00000000000E+00 0. -1.
         22    1    1    2    0    0 -0.14787294116E+04 -0.13339671955E+03 -0.76175464414E+03  0.16687436878E+04  0.00000000000E+00 0.  1.
<mgrwt>
<rscale>  0 0.32620429E+04</rscale>
<asrwt>0</asrwt>
<pdfrwt beam="1">  1        2 0.26492863E+00 0.32620429E+04</pdfrwt>
<pdfrwt beam="2">  1       -2 0.23766418E+00 0.32620429E+04</pdfrwt>
<totfact> 0.61178010E-01</totfact>
</mgrwt>
</event>
<event>
 6    1  0.2047711E-005  0.3754399E+04  0.7818608E-02  0.8056012E-01
          2   -1    0    0  501    0  0.00000000000E+00  0.00000000000E+00  0.23094021955E+04  0.23094021955E+04  0.00000000000E+00 0. -1.
         -2   -1    0    0    0  501 -0.00000000000E+00 -0.00000000000E+00 -0.15258831743E+04  0.15258831743E+04  0.00000000000E+00 0.  1.
         23    2    1    2    0    0 -0.54409153345E+03 -0.10464667834E+04  0.18823215727E+04  0.22233004527E+04  0.93819371305E+02 0.  0.
         11    1    3    3    0    0 -0.27692920358E+03 -0.43215618058E+03  0.80963772358E+03  0.95862505269E+03  0.00000000000E+00 0. -1.
        -11    1    3    3    0    0 -0.26716232986E+03 -0.61431060283E+03  0.10726838491E+04  0.12646754000E+04  0.00000000000E+00 0.  1.
         22    1    1    2    0    0  0.54409153345E+03  0.10464667834E+04 -0.10988025515E+04  0.16119849170E+04  0.00000000000E+00 0.  1.
<mgrwt>
<rscale>  0 0.37543990E+04</rscale>
<asrwt>0</asrwt>
<pdfrwt beam="1">  1        2 0.35529265E+00 0.37543990E+04</pdfrwt>
<pdfrwt beam="2">  1       -2 0.23475126E+00 0.37543990E+04</pdfrwt>
<totfact> 0.28780369E-01</totfact>
</mgrwt>
</event>
<event>
 6    1  0.2047711E-005  0.2590910E+04  0.7818608E-02  0.8371295E-01
         -2   -1    0    0    0  501 -0.00000000000E+00  0.00000000000E+00  0.11650675933E+04  0.11650675933E+04  0.00000000000E+00 0. -1.
          2   -1    0    0  501    0  0.00000000000E+00 -0.00000000000E+00 -0.14404349476E+04  0.14404349476E+04  0.00000000000E+00 0.  1.
         23    2    1    2    0    0  0.68905537728E+03 -0.88447047149E+03  0.51146470716E+03  0.12357616819E+04  0.91790304129E+02 0.  0.
         13    1    3    3    0    0  0.51912168829E+03 -0.70391569348E+03  0.36461484590E+03  0.94759095428E+03  0.00000000000E+00 0. -1.
        -13    1    3    3    0    0  0.16993368899E+03 -0.18055477801E+03  0.14684986126E+03  0.28817072764E+03  0.00000000000E+00 0.  1.
         22    1    1    2    0    0 -0.68905537728E+03  0.88447047149E+03 -0.78683206144E+03  0.13697408590E+04  0.00000000000E+00 0.  1.
<mgrwt>
<rscale>  0 0.25909103E+04</rscale>
<asrwt>0</asrwt>
<pdfrwt beam="1">  1        2 0.22160538E+00 0.25909103E+04</pdfrwt>
<pdfrwt beam="2">  1       -2 0.17924117E+00 0.25909103E+04</pdfrwt>
<totfact> 0.22295330E+00</totfact>
</mgrwt>
</event>
<event>
 6    1  0.2047711E-005  0.3504605E+04  0.7818608E-02  0.8112699E-01
         -2   -1    0    0    0  501 -0.00000000000E+00  0.00000000000E+00  0.13099802799E+04  0.13099802799E+04  0.00000000000E+00 0.  1.
          2   -1    0    0  501    0  0.00000000000E+00 -0.00000000000E+00 -0.23439778739E+04  0.23439778739E+04  0.00000000000E+00 0. -1.
         23    2    1    2    0    0 -0.13144283761E+04  0.45930195308E+03 -0.16246353897E+04  0.21414988169E+04  0.88863902989E+02 0.  0.
         13    1    3    3    0    0 -0.60387862029E+03  0.19488392174E+03 -0.80426234395E+03  0.10244447515E+04  0.00000000000E+00 0.  1.
        -13    1    3    3    0    0 -0.71054975585E+03  0.26441803134E+03 -0.82037304572E+03  0.11170540654E+04  0.00000000000E+00 0. -1.
         22    1    1    2    0    0  0.13144283761E+04 -0.45930195308E+03  0.59063779568E+03  0.15124593369E+04  0.00000000000E+00 0.  1.
<mgrwt>
<rscale>  0 0.35046054E+04</rscale>
<asrwt>0</asrwt>
<pdfrwt beam="1">  1        2 0.36061198E+00 0.35046054E+04</pdfrwt>
<pdfrwt beam="2">  1       -2 0.20153543E+00 0.35046054E+04</pdfrwt>
<totfact> 0.45682325E-01</totfact>
</mgrwt>
</event>
<event>
 6    1  0.2047711E-005  0.3021331E+04  0.7818608E-02  0.8237666E-01
          2   -1    0    0  501    0  0.00000000000E+00  0.00000000000E+00  0.21110190463E+04  0.21110190463E+04  0.00000000000E+00 0. -1.
         -2   -1    0    0    0  501 -0.00000000000E+00 -0.00000000000E+00 -0.10810469498E+04  0.10810469498E+04  0.00000000000E+00 0.  1.
         23    2    1    2    0    0 -0.72347818137E+02  0.11092207445E+04  0.15941049500E+04  0.19455305000E+04  0.91178221077E+02 0.  0.
         11    1    3    3    0    0 -0.12458981244E+01  0.14433976877E+03  0.26234496810E+03  0.29943347074E+03  0.00000000000E+00 0.  1.
        -11    1    3    3    0    0 -0.71101920013E+02  0.96488097576E+03  0.13317599819E+04  0.16460970293E+04  0.00000000000E+00 0. -1.
         22    1    1    2    0    0  0.72347818137E+02 -0.11092207445E+04 -0.56413285343E+03  0.12465354962E+04  0.00000000000E+00 0.  1.
<mgrwt>
<rscale>  0 0.30213313E+04</rscale>
<asrwt>0</asrwt>
<pdfrwt beam="1">  1        2 0.32477216E+00 0.30213313E+04</pdfrwt>
<pdfrwt beam="2">  1       -2 0.16631491E+00 0.30213313E+04</pdfrwt>
<totfact> 0.11212804E+00</totfact>
</mgrwt>
</event>
<event>
 6    1  0.2047711E-005  0.2131264E+04  0.7818608E-02  0.8547595E-01
         -2   -1    0    0    0  501 -0.00000000000E+00  0.00000000000E+00  0.77610615635E+03  0.77610615635E+03  0.00000000000E+00 0.  1.
          2   -1    0    0  501    0  0.00000000000E+00 -0.00000000000E+00 -0.14631658706E+04  0.14631658706E+04  0.00000000000E+00 0. -1.
         23    2    1    2    0    0  0.48263249878E+01 -0.82006349429E+03 -0.10558461005E+04  0.13400886047E+04  0.92190305733E+02 0.  0.
         11    1    3    3    0    0 -0.32587324138E+02 -0.37661098165E+03 -0.43647019764E+03  0.57741146388E+03  0.00000000000E+00 0. -1.
        -11    1    3    3    0    0  0.37413649126E+02 -0.44345251264E+03 -0.61937590290E+03  0.76267714087E+03  0.00000000000E+00 0.  1.
         22    1    1    2    0    0 -0.48263249878E+01  0.82006349429E+03  0.36878638628E+03  0.89918342221E+03  0.00000000000E+00 0.  1.
<mgrwt>
<rscale>  0 0.21312645E+04</rscale>
<asrwt>0</asrwt>
<pdfrwt beam="1">  1        2 0.22510244E+00 0.21312645E+04</pdfrwt>
<pdfrwt beam="2">  1       -2 0.11940095E+00 0.21312645E+04</pdfrwt>
<totfact> 0.65833234E+00</totfact>
</mgrwt>
</event>
<event>
 6    1  0.2047711E-005  0.2047578E+04  0.7818608E-02  0.8584694E-01
          1   -1    0    0  501    0  0.00000000000E+00  0.00000000000E+00  0.20811248838E+04  0.20811248838E+04  0.00000000000E+00 0. -1.
         -1   -1    0    0    0  501 -0.00000000000E+00 -0.00000000000E+00 -0.50364321536E+03  0.50364321536E+03  0.00000000000E+00 0.  1.
         23    2    1    2    0    0 -0.72239486595E+03  0.59894977075E+03  0.13004331226E+04  0.16063249138E+04  0.92510821349E+02 0.  0.
         13    1    3    3    0    0 -0.62012661699E+03  0.50119881691E+03  0.11544727355E+04  0.14030554416E+04  0.00000000000E+00 0. -1.
        -13    1    3    3    0    0 -0.10226824897E+03  0.97750953842E+02  0.14596038706E+03  0.20326947217E+03  0.00000000000E+00 0.  1.
         22    1    1    2    0    0  0.72239486595E+03 -0.59894977075E+03  0.27704854584E+03  0.97844318537E+03  0.00000000000E+00 0.  1.
<mgrwt>
<rscale>  0 0.20475785E+04</rscale>
<asrwt>0</asrwt>
<pdfrwt beam="1">  1        1 0.32017306E+00 0.20475785E+04</pdfrwt>
<pdfrwt beam="2">  1       -1 0.77483572E-01 0.20475785E+04</pdfrwt>
<totfact> 0.40481345E+00</totfact>
</mgrwt>
</event>
<event>
 6    1  0.2047711E-005  0.1233353E+04  0.7818608E-02  0.9084153E-01
         -2   -1    0    0    0  501 -0.00000000000E+00  0.00000000000E+00  0.41740474190E+03  0.41740474190E+03  0.00000000000E+00 0.  1.
          2   -1    0    0  501    0  0.00000000000E+00 -0.00000000000E+00 -0.91108179460E+03  0.91108179460E+03  0.00000000000E+00 0. -1.
         23    2    1    2    0    0 -0.43525867757E+03 -0.39912068328E+03 -0.69877568789E+02  0.60160729014E+03  0.91109937469E+02 0.  0.
         11    1    3    3    0    0 -0.26222046935E+03 -0.21917859644E+03  0.22080852186E+01  0.34176557363E+03  0.00000000000E+00 0.  1.
        -11    1    3    3    0    0 -0.17303820823E+03 -0.17994208685E+03 -0.72085654008E+02  0.25984171651E+03  0.00000000000E+00 0. -1.
         22    1    1    2    0    0  0.43525867757E+03  0.39912068328E+03 -0.42379948391E+03  0.72687924636E+03  0.00000000000E+00 0.  1.
<mgrwt>
<rscale>  0 0.12333529E+04</rscale>
<asrwt>0</asrwt>
<pdfrwt beam="1">  1        2 0.14016643E+00 0.12333529E+04</pdfrwt>
<pdfrwt beam="2">  1       -2 0.64216116E-01 0.12333529E+04</pdfrwt>
<totfact> 0.63604292E+01</totfact>
</mgrwt>
</event>
<event>
 6    1  0.2047711E-005  0.1316417E+04  0.7818608E-02  0.9016647E-01
         -1   -1    0    0    0  501 -0.00000000000E+00  0.00000000000E+00  0.25776684294E+03  0.25776684294E+03  0.00000000000E+00 0.  1.
          1   -1    0    0  501    0  0.00000000000E+00 -0.00000000000E+00 -0.16807366388E+04  0.16807366388E+04  0.00000000000E+00 0. -1.
         23    2    1    2    0    0  0.36403106635E+03  0.24242671152E+03  0.32273278546E+01  0.44675029726E+03  0.91027933827E+02 0.  0.
         11    1    3    3    0    0  0.23067629660E+03  0.12749939888E+03  0.40894538358E+02  0.26672085369E+03  0.00000000000E+00 0.  1.
        -11    1    3    3    0    0  0.13335476975E+03  0.11492731264E+03 -0.37667210503E+02  0.18002944357E+03  0.00000000000E+00 0. -1.
         22    1    1    2    0    0 -0.36403106635E+03 -0.24242671152E+03 -0.14261971237E+04  0.14917531845E+04  0.00000000000E+00 0. -1.
<mgrwt>
<rscale>  0 0.13164166E+04</rscale>
<asrwt>0</asrwt>
<pdfrwt beam="1">  1        1 0.25857486E+00 0.13164166E+04</pdfrwt>
<pdfrwt beam="2">  1       -1 0.39656438E-01 0.13164166E+04</pdfrwt>
<totfact> 0.29835556E+01</totfact>
</mgrwt>
</event>
<event>
 6    1  0.2047711E-005  0.1765070E+04  0.7818608E-02  0.8725099E-01
          2   -1    0    0  501    0  0.00000000000E+00  0.00000000000E+00  0.91764521048E+03  0.91764521048E+03  0.00000000000E+00 0.  1.
         -2   -1    0    0    0  501 -0.00000000000E+00 -0.00000000000E+00 -0.84876819622E+03  0.84876819622E+03  0.00000000000E+00 0. -1.
         23    2    1    2    0    0  0.87356802140E+02  0.77728902342E+03  0.43841731646E+03  0.90132990105E+03  0.91522731264E+02 0.  0.
         13    1    3    3    0    0  0.10006941953E+02  0.28639413235E+03  0.20465220404E+03  0.35214238960E+03  0.00000000000E+00 0.  1.
        -13    1    3    3    0    0  0.77349860187E+02  0.49089489106E+03  0.23376511243E+03  0.54918751145E+03  0.00000000000E+00 0. -1.
         22    1    1    2    0    0 -0.87356802140E+02 -0.77728902342E+03 -0.36954030220E+03  0.86508350566E+03  0.00000000000E+00 0. -1.
<mgrwt>
<rscale>  0 0.17650700E+04</rscale>
<asrwt>0</asrwt>
<pdfrwt beam="1">  1        2 0.14117619E+00 0.17650700E+04</pdfrwt>
<pdfrwt beam="2">  1       -2 0.13057972E+00 0.17650700E+04</pdfrwt>
<totfact> 0.11597261E+01</totfact>
</mgrwt>
</event>
<event>
 6    1  0.2047711E-005  0.2787048E+04  0.7818608E-02  0.8307301E-01
         -2   -1    0    0    0  501 -0.00000000000E+00  0.00000000000E+00  0.17618930172E+04  0.17618930172E+04  0.00000000000E+00 0.  1.
          2   -1    0    0  501    0  0.00000000000E+00 -0.00000000000E+00 -0.11021722791E+04  0.11021722791E+04  0.00000000000E+00 0. -1.
         23    2    1    2    0    0 -0.84443897777E+03  0.52546530120E+03 -0.67058120999E+03  0.12030733507E+04  0.92278698142E+02 0.  0.
         11    1    3    3    0    0 -0.38872260896E+03  0.23233127289E+03 -0.25105981667E+03  0.51779737217E+03  0.00000000000E+00 0.  1.
        -11    1    3    3    0    0 -0.45571636881E+03  0.29313402830E+03 -0.41952139332E+03  0.68527597856E+03  0.00000000000E+00 0. -1.
         22    1    1    2    0    0  0.84443897777E+03 -0.52546530120E+03  0.13303019481E+04  0.16609919455E+04  0.00000000000E+00 0.  1.
<mgrwt>
<rscale>  0 0.27870484E+04</rscale>
<asrwt>0</asrwt>
<pdfrwt beam="1">  1        2 0.16956497E+00 0.27870484E+04</pdfrwt>
<pdfrwt beam="2">  1       -2 0.27106047E+00 0.27870484E+04</pdfrwt>
<totfact> 0.90333879E-01</totfact>
</mgrwt>
</event>
<event>
 6    1  0.2047711E-005  0.1393421E+04  0.7818608E-02  0.8958595E-01
         -2   -1    0    0    0  501 -0.00000000000E+00  0.00000000000E+00  0.66728195689E+03  0.66728195689E+03  0.00000000000E+00 0.  1.
          2   -1    0    0  501    0  0.00000000000E+00 -0.00000000000E+00 -0.72743693438E+03  0.72743693438E+03  0.00000000000E+00 0. -1.
         23    2    1    2    0    0 -0.39298841389E+03 -0.51018576709E+02  0.53953403239E+03  0.67592149479E+03  0.93435038341E+02 0.  0.
         11    1    3    3    0    0 -0.24522785540E+03  0.13048018596E+02  0.34248911418E+03  0.42143296642E+03  0.00000000000E+00 0.  1.
        -11    1    3    3    0    0 -0.14776055849E+03 -0.64066595305E+02  0.19704491821E+03  0.25448852837E+03  0.00000000000E+00 0. -1.
         22    1    1    2    0    0  0.39298841389E+03  0.51018576709E+02 -0.59968900988E+03  0.71879739649E+03  0.00000000000E+00 0. -1.
<mgrwt>
<rscale>  0 0.13934210E+04</rscale>
<asrwt>0</asrwt>
<pdfrwt beam="1">  1        2 0.11191337E+00 0.13934210E+04</pdfrwt>
<pdfrwt beam="2">  1       -2 0.10265876E+00 0.13934210E+04</pdfrwt>
<totfact> 0.29480039E+01</totfact>
</mgrwt>
</event>
<event>
 6    1  0.2047711E-005  0.2665322E+04  0.7818608E-02  0.8346345E-01
          2   -1    0    0  501    0  0.00000000000E+00  0.00000000000E+00  0.15944141730E+04  0.15944141730E+04  0.00000000000E+00 0. -1.
         -2   -1    0    0    0  501 -0.00000000000E+00 -0.00000000000E+00 -0.11138798522E+04  0.11138798522E+04  0.00000000000E+00 0.  1.
         23    2    1    2    0    0 -0.10583536722E+04  0.79222972100E+03  0.82056716523E+02  0.13275243749E+04  0.88584619601E+02 0.  0.
         11    1    3    3    0    0 -0.83402515547E+03  0.66768740066E+03  0.70194293650E+02  0.10706687928E+04  0.00000000000E+00 0.  1.
        -11    1    3    3    0    0 -0.22432851673E+03  0.12454232035E+03  0.11862422873E+02  0.25685558209E+03  0.00000000000E+00 0. -1.
         22    1    1    2    0    0  0.10583536722E+04 -0.79222972100E+03  0.39847760428E+03  0.13807696504E+04  0.00000000000E+00 0. -1.
<mgrwt>
<rscale>  0 0.26653224E+04</rscale>
<asrwt>0</asrwt>
<pdfrwt beam="1">  1        2 0.24529449E+00 0.26653224E+04</pdfrwt>
<pdfrwt beam="2">  1       -2 0.17136613E+00 0.26653224E+04</pdfrwt>
<totfact> 0.20600612E+00</totfact>
</mgrwt>
</event>
<event>
 6    1  0.2047711E-005  0.1392962E+04  0.7818608E-02  0.8958929E-01
          2   -1    0    0  501    0  0.00000000000E+00  0.00000000000E+00  0.25118367989E+04  0.25118367989E+04  0.00000000000E+00 0.  1.
         -2   -1    0    0    0  501 -0.00000000000E+00 -0.00000000000E+00 -0.19311981198E+03  0.19311981198E+03  0.00000000000E+00 0. -1.
         23    2    1    2    0    0  0.13054700838E+03 -0.29483121358E+03  0.23564365404E+04  0.23803172254E+04  0.95650188927E+02 0.  0.
         11    1    3    3    0    0  0.48780637086E+02 -0.95123109832E+02  0.11294877427E+04  0.11345353752E+04  0.00000000000E+00 0. -1.
        -11    1    3    3    0    0  0.81766371297E+02 -0.19970810374E+03  0.12269487977E+04  0.12457818502E+04  0.00000000000E+00 0.  1.
         22    1    1    2    0    0 -0.13054700838E+03  0.29483121358E+03 -0.37719553481E+02  0.32463938549E+03  0.00000000000E+00 0. -1.
<mgrwt>
<rscale>  0 0.13929615E+04</rscale>
<asrwt>0</asrwt>
<pdfrwt beam="1">  1        2 0.38643641E+00 0.13929615E+04</pdfrwt>
<pdfrwt beam="2">  1       -2 0.29710742E-01 0.13929615E+04</pdfrwt>
<totfact> 0.34974878E+01</totfact>
</mgrwt>
</event>
<event>
 6    1  0.2047711E-005  0.3009257E+04  0.7818608E-02  0.8241092E-01
         -2   -1    0    0    0  501 -0.00000000000E+00  0.00000000000E+00  0.11341558868E+04  0.11341558868E+04  0.00000000000E+00 0.  1.
          2   -1    0    0  501    0  0.00000000000E+00 -0.00000000000E+00 -0.19961160875E+04  0.19961160875E+04  0.00000000000E+00 0. -1.
         23    2    1    2    0    0  0.75987269598E+03 -0.12508527074E+04 -0.78840158639E+03  0.16648539864E+04  0.90126160736E+02 0.  0.
         13    1    3    3    0    0  0.59119057268E+03 -0.91872512076E+03 -0.61848568695E+03  0.12554229111E+04  0.00000000000E+00 0. -1.
        -13    1    3    3    0    0  0.16868212329E+03 -0.33212758665E+03 -0.16991589944E+03  0.40943107529E+03  0.00000000000E+00 0.  1.
         22    1    1    2    0    0 -0.75987269598E+03  0.12508527074E+04 -0.73558614301E+02  0.14654179880E+04  0.00000000000E+00 0.  1.
<mgrwt>
<rscale>  0 0.30092569E+04</rscale>
<asrwt>0</asrwt>
<pdfrwt beam="1">  1        2 0.30709478E+00 0.30092569E+04</pdfrwt>
<pdfrwt beam="2">  1       -2 0.17448552E+00 0.30092569E+04</pdfrwt>
<totfact> 0.11379951E+00</totfact>
</mgrwt>
</event>
<event>
 6    1  0.2047711E-005  0.4647739E+04  0.7818608E-02  0.7885270E-01
          2   -1    0    0  501    0  0.00000000000E+00  0.00000000000E+00  0.37109447314E+04  0.37109447314E+04  0.00000000000E+00 0. -1.
         -2   -1    0    0    0  501 -0.00000000000E+00 -0.00000000000E+00 -0.14552547315E+04  0.14552547315E+04  0.00000000000E+00 0.  1.
         23    2    1    2    0    0  0.16997851502E+04  0.37390167195E+03 -0.58194775313E+03  0.18373468026E+04  0.90044813724E+02 0.  0.
         13    1    3    3    0    0  0.18552053374E+03  0.51743211366E+02 -0.92522519944E+02  0.21367181625E+03  0.00000000000E+00 0. -1.
        -13    1    3    3    0    0  0.15142646165E+04  0.32215846058E+03 -0.48942523319E+03  0.16236749863E+04  0.00000000000E+00 0.  1.
         22    1    1    2    0    0 -0.16997851502E+04 -0.37390167195E+03  0.28376377530E+04  0.33288526604E+04  0.00000000000E+00 0.  1.
<mgrwt>
<rscale>  0 0.46477392E+04</rscale>
<asrwt>0</asrwt>
<pdfrwt beam="1">  1        2 0.57091457E+00 0.46477392E+04</pdfrwt>
<pdfrwt beam="2">  1       -2 0.22388535E+00 0.46477392E+04</pdfrwt>
<totfact> 0.39952059E-02</totfact>
</mgrwt>
</event>
<event>
 6    1  0.2047711E-005  0.1366555E+04  0.7818608E-02  0.8978390E-01
          2   -1    0    0  501    0  0.00000000000E+00  0.00000000000E+00  0.74658055495E+03  0.74658055495E+03  0.00000000000E+00 0. -1.
         -2   -1    0    0    0  501 -0.00000000000E+00 -0.00000000000E+00 -0.62534206068E+03  0.62534206068E+03  0.00000000000E+00 0.  1.
         23    2    1    2    0    0  0.58260949200E+03  0.11718667231E+03  0.39311547492E+03  0.71840625858E+03  0.91658275200E+02 0.  0.
         11    1    3    3    0    0  0.37567941485E+03  0.47928168871E+02  0.29029458000E+03  0.47718243397E+03  0.00000000000E+00 0. -1.
        -11    1    3    3    0    0  0.20693007715E+03  0.69258503444E+02  0.10282089493E+03  0.24122382461E+03  0.00000000000E+00 0.  1.
         22    1    1    2    0    0 -0.58260949200E+03 -0.11718667231E+03 -0.27187698065E+03  0.65351635706E+03  0.00000000000E+00 0.  1.
<mgrwt>
<rscale>  0 0.13665551E+04</rscale>
<asrwt>0</asrwt>
<pdfrwt beam="1">  1        2 0.11485855E+00 0.13665551E+04</pdfrwt>
<pdfrwt beam="2">  1       -2 0.96206471E-01 0.13665551E+04</pdfrwt>
<totfact> 0.33311868E+01</totfact>
</mgrwt>
</event>
<event>
 6    1  0.2047711E-005  0.1031825E+04  0.7818608E-02  0.9274312E-01
          2   -1    0    0  501    0  0.00000000000E+00  0.00000000000E+00  0.29230553235E+03  0.29230553235E+03  0.00000000000E+00 0. -1.
         -2   -1    0    0    0  501 -0.00000000000E+00 -0.00000000000E+00 -0.91057448779E+03  0.91057448779E+03  0.00000000000E+00 0.  1.
         23    2    1    2    0    0 -0.17827895931E+03 -0.38154322839E+03 -0.65067818259E+03  0.78049514770E+03  0.91825681757E+02 0.  0.
         11    1    3    3    0    0 -0.11217683328E+03 -0.31901901956E+03 -0.48126737863E+03  0.58819645231E+03  0.00000000000E+00 0. -1.
        -11    1    3    3    0    0 -0.66102126036E+02 -0.62524208826E+02 -0.16941080395E+03  0.19229869540E+03  0.00000000000E+00 0.  1.
         22    1    1    2    0    0  0.17827895931E+03  0.38154322839E+03  0.32409227149E+02  0.42238487244E+03  0.00000000000E+00 0.  1.
<mgrwt>
<rscale>  0 0.10318255E+04</rscale>
<asrwt>0</asrwt>
<pdfrwt beam="1">  1        2 0.44970082E-01 0.10318255E+04</pdfrwt>
<pdfrwt beam="2">  1       -2 0.14008838E+00 0.10318255E+04</pdfrwt>
<totfact> 0.40356138E+01</totfact>
</mgrwt>
</event>
<event>
 6    1  0.2047711E-005  0.2675114E+04  0.7818608E-02  0.8343125E-01
          2   -1    0    0  501    0  0.00000000000E+00  0.00000000000E+00  0.23706682282E+04  0.23706682282E+04  0.00000000000E+00 0. -1.
         -2   -1    0    0    0  501 -0.00000000000E+00 -0.00000000000E+00 -0.75466423296E+03  0.75466423296E+03  0.00000000000E+00 0.  1.
         23    2    1    2    0    0 -0.11392457283E+04 -0.69670523956E+03  0.75496419458E+03  0.15364118972E+04  0.85507673800E+02 0.  0.
         13    1    3    3    0    0 -0.18066297532E+03 -0.75142943290E+02  0.11044831525E+03  0.22468734481E+03  0.00000000000E+00 0. -1.
        -13    1    3    3    0    0 -0.95858275301E+03 -0.62156229627E+03  0.64451587933E+03  0.13117245523E+04  0.00000000000E+00 0.  1.
         22    1    1    2    0    0  0.11392457283E+04  0.69670523956E+03  0.86103980061E+03  0.15889205640E+04  0.00000000000E+00 0.  1.
<mgrwt>
<rscale>  0 0.26751138E+04</rscale>
<asrwt>0</asrwt>
<pdfrwt beam="1">  1        2 0.36471818E+00 0.26751138E+04</pdfrwt>
<pdfrwt beam="2">  1       -2 0.11610219E+00 0.26751138E+04</pdfrwt>
<totfact> 0.20921914E+00</totfact>
</mgrwt>
</event>
<event>
 6    1  0.2047711E-005  0.5309466E+04  0.7818608E-02  0.7782465E-01
          2   -1    0    0  501    0  0.00000000000E+00  0.00000000000E+00  0.28991702987E+04  0.28991702987E+04  0.00000000000E+00 0. -1.
         -2   -1    0    0    0  501 -0.00000000000E+00 -0.00000000000E+00 -0.24309044642E+04  0.24309044642E+04  0.00000000000E+00 0.  1.
         23    2    1    2    0    0 -0.17390697245E+04  0.60766685261E+03  0.21521027977E+04  0.28342924349E+04  0.89691940911E+02 0.  0.
         11    1    3    3    0    0 -0.11556270433E+04  0.37855085179E+03  0.13654855670E+04  0.18284762630E+04  0.00000000000E+00 0. -1.
        -11    1    3    3    0    0 -0.58344268118E+03  0.22911600081E+03  0.78661723061E+03  0.10058161718E+04  0.00000000000E+00 0.  1.
         22    1    1    2    0    0  0.17390697245E+04 -0.60766685261E+03 -0.16838369632E+04  0.24957823280E+04  0.00000000000E+00 0.  1.
<mgrwt>
<rscale>  0 0.53094655E+04</rscale>
<asrwt>0</asrwt>
<pdfrwt beam="1">  1        2 0.44602620E+00 0.53094655E+04</pdfrwt>
<pdfrwt beam="2">  1       -2 0.37398530E+00 0.53094655E+04</pdfrwt>
<totfact> 0.15642708E-02</totfact>
</mgrwt>
</event>
<event>
 6    1  0.2047711E-005  0.2971347E+04  0.7818608E-02  0.8251961E-01
         -2   -1    0    0    0  501 -0.00000000000E+00  0.00000000000E+00  0.12947476887E+04  0.12947476887E+04  0.00000000000E+00 0.  1.
          2   -1    0    0  501    0  0.00000000000E+00 -0.00000000000E+00 -0.17047531517E+04  0.17047531517E+04  0.00000000000E+00 0. -1.
         23    2    1    2    0    0  0.36648905780E+03  0.76096712857E+02 -0.16549517691E+04  0.16995022848E+04  0.96631873693E+02 0.  0.
         13    1    3    3    0    0  0.14135125552E+03  0.18782135263E+02 -0.43969355974E+03  0.46223735518E+03  0.00000000000E+00 0. -1.
        -13    1    3    3    0    0  0.22513780227E+03  0.57314577594E+02 -0.12152582093E+04  0.12372649297E+04  0.00000000000E+00 0.  1.
         22    1    1    2    0    0 -0.36648905780E+03 -0.76096712857E+02  0.12449463061E+04  0.12999985555E+04  0.00000000000E+00 0.  1.
<mgrwt>
<rscale>  0 0.29713466E+04</rscale>
<asrwt>0</asrwt>
<pdfrwt beam="1">  1        2 0.26226972E+00 0.29713466E+04</pdfrwt>
<pdfrwt beam="2">  1       -2 0.19919195E+00 0.29713466E+04</pdfrwt>
<totfact> 0.11261780E+00</totfact>
</mgrwt>
</event>
<event>
 6    1  0.2047711E-005  0.2021909E+04  0.7818608E-02  0.8596445E-01
         -2   -1    0    0    0  501 -0.00000000000E+00  0.00000000000E+00  0.41546799098E+03  0.41546799098E+03  0.00000000000E+00 0. -1.
          2   -1    0    0  501    0  0.00000000000E+00 -0.00000000000E+00 -0.24599466210E+04  0.24599466210E+04  0.00000000000E+00 0.  1.
         23    2    1    2    0    0 -0.44964269791E+03  0.27314627791E+03 -0.22486103080E+04  0.23110945017E+04  0.90122327520E+02 0.  0.
         13    1    3    3    0    0 -0.24840746442E+03  0.15548853932E+03 -0.14419083143E+04  0.14713879641E+04  0.00000000000E+00 0.  1.
        -13    1    3    3    0    0 -0.20123523350E+03  0.11765773858E+03 -0.80670199370E+03  0.83970653760E+03  0.00000000000E+00 0. -1.
         22    1    1    2    0    0  0.44964269791E+03 -0.27314627791E+03  0.20413167793E+03  0.56432011027E+03  0.00000000000E+00 0. -1.
<mgrwt>
<rscale>  0 0.20219091E+04</rscale>
<asrwt>0</asrwt>
<pdfrwt beam="1">  1        2 0.37845333E+00 0.20219091E+04</pdfrwt>
<pdfrwt beam="2">  1       -2 0.63918152E-01 0.20219091E+04</pdfrwt>
<totfact> 0.77107101E+00</totfact>
</mgrwt>
</event>
<event>
 6    1  0.2047711E-005  0.6918657E+03  0.7818608E-02  0.9731245E-01
          2   -1    0    0  501    0  0.00000000000E+00  0.00000000000E+00  0.18483291954E+04  0.18483291954E+04  0.00000000000E+00 0. -1.
         -2   -1    0    0    0  501 -0.00000000000E+00 -0.00000000000E+00 -0.64744717158E+02  0.64744717158E+02  0.00000000000E+00 0.  1.
         23    2    1    2    0    0  0.12016074569E+03  0.30325654823E+03  0.11726961835E+04  0.12205512433E+04  0.90143550899E+02 0.  0.
         13    1    3    3    0    0  0.12002362082E+03  0.20504503087E+03  0.89502409091E+03  0.92602227702E+03  0.00000000000E+00 0.  1.
        -13    1    3    3    0    0  0.13712486821E+00  0.98211517358E+02  0.27767209261E+03  0.29452896624E+03  0.00000000000E+00 0. -1.
         22    1    1    2    0    0 -0.12016074569E+03 -0.30325654823E+03  0.61088829477E+03  0.69252266933E+03  0.00000000000E+00 0.  1.
<mgrwt>
<rscale>  0 0.69186574E+03</rscale>
<asrwt>0</asrwt>
<pdfrwt beam="1">  1        2 0.28435830E+00 0.69186574E+03</pdfrwt>
<pdfrwt beam="2">  1       -2 0.99607271E-02 0.69186574E+03</pdfrwt>
<totfact> 0.57361242E+02</totfact>
</mgrwt>
</event>
<event>
 6    1  0.2047711E-005  0.4114115E+04  0.7818608E-02  0.7981913E-01
         -2   -1    0    0    0  501 -0.00000000000E+00  0.00000000000E+00  0.39176867701E+04  0.39176867701E+04  0.00000000000E+00 0. -1.
          2   -1    0    0  501    0  0.00000000000E+00 -0.00000000000E+00 -0.10800978920E+04  0.10800978920E+04  0.00000000000E+00 0.  1.
         23    2    1    2    0    0  0.18922291784E+04  0.72874542715E+03  0.18326874788E+04  0.27347274415E+04  0.91594886121E+02 0.  0.
         13    1    3    3    0    0  0.12587457029E+04  0.49360699448E+03  0.11642770150E+04  0.17842728426E+04  0.00000000000E+00 0. -1.
        -13    1    3    3    0    0  0.63348347559E+03  0.23513843267E+03  0.66841046382E+03  0.95045459887E+03  0.00000000000E+00 0.  1.
         22    1    1    2    0    0 -0.18922291784E+04 -0.72874542715E+03  0.10049013994E+04  0.22630572206E+04  0.00000000000E+00 0.  1.
<mgrwt>
<rscale>  0 0.41141148E+04</rscale>
<asrwt>0</asrwt>
<pdfrwt beam="1">  1        2 0.16616891E+00 0.41141148E+04</pdfrwt>
<pdfrwt beam="2">  1       -2 0.60272104E+00 0.41141148E+04</pdfrwt>
<totfact> 0.86789101E-03</totfact>
</mgrwt>
</event>
<event>
 6    1  0.2047711E-005  0.2767814E+03  0.7818608E-02  0.1097460E+00
          2   -1    0    0  501    0  0.00000000000E+00  0.00000000000E+00  0.68708656244E+03  0.68708656244E+03  0.00000000000E+00 0.  1.
         -2   -1    0    0    0  501 -0.00000000000E+00 -0.00000000000E+00 -0.27874204447E+02  0.27874204447E+02  0.00000000000E+00 0. -1.
         23    2    1    2    0    0  0.56501088964E+02 -0.39010168995E+02  0.63062828143E+03  0.64058862310E+03  0.89149247686E+02 0.  0.
         11    1    3    3    0    0  0.99933582026E+01  0.27015421507E+02  0.23827458873E+03  0.24000933283E+03  0.00000000000E+00 0. -1.
        -11    1    3    3    0    0  0.46507730761E+02 -0.66025590502E+02  0.39235369270E+03  0.40057929027E+03  0.00000000000E+00 0.  1.
         22    1    1    2    0    0 -0.56501088964E+02  0.39010168995E+02  0.28584076565E+02  0.74372143792E+02  0.00000000000E+00 0. -1.
<mgrwt>
<rscale>  0 0.27678144E+03</rscale>
<asrwt>0</asrwt>
<pdfrwt beam="1">  1        2 0.10570561E+00 0.27678144E+03</pdfrwt>
<pdfrwt beam="2">  1       -2 0.42883397E-02 0.27678144E+03</pdfrwt>
<totfact> 0.10573176E+04</totfact>
</mgrwt>
</event>
<event>
 6    1  0.2047711E-005  0.1739169E+04  0.7818608E-02  0.8739335E-01
         -2   -1    0    0    0  501 -0.00000000000E+00  0.00000000000E+00  0.17165877394E+04  0.17165877394E+04  0.00000000000E+00 0.  1.
          2   -1    0    0  501    0  0.00000000000E+00 -0.00000000000E+00 -0.44051167917E+03  0.44051167917E+03  0.00000000000E+00 0. -1.
         23    2    1    2    0    0 -0.11671815228E+03  0.30162513027E+03 -0.35792756072E+03  0.49139575960E+03  0.93577815494E+02 0.  0.
         13    1    3    3    0    0 -0.38892450426E+02  0.19147458265E+03 -0.25753116742E+03  0.32326063895E+03  0.00000000000E+00 0.  1.
        -13    1    3    3    0    0 -0.77825701854E+02  0.11015054761E+03 -0.10039639329E+03  0.16813512065E+03  0.00000000000E+00 0. -1.
         22    1    1    2    0    0  0.11671815228E+03 -0.30162513027E+03  0.16340036210E+04  0.16657036590E+04  0.00000000000E+00 0.  1.
<mgrwt>
<rscale>  0 0.17391687E+04</rscale>
<asrwt>0</asrwt>
<pdfrwt beam="1">  1        2 0.67771029E-01 0.17391687E+04</pdfrwt>
<pdfrwt beam="2">  1       -2 0.26409042E+00 0.17391687E+04</pdfrwt>
<totfact> 0.35624399E+00</totfact>
</mgrwt>
</event>
<event>
 6    1  0.2047711E-005  0.1913349E+04  0.7818608E-02  0.8648240E-01
          2   -1    0    0  501    0  0.00000000000E+00  0.00000000000E+00  0.57683535755E+03  0.57683535755E+03  0.00000000000E+00 0. -1.
         -2   -1    0    0    0  501 -0.00000000000E+00 -0.00000000000E+00 -0.15866328978E+04  0.15866328978E+04  0.00000000000E+00 0.  1.
         23    2    1    2    0    0 -0.15581828353E+03  0.90892903851E+03 -0.78470295538E+03  0.12142059593E+04  0.90033599070E+02 0.  0.
         13    1    3    3    0    0 -0.88892875121E+02  0.28651098741E+03 -0.23423066155E+03  0.38059754593E+03  0.00000000000E+00 0. -1.
        -13    1    3    3    0    0 -0.66925408413E+02  0.62241805109E+03 -0.55047229383E+03  0.83360841340E+03  0.00000000000E+00 0.  1.
         22    1    1    2    0    0  0.15581828353E+03 -0.90892903851E+03 -0.22509458488E+03  0.94926229603E+03  0.00000000000E+00 0.  1.
<mgrwt>
<rscale>  0 0.19133488E+04</rscale>
<asrwt>0</asrwt>
<pdfrwt beam="1">  1        2 0.88743901E-01 0.19133488E+04</pdfrwt>
<pdfrwt beam="2">  1       -2 0.24409737E+00 0.19133488E+04</pdfrwt>
<totfact> 0.33990973E+00</totfact>
</mgrwt>
</event>
<event>
 6    1  0.2047711E-005  0.2816535E+04  0.7818608E-02  0.8298153E-01
         -2   -1    0    0    0  501 -0.00000000000E+00  0.00000000000E+00  0.11303536581E+04  0.11303536581E+04  0.00000000000E+00 0.  1.
          2   -1    0    0  501    0  0.00000000000E+00 -0.00000000000E+00 -0.17545108530E+04  0.17545108530E+04  0.00000000000E+00 0. -1.
         23    2    1    2    0    0  0.51239401689E+02 -0.13523549186E+04 -0.70584991181E+03  0.15290758099E+04  0.91429932093E+02 0.  0.
         13    1    3    3    0    0  0.55675985672E+02 -0.43247546687E+03 -0.20816575909E+03  0.48318508678E+03  0.00000000000E+00 0.  1.
        -13    1    3    3    0    0 -0.44365839826E+01 -0.91987945171E+03 -0.49768415272E+03  0.10458907232E+04  0.00000000000E+00 0. -1.
         22    1    1    2    0    0 -0.51239401689E+02  0.13523549186E+04  0.81692716850E+02  0.13557887011E+04  0.00000000000E+00 0.  1.
<mgrwt>
<rscale>  0 0.28165353E+04</rscale>
<asrwt>0</asrwt>
<pdfrwt beam="1">  1        2 0.26992475E+00 0.28165353E+04</pdfrwt>
<pdfrwt beam="2">  1       -2 0.17390056E+00 0.28165353E+04</pdfrwt>
<totfact> 0.15898060E+00</totfact>
</mgrwt>
</event>
<event>
 6    1  0.2047711E-005  0.2691337E+04  0.7818608E-02  0.8337821E-01
         -1   -1    0    0    0  501 -0.00000000000E+00  0.00000000000E+00  0.97539407764E+03  0.97539407764E+03  0.00000000000E+00 0.  1.
          1   -1    0    0  501    0  0.00000000000E+00 -0.00000000000E+00 -0.18565048608E+04  0.18565048608E+04  0.00000000000E+00 0. -1.
         23    2    1    2    0    0 -0.59617768776E+03 -0.11144319894E+04  0.43222307729E+02  0.12660834457E+04  0.60931348894E+02 0.  0.
         13    1    3    3    0    0 -0.19980093576E+03 -0.41089595438E+03 -0.77411814943E+01  0.45696370222E+03  0.00000000000E+00 0. -1.
        -13    1    3    3    0    0 -0.39637675200E+03 -0.70353603501E+03  0.50963489223E+02  0.80911974350E+03  0.00000000000E+00 0.  1.
         22    1    1    2    0    0  0.59617768776E+03  0.11144319894E+04 -0.92433309090E+03  0.15658154927E+04  0.00000000000E+00 0. -1.
<mgrwt>
<rscale>  0 0.26913371E+04</rscale>
<asrwt>0</asrwt>
<pdfrwt beam="1">  1        1 0.28561613E+00 0.26913371E+04</pdfrwt>
<pdfrwt beam="2">  1       -1 0.15006063E+00 0.26913371E+04</pdfrwt>
<totfact> 0.11356416E+00</totfact>
</mgrwt>
</event>
<event>
 6    1  0.2047711E-005  0.8691704E+03  0.7818608E-02  0.9464962E-01
          2   -1    0    0  501    0  0.00000000000E+00  0.00000000000E+00  0.33867404633E+03  0.33867404633E+03  0.00000000000E+00 0. -1.
         -2   -1    0    0    0  501 -0.00000000000E+00 -0.00000000000E+00 -0.55765806935E+03  0.55765806935E+03  0.00000000000E+00 0.  1.
         23    2    1    2    0    0 -0.27931655049E+03 -0.32630753531E+03 -0.12879437248E+03  0.45743746312E+03  0.90369792014E+02 0.  0.
         13    1    3    3    0    0 -0.65775670308E+02 -0.71812471671E+02 -0.70311421275E+02  0.12011313772E+03  0.00000000000E+00 0. -1.
        -13    1    3    3    0    0 -0.21354088018E+03 -0.25449506364E+03 -0.58482951208E+02  0.33732432540E+03  0.00000000000E+00 0.  1.
         22    1    1    2    0    0  0.27931655049E+03  0.32630753531E+03 -0.90189650535E+02  0.43889465255E+03  0.00000000000E+00 0.  1.
<mgrwt>
<rscale>  0 0.86917044E+03</rscale>
<asrwt>0</asrwt>
<pdfrwt beam="1">  1        2 0.52103700E-01 0.86917044E+03</pdfrwt>
<pdfrwt beam="2">  1       -2 0.85793548E-01 0.86917044E+03</pdfrwt>
<totfact> 0.11367546E+02</totfact>
</mgrwt>
</event>
<event>
 6    1  0.2047711E-005  0.9172405E+03  0.7818608E-02  0.9404283E-01
         -1   -1    0    0    0  501 -0.00000000000E+00  0.00000000000E+00  0.45624334413E+03  0.45624334413E+03  0.00000000000E+00 0.  1.
          1   -1    0    0  501    0  0.00000000000E+00 -0.00000000000E+00 -0.46100953477E+03  0.46100953477E+03  0.00000000000E+00 0. -1.
         23    2    1    2    0    0  0.59373484969E+02 -0.27625386000E+03 -0.35856882863E+03  0.46446406220E+03  0.85521075367E+02 0.  0.
         13    1    3    3    0    0  0.12926281545E+02 -0.19342103734E+03 -0.28335635082E+03  0.34332143538E+03  0.00000000000E+00 0. -1.
        -13    1    3    3    0    0  0.46447203424E+02 -0.82832822666E+02 -0.75212477807E+02  0.12114262683E+03  0.00000000000E+00 0.  1.
         22    1    1    2    0    0 -0.59373484969E+02  0.27625386000E+03  0.35380263798E+03  0.45278881670E+03  0.00000000000E+00 0.  1.
<mgrwt>
<rscale>  0 0.91724050E+03</rscale>
<asrwt>0</asrwt>
<pdfrwt beam="1">  1        1 0.70924544E-01 0.91724050E+03</pdfrwt>
<pdfrwt beam="2">  1       -1 0.70191283E-01 0.91724050E+03</pdfrwt>
<totfact> 0.10242496E+02</totfact>
</mgrwt>
</event>
<event>
 6    1  0.2047711E-005  0.2039043E+04  0.7818608E-02  0.8588581E-01
          1   -1    0    0  501    0  0.00000000000E+00  0.00000000000E+00  0.88379702863E+03  0.88379702863E+03  0.00000000000E+00 0. -1.
         -1   -1    0    0    0  501 -0.00000000000E+00 -0.00000000000E+00 -0.11760890755E+04  0.11760890755E+04  0.00000000000E+00 0.  1.
         23    2    1    2    0    0 -0.53218451140E+02 -0.55431281820E+03  0.71381000752E+03  0.90995730294E+03  0.91666037231E+02 0.  0.
         13    1    3    3    0    0 -0.46256806738E+02 -0.39939142442E+03  0.44588783094E+03  0.60039083924E+03  0.00000000000E+00 0. -1.
        -13    1    3    3    0    0 -0.69616444017E+01 -0.15492139378E+03  0.26792217658E+03  0.30956646370E+03  0.00000000000E+00 0.  1.
         22    1    1    2    0    0  0.53218451140E+02  0.55431281820E+03 -0.10061020544E+04  0.11499288012E+04  0.00000000000E+00 0.  1.
<mgrwt>
<rscale>  0 0.20390429E+04</rscale>
<asrwt>0</asrwt>
<pdfrwt beam="1">  1        1 0.13596877E+00 0.20390429E+04</pdfrwt>
<pdfrwt beam="2">  1       -1 0.18093678E+00 0.20390429E+04</pdfrwt>
<totfact> 0.35549556E+00</totfact>
</mgrwt>
</event>
<event>
 6    1  0.2047711E-005  0.1541817E+04  0.7818608E-02  0.8857112E-01
         -1   -1    0    0    0  501 -0.00000000000E+00  0.00000000000E+00  0.91850793225E+03  0.91850793225E+03  0.00000000000E+00 0.  1.
          1   -1    0    0  501    0  0.00000000000E+00 -0.00000000000E+00 -0.64702752272E+03  0.64702752272E+03  0.00000000000E+00 0. -1.
         23    2    1    2    0    0  0.55978198776E+03  0.51596467942E+03  0.32023151970E+02  0.76746578230E+03  0.91666899746E+02 0.  0.
         11    1    3    3    0    0  0.36715727227E+03  0.30195781349E+03 -0.15560098505E+02  0.47563126513E+03  0.00000000000E+00 0. -1.
        -11    1    3    3    0    0  0.19262471549E+03  0.21400686593E+03  0.47583250475E+02  0.29183451717E+03  0.00000000000E+00 0.  1.
         22    1    1    2    0    0 -0.55978198776E+03 -0.51596467942E+03  0.23945725755E+03  0.79806967267E+03  0.00000000000E+00 0. -1.
<mgrwt>
<rscale>  0 0.15418170E+04</rscale>
<asrwt>0</asrwt>
<pdfrwt beam="1">  1        1 0.99542696E-01 0.15418170E+04</pdfrwt>
<pdfrwt beam="2">  1       -1 0.14130891E+00 0.15418170E+04</pdfrwt>
<totfact> 0.12094429E+01</totfact>
</mgrwt>
</event>
<event>
 6    1  0.2047711E-005  0.1341447E+04  0.7818608E-02  0.8997328E-01
         -2   -1    0    0    0  501 -0.00000000000E+00  0.00000000000E+00  0.26099158826E+03  0.26099158826E+03  0.00000000000E+00 0.  1.
          2   -1    0    0  501    0  0.00000000000E+00 -0.00000000000E+00 -0.17236958646E+04  0.17236958646E+04  0.00000000000E+00 0. -1.
         23    2    1    2    0    0  0.65272860782E+03 -0.10619648135E+03 -0.86982601163E+03  0.10965225105E+04  0.91825907749E+02 0.  0.
         11    1    3    3    0    0  0.17785651546E+03 -0.39030623828E+02 -0.17736483556E+03  0.25419404907E+03  0.00000000000E+00 0. -1.
        -11    1    3    3    0    0  0.47487209235E+03 -0.67165857518E+02 -0.69246117606E+03  0.84232846139E+03  0.00000000000E+00 0.  1.
         22    1    1    2    0    0 -0.65272860782E+03  0.10619648135E+03 -0.59287826469E+03  0.88816494237E+03  0.00000000000E+00 0.  1.
<mgrwt>
<rscale>  0 0.13414472E+04</rscale>
<asrwt>0</asrwt>
<pdfrwt beam="1">  1        2 0.26518398E+00 0.13414472E+04</pdfrwt>
<pdfrwt beam="2">  1       -2 0.40152552E-01 0.13414472E+04</pdfrwt>
<totfact> 0.54577900E+01</totfact>
</mgrwt>
</event>
<event>
 6    1  0.2047711E-005  0.9504464E+03  0.7818608E-02  0.9364629E-01
         -2   -1    0    0    0  501 -0.00000000000E+00  0.00000000000E+00  0.89880314447E+03  0.89880314447E+03  0.00000000000E+00 0.  1.
          2   -1    0    0  501    0  0.00000000000E+00 -0.00000000000E+00 -0.25126422895E+03  0.25126422895E+03  0.00000000000E+00 0. -1.
         23    2    1    2    0    0 -0.34363778754E+03 -0.31763202415E+03  0.26377666796E+03  0.54488104307E+03  0.91324633849E+02 0.  0.
         11    1    3    3    0    0 -0.19770031427E+03 -0.12712034255E+03  0.10719885461E+03  0.25833426057E+03  0.00000000000E+00 0. -1.
        -11    1    3    3    0    0 -0.14593747327E+03 -0.19051168160E+03  0.15657781335E+03  0.28654678250E+03  0.00000000000E+00 0.  1.
         22    1    1    2    0    0  0.34363778754E+03  0.31763202415E+03  0.38376224756E+03  0.60518633035E+03  0.00000000000E+00 0.  1.
<mgrwt>
<rscale>  0 0.95044638E+03</rscale>
<asrwt>0</asrwt>
<pdfrwt beam="1">  1        2 0.38656036E-01 0.95044638E+03</pdfrwt>
<pdfrwt beam="2">  1       -2 0.13827741E+00 0.95044638E+03</pdfrwt>
<totfact> 0.49641752E+01</totfact>
</mgrwt>
</event>
<event>
 6    1  0.2047711E-005  0.2068892E+04  0.7818608E-02  0.8575072E-01
          2   -1    0    0  501    0  0.00000000000E+00  0.00000000000E+00  0.15287780738E+04  0.15287780738E+04  0.00000000000E+00 0. -1.
         -2   -1    0    0    0  501 -0.00000000000E+00 -0.00000000000E+00 -0.69995670137E+03  0.69995670137E+03  0.00000000000E+00 0.  1.
         23    2    1    2    0    0  0.34299408584E+03  0.96847586491E+03  0.30556456380E+03  0.10757438248E+04  0.90910010932E+02 0.  0.
         11    1    3    3    0    0  0.17790187681E+03  0.63311883644E+03  0.19623341350E+03  0.68629154985E+03  0.00000000000E+00 0.  1.
        -11    1    3    3    0    0  0.16509220902E+03  0.33535702847E+03  0.10933115030E+03  0.38945227494E+03  0.00000000000E+00 0. -1.
         22    1    1    2    0    0 -0.34299408584E+03 -0.96847586491E+03  0.52325680859E+03  0.11529909503E+04  0.00000000000E+00 0. -1.
<mgrwt>
<rscale>  0 0.20688919E+04</rscale>
<asrwt>0</asrwt>
<pdfrwt beam="1">  1        2 0.23519663E+00 0.20688919E+04</pdfrwt>
<pdfrwt beam="2">  1       -2 0.10768565E+00 0.20688919E+04</pdfrwt>
<totfact> 0.78152544E+00</totfact>
</mgrwt>
</event>
<event>
 6    1  0.2047711E-005  0.1213220E+04  0.7818608E-02  0.9101363E-01
          2   -1    0    0  501    0  0.00000000000E+00  0.00000000000E+00  0.69371295552E+03  0.69371295552E+03  0.00000000000E+00 0.  1.
         -2   -1    0    0    0  501 -0.00000000000E+00 -0.00000000000E+00 -0.53044393556E+03  0.53044393556E+03  0.00000000000E+00 0. -1.
         23    2    1    2    0    0 -0.64804195653E+01 -0.28528917469E+03  0.61837032681E+03  0.68698921844E+03  0.90224254678E+02 0.  0.
         11    1    3    3    0    0 -0.35607893897E+02 -0.13251737609E+03  0.21938037728E+03  0.25875959308E+03  0.00000000000E+00 0.  1.
        -11    1    3    3    0    0  0.29127474332E+02 -0.15277179861E+03  0.39898994953E+03  0.42822962536E+03  0.00000000000E+00 0. -1.
         22    1    1    2    0    0  0.64804195653E+01  0.28528917469E+03 -0.45510130685E+03  0.53716767264E+03  0.00000000000E+00 0. -1.
<mgrwt>
<rscale>  0 0.12132202E+04</rscale>
<asrwt>0</asrwt>
<pdfrwt beam="1">  1        2 0.10672507E+00 0.12132202E+04</pdfrwt>
<pdfrwt beam="2">  1       -2 0.81606759E-01 0.12132202E+04</pdfrwt>
<totfact> 0.54028980E+01</totfact>
</mgrwt>
</event>
<event>
 6    1  0.2047711E-005  0.2663033E+04  0.7818608E-02  0.8347100E-01
          2   -1    0    0  501    0  0.00000000000E+00  0.00000000000E+00  0.19149506830E+04  0.19149506830E+04  0.00000000000E+00 0. -1.
         -2   -1    0    0    0  501 -0.00000000000E+00 -0.00000000000E+00 -0.92583897535E+03  0.92583897535E+03  0.00000000000E+00 0.  1.
         23    2    1    2    0    0  0.31729150829E+03 -0.72709024440E+03  0.16338174957E+04  0.18185471832E+04  0.91761231012E+02 0.  0.
         13    1    3    3    0    0  0.18420199255E+03 -0.38042699047E+03  0.77202258778E+03  0.88015563691E+03  0.00000000000E+00 0. -1.
        -13    1    3    3    0    0  0.13308951574E+03 -0.34666325393E+03  0.86179490795E+03  0.93839154631E+03  0.00000000000E+00 0.  1.
         22    1    1    2    0    0 -0.31729150829E+03  0.72709024440E+03 -0.64470578808E+03  0.10222424751E+04  0.00000000000E+00 0.  1.
<mgrwt>
<rscale>  0 0.26630328E+04</rscale>
<asrwt>0</asrwt>
<pdfrwt beam="1">  1        2 0.29460780E+00 0.26630328E+04</pdfrwt>
<pdfrwt beam="2">  1       -2 0.14243677E+00 0.26630328E+04</pdfrwt>
<totfact> 0.22510827E+00</totfact>
</mgrwt>
</event>
<event>
 6    1  0.2047711E-005  0.3288989E+04  0.7818608E-02  0.8165703E-01
         -2   -1    0    0    0  501 -0.00000000000E+00  0.00000000000E+00  0.17177477475E+04  0.17177477475E+04  0.00000000000E+00 0.  1.
          2   -1    0    0  501    0  0.00000000000E+00 -0.00000000000E+00 -0.15743652803E+04  0.15743652803E+04  0.00000000000E+00 0. -1.
         23    2    1    2    0    0 -0.72002347545E+03  0.11116423179E+04 -0.90178937333E+03  0.16049359108E+04  0.91721075289E+02 0.  0.
         13    1    3    3    0    0 -0.58091103673E+03  0.89634005776E+03 -0.68207178101E+03  0.12673219978E+04  0.00000000000E+00 0. -1.
        -13    1    3    3    0    0 -0.13911243872E+03  0.21530226016E+03 -0.21971759233E+03  0.33761391295E+03  0.00000000000E+00 0.  1.
         22    1    1    2    0    0  0.72002347545E+03 -0.11116423179E+04  0.10451718405E+04  0.16871771171E+04  0.00000000000E+00 0.  1.
<mgrwt>
<rscale>  0 0.32889892E+04</rscale>
<asrwt>0</asrwt>
<pdfrwt beam="1">  1        2 0.24221004E+00 0.32889892E+04</pdfrwt>
<pdfrwt beam="2">  1       -2 0.26426888E+00 0.32889892E+04</pdfrwt>
<totfact> 0.50626324E-01</totfact>
</mgrwt>
</event>
<event>
 6    1  0.2047711E-005  0.4138146E+04  0.7818608E-02  0.7977243E-01
          2   -1    0    0  501    0  0.00000000000E+00  0.00000000000E+00  0.25513582666E+04  0.25513582666E+04  0.00000000000E+00 0. -1.
         -2   -1    0    0    0  501 -0.00000000000E+00 -0.00000000000E+00 -0.16779547147E+04  0.16779547147E+04  0.00000000000E+00 0.  1.
         23    2    1    2    0    0  0.25910608008E+03  0.20371904479E+04  0.18775663048E+03  0.20642742790E+04  0.93246258496E+02 0.  0.
         13    1    3    3    0    0  0.25612414337E+02  0.52147370826E+03  0.51606651854E+02  0.52464661506E+03  0.00000000000E+00 0. -1.
        -13    1    3    3    0    0  0.23349366574E+03  0.15157167397E+04  0.13614997862E+03  0.15396276639E+04  0.00000000000E+00 0.  1.
         22    1    1    2    0    0 -0.25910608008E+03 -0.20371904479E+04  0.68564692142E+03  0.21650387024E+04  0.00000000000E+00 0.  1.
<mgrwt>
<rscale>  0 0.41381463E+04</rscale>
<asrwt>0</asrwt>
<pdfrwt beam="1">  1        2 0.39251666E+00 0.41381463E+04</pdfrwt>
<pdfrwt beam="2">  1       -2 0.25814688E+00 0.41381463E+04</pdfrwt>
<totfact> 0.14518532E-01</totfact>
</mgrwt>
</event>
<event>
 6    1  0.2047711E-005  0.2298908E+04  0.7818608E-02  0.8478352E-01
          2   -1    0    0  501    0  0.00000000000E+00  0.00000000000E+00  0.16875859659E+04  0.16875859659E+04  0.00000000000E+00 0. -1.
         -2   -1    0    0    0  501 -0.00000000000E+00 -0.00000000000E+00 -0.78291950724E+03  0.78291950724E+03  0.00000000000E+00 0.  1.
         23    2    1    2    0    0  0.60334858246E+03  0.45219470224E+03 -0.47673373749E+03  0.89672783237E+03  0.91302728304E+02 0.  0.
         13    1    3    3    0    0  0.18775631167E+03  0.18620634768E+03 -0.19478776800E+03  0.32843189713E+03  0.00000000000E+00 0. -1.
        -13    1    3    3    0    0  0.41559227079E+03  0.26598835456E+03 -0.28194596949E+03  0.56829593524E+03  0.00000000000E+00 0.  1.
         22    1    1    2    0    0 -0.60334858246E+03 -0.45219470224E+03  0.13814001962E+04  0.15737776408E+04  0.00000000000E+00 0. -1.
<mgrwt>
<rscale>  0 0.22989075E+04</rscale>
<asrwt>0</asrwt>
<pdfrwt beam="1">  1        2 0.25962861E+00 0.22989075E+04</pdfrwt>
<pdfrwt beam="2">  1       -2 0.12044916E+00 0.22989075E+04</pdfrwt>
<totfact> 0.47535220E+00</totfact>
</mgrwt>
</event>
<event>
 6    1  0.2047711E-005  0.1619890E+04  0.7818608E-02  0.8808421E-01
          2   -1    0    0  501    0  0.00000000000E+00  0.00000000000E+00  0.32826834154E+04  0.32826834154E+04  0.00000000000E+00 0. -1.
         -2   -1    0    0    0  501 -0.00000000000E+00 -0.00000000000E+00 -0.19983974905E+03  0.19983974905E+03  0.00000000000E+00 0.  1.
         23    2    1    2    0    0  0.48740628909E+03  0.44900678269E+03  0.55332926841E+03  0.86763978828E+03  0.86333894799E+02 0.  0.
         11    1    3    3    0    0  0.39607285120E+03  0.39858045688E+03  0.49033717993E+03  0.74576848558E+03  0.00000000000E+00 0.  1.
        -11    1    3    3    0    0  0.91333437894E+02  0.50426325809E+02  0.62992088477E+02  0.12187130270E+03  0.00000000000E+00 0. -1.
         22    1    1    2    0    0 -0.48740628909E+03 -0.44900678269E+03  0.25295143979E+04  0.26148833762E+04  0.00000000000E+00 0. -1.
<mgrwt>
<rscale>  0 0.16198897E+04</rscale>
<asrwt>0</asrwt>
<pdfrwt beam="1">  1        2 0.50502818E+00 0.16198897E+04</pdfrwt>
<pdfrwt beam="2">  1       -2 0.30744579E-01 0.16198897E+04</pdfrwt>
<totfact> 0.10820876E+01</totfact>
</mgrwt>
</event>
<event>
 6    1  0.2806806E-005  0.4657881E+04  0.7818608E-02  0.7883565E-01
         -2   -1    0    0    0  501 -0.00000000000E+00  0.00000000000E+00  0.25135308504E+04  0.25135308504E+04  0.00000000000E+00 0.  1.
          2   -1    0    0  501    0  0.00000000000E+00 -0.00000000000E+00 -0.21579058885E+04  0.21579058885E+04  0.00000000000E+00 0. -1.
         23    2    1    2    0    0 -0.93153101245E+03 -0.39628173863E+03  0.22806125496E+04  0.24964961750E+04  0.80686473387E+02 0.  0.
         11    1    3    3    0    0 -0.62912169263E+03 -0.29180876063E+03  0.16331416911E+04  0.17742880939E+04  0.00000000000E+00 0. -1.
        -11    1    3    3    0    0 -0.30240931982E+03 -0.10447297799E+03  0.64747085854E+03  0.72220808117E+03  0.00000000000E+00 0.  1.
         22    1    1    2    0    0  0.93153101245E+03  0.39628173863E+03 -0.19249875877E+04  0.21749405638E+04  0.00000000000E+00 0. -1.
<mgrwt>
<rscale>  0 0.46578806E+04</rscale>
<asrwt>0</asrwt>
<pdfrwt beam="1">  1        2 0.33198552E+00 0.46578806E+04</pdfrwt>
<pdfrwt beam="2">  1       -2 0.38669705E+00 0.46578806E+04</pdfrwt>
<totfact> 0.36972492E-02</totfact>
</mgrwt>
</event>
<event>
 6    1  0.2047711E-005  0.2029164E+04  0.7818608E-02  0.8593105E-01
         -2   -1    0    0    0  501 -0.00000000000E+00  0.00000000000E+00  0.14907819717E+04  0.14907819717E+04  0.00000000000E+00 0.  1.
          2   -1    0    0  501    0  0.00000000000E+00 -0.00000000000E+00 -0.69049475217E+03  0.69049475217E+03  0.00000000000E+00 0. -1.
         23    2    1    2    0    0 -0.76527659120E+03  0.25644051748E+03  0.10581165428E+04  0.13339952122E+04  0.92317972472E+02 0.  0.
         11    1    3    3    0    0 -0.66108977588E+03  0.25335769927E+03  0.93086874132E+03  0.11695069171E+04  0.00000000000E+00 0. -1.
        -11    1    3    3    0    0 -0.10418681532E+03  0.30828182120E+01  0.12724780149E+03  0.16448829514E+03  0.00000000000E+00 0.  1.
         22    1    1    2    0    0  0.76527659120E+03 -0.25644051748E+03 -0.25782932326E+03  0.84728151165E+03  0.00000000000E+00 0. -1.
<mgrwt>
<rscale>  0 0.20291645E+04</rscale>
<asrwt>0</asrwt>
<pdfrwt beam="1">  1        2 0.10622996E+00 0.20291645E+04</pdfrwt>
<pdfrwt beam="2">  1       -2 0.22935107E+00 0.20291645E+04</pdfrwt>
<totfact> 0.33332141E+00</totfact>
</mgrwt>
</event>
<event>
 6    1  0.2047711E-005  0.4095158E+04  0.7818608E-02  0.7985621E-01
         -2   -1    0    0    0  501 -0.00000000000E+00  0.00000000000E+00  0.14100136857E+04  0.14100136857E+04  0.00000000000E+00 0.  1.
          2   -1    0    0  501    0  0.00000000000E+00 -0.00000000000E+00 -0.29734313957E+04  0.29734313957E+04  0.00000000000E+00 0. -1.
         23    2    1    2    0    0  0.13936506987E+04  0.37948308929E+03  0.76973260939E+03  0.16393860263E+04  0.93960460112E+02 0.  0.
         11    1    3    3    0    0  0.43961642316E+03  0.15492991755E+03  0.21682665156E+03  0.51408139015E+03  0.00000000000E+00 0. -1.
        -11    1    3    3    0    0  0.95403427556E+03  0.22455317174E+03  0.55290595783E+03  0.11253046361E+04  0.00000000000E+00 0.  1.
         22    1    1    2    0    0 -0.13936506987E+04 -0.37948308929E+03 -0.23331503194E+04  0.27440590551E+04  0.00000000000E+00 0.  1.
<mgrwt>
<rscale>  0 0.40951576E+04</rscale>
<asrwt>0</asrwt>
<pdfrwt beam="1">  1        2 0.45745098E+00 0.40951576E+04</pdfrwt>
<pdfrwt beam="2">  1       -2 0.21692518E+00 0.40951576E+04</pdfrwt>
<totfact> 0.14634084E-01</totfact>
</mgrwt>
</event>
<event>
 6    1  0.2047711E-005  0.1323674E+04  0.7818608E-02  0.9011000E-01
          2   -1    0    0  501    0  0.00000000000E+00  0.00000000000E+00  0.14423722004E+04  0.14423722004E+04  0.00000000000E+00 0. -1.
         -2   -1    0    0    0  501 -0.00000000000E+00 -0.00000000000E+00 -0.30368585192E+03  0.30368585192E+03  0.00000000000E+00 0.  1.
         23    2    1    2    0    0 -0.36477995617E+03 -0.21110191424E+03 -0.95627669268E+02  0.44177298799E+03  0.91598510693E+02 0.  0.
         13    1    3    3    0    0 -0.30495710980E+03 -0.16851010474E+03 -0.11304979341E+03  0.36629871690E+03  0.00000000000E+00 0.  1.
        -13    1    3    3    0    0 -0.59822846376E+02 -0.42591809503E+02  0.17422124147E+02  0.75474271080E+02  0.00000000000E+00 0. -1.
         22    1    1    2    0    0  0.36477995617E+03  0.21110191424E+03  0.12343140177E+04  0.13042850643E+04  0.00000000000E+00 0. -1.
<mgrwt>
<rscale>  0 0.13236737E+04</rscale>
<asrwt>0</asrwt>
<pdfrwt beam="1">  1        2 0.22190341E+00 0.13236737E+04</pdfrwt>
<pdfrwt beam="2">  1       -2 0.46720901E-01 0.13236737E+04</pdfrwt>
<totfact> 0.58145831E+01</totfact>
</mgrwt>
</event>
<event>
 6    1  0.2047711E-005  0.1837409E+04  0.7818608E-02  0.8686655E-01
          2   -1    0    0  501    0  0.00000000000E+00  0.00000000000E+00  0.11711571317E+04  0.11711571317E+04  0.00000000000E+00 0.  1.
         -2   -1    0    0    0  501 -0.00000000000E+00 -0.00000000000E+00 -0.72066978936E+03  0.72066978936E+03  0.00000000000E+00 0. -1.
         23    2    1    2    0    0 -0.44971880069E+03 -0.30173892589E+03 -0.53531895165E+03  0.76705697641E+03  0.92285675806E+02 0.  0.
         13    1    3    3    0    0 -0.32122501919E+03 -0.19903653783E+03 -0.31411757842E+03  0.49139689602E+03  0.00000000000E+00 0. -1.
        -13    1    3    3    0    0 -0.12849378151E+03 -0.10270238806E+03 -0.22120137324E+03  0.27566008039E+03  0.00000000000E+00 0.  1.
         22    1    1    2    0    0  0.44971880069E+03  0.30173892589E+03  0.98580629399E+03  0.11247699446E+04  0.00000000000E+00 0.  1.
<mgrwt>
<rscale>  0 0.18374086E+04</rscale>
<asrwt>0</asrwt>
<pdfrwt beam="1">  1        2 0.18017802E+00 0.18374086E+04</pdfrwt>
<pdfrwt beam="2">  1       -2 0.11087228E+00 0.18374086E+04</pdfrwt>
<totfact> 0.11961139E+01</totfact>
</mgrwt>
</event>
<event>
 6    1  0.2047711E-005  0.1932725E+04  0.7818608E-02  0.8638736E-01
         -2   -1    0    0    0  501 -0.00000000000E+00  0.00000000000E+00  0.71501644556E+03  0.71501644556E+03  0.00000000000E+00 0.  1.
          2   -1    0    0  501    0  0.00000000000E+00 -0.00000000000E+00 -0.13060625769E+04  0.13060625769E+04  0.00000000000E+00 0. -1.
         23    2    1    2    0    0  0.84028569734E+03 -0.35772907282E+03  0.27244758240E+02  0.91820379522E+03  0.91136106962E+02 0.  0.
         13    1    3    3    0    0  0.52066083341E+03 -0.18058726377E+03  0.40110570070E+02  0.55254712117E+03  0.00000000000E+00 0.  1.
        -13    1    3    3    0    0  0.31962486393E+03 -0.17714180905E+03 -0.12865811830E+02  0.36565667404E+03  0.00000000000E+00 0. -1.
         22    1    1    2    0    0 -0.84028569734E+03  0.35772907282E+03 -0.61829088953E+03  0.11028752272E+04  0.00000000000E+00 0. -1.
<mgrwt>
<rscale>  0 0.19327247E+04</rscale>
<asrwt>0</asrwt>
<pdfrwt beam="1">  1        2 0.20093270E+00 0.19327247E+04</pdfrwt>
<pdfrwt beam="2">  1       -2 0.11000253E+00 0.19327247E+04</pdfrwt>
<totfact> 0.10064693E+01</totfact>
</mgrwt>
</event>
<event>
 6    1  0.2047711E-005  0.2206951E+04  0.7818608E-02  0.8515541E-01
         -2   -1    0    0    0  501 -0.00000000000E+00  0.00000000000E+00  0.16369933158E+04  0.16369933158E+04  0.00000000000E+00 0.  1.
          2   -1    0    0  501    0  0.00000000000E+00 -0.00000000000E+00 -0.74383791066E+03  0.74383791066E+03  0.00000000000E+00 0. -1.
         23    2    1    2    0    0  0.40545270992E+03  0.81247459713E+03 -0.22256809169E+03  0.94230914031E+03  0.11791136289E+03 0.  0.
         11    1    3    3    0    0  0.18967120435E+03  0.29797443491E+03 -0.41003607482E+02  0.35559137426E+03  0.00000000000E+00 0. -1.
        -11    1    3    3    0    0  0.21578150558E+03  0.51450016222E+03 -0.18156448421E+03  0.58671776605E+03  0.00000000000E+00 0.  1.
         22    1    1    2    0    0 -0.40545270992E+03 -0.81247459713E+03  0.11157234969E+04  0.14385220862E+04  0.00000000000E+00 0.  1.
<mgrwt>
<rscale>  0 0.22069506E+04</rscale>
<asrwt>0</asrwt>
<pdfrwt beam="1">  1        2 0.11443660E+00 0.22069506E+04</pdfrwt>
<pdfrwt beam="2">  1       -2 0.25184512E+00 0.22069506E+04</pdfrwt>
<totfact> 0.21673058E+00</totfact>
</mgrwt>
</event>
<event>
 6    1  0.2047711E-005  0.1176221E+04  0.7818608E-02  0.9133929E-01
          2   -1    0    0  501    0  0.00000000000E+00  0.00000000000E+00  0.27645776414E+04  0.27645776414E+04  0.00000000000E+00 0.  1.
         -2   -1    0    0    0  501 -0.00000000000E+00 -0.00000000000E+00 -0.12510912662E+03  0.12510912662E+03  0.00000000000E+00 0. -1.
         23    2    1    2    0    0 -0.27843724617E+03 -0.51401271300E+03  0.13509358939E+04  0.14747476583E+04  0.90091603642E+02 0.  0.
         13    1    3    3    0    0 -0.25559095908E+03 -0.41748133715E+03  0.10654670918E+04  0.11725346600E+04  0.00000000000E+00 0.  1.
        -13    1    3    3    0    0 -0.22846287092E+02 -0.96531375848E+02  0.28546880212E+03  0.30221299830E+03  0.00000000000E+00 0. -1.
         22    1    1    2    0    0  0.27843724617E+03  0.51401271300E+03  0.12885326209E+04  0.14149391097E+04  0.00000000000E+00 0. -1.
<mgrwt>
<rscale>  0 0.11762209E+04</rscale>
<asrwt>0</asrwt>
<pdfrwt beam="1">  1        2 0.42531959E+00 0.11762209E+04</pdfrwt>
<pdfrwt beam="2">  1       -2 0.19247560E-01 0.11762209E+04</pdfrwt>
<totfact> 0.55493604E+01</totfact>
</mgrwt>
</event>
<event>
 6    1  0.2047711E-005  0.1374965E+04  0.7818608E-02  0.8972142E-01
         -2   -1    0    0    0  501 -0.00000000000E+00  0.00000000000E+00  0.19713337518E+03  0.19713337518E+03  0.00000000000E+00 0.  1.
          2   -1    0    0  501    0  0.00000000000E+00 -0.00000000000E+00 -0.23975234172E+04  0.23975234172E+04  0.00000000000E+00 0. -1.
         23    2    1    2    0    0  0.19834706948E+03  0.62516545917E+03 -0.14642240499E+04  0.16086984874E+04  0.11741100272E+03 0.  0.
         11    1    3    3    0    0  0.13976350218E+03  0.33414692471E+03 -0.68538904777E+03  0.77520716627E+03  0.00000000000E+00 0. -1.
        -11    1    3    3    0    0  0.58583567296E+02  0.29101853446E+03 -0.77883500215E+03  0.83349132109E+03  0.00000000000E+00 0.  1.
         22    1    1    2    0    0 -0.19834706948E+03 -0.62516545917E+03 -0.73616599210E+03  0.98595830502E+03  0.00000000000E+00 0.  1.
<mgrwt>
<rscale>  0 0.13749646E+04</rscale>
<asrwt>0</asrwt>
<pdfrwt beam="1">  1        2 0.36884974E+00 0.13749646E+04</pdfrwt>
<pdfrwt beam="2">  1       -2 0.30328213E-01 0.13749646E+04</pdfrwt>
<totfact> 0.39196176E+01</totfact>
</mgrwt>
</event>
<event>
 6    1  0.2047711E-005  0.2460957E+04  0.7818608E-02  0.8417028E-01
          2   -1    0    0  501    0  0.00000000000E+00  0.00000000000E+00  0.35467670251E+04  0.35467670251E+04  0.00000000000E+00 0. -1.
         -2   -1    0    0    0  501 -0.00000000000E+00 -0.00000000000E+00 -0.42688933053E+03  0.42688933053E+03  0.00000000000E+00 0.  1.
         23    2    1    2    0    0  0.10557096508E+04  0.57310103506E+03  0.11432460610E+04  0.16606409475E+04  0.88029185746E+02 0.  0.
         13    1    3    3    0    0  0.49431024877E+03  0.21863114547E+03  0.50908014881E+03  0.74249902203E+03  0.00000000000E+00 0.  1.
        -13    1    3    3    0    0  0.56139940202E+03  0.35446988959E+03  0.63416591217E+03  0.91814192550E+03  0.00000000000E+00 0. -1.
         22    1    1    2    0    0 -0.10557096508E+04 -0.57310103506E+03  0.19766316336E+04  0.23130154081E+04  0.00000000000E+00 0.  1.
<mgrwt>
<rscale>  0 0.24609567E+04</rscale>
<asrwt>0</asrwt>
<pdfrwt beam="1">  1        2 0.54565645E+00 0.24609567E+04</pdfrwt>
<pdfrwt beam="2">  1       -2 0.65675284E-01 0.24609567E+04</pdfrwt>
<totfact> 0.14420282E+00</totfact>
</mgrwt>
</event>
<event>
 6    1  0.2047711E-005  0.3573611E+04  0.7818608E-02  0.8096563E-01
         -2   -1    0    0    0  501 -0.00000000000E+00  0.00000000000E+00  0.24082426615E+04  0.24082426615E+04  0.00000000000E+00 0.  1.
          2   -1    0    0  501    0  0.00000000000E+00 -0.00000000000E+00 -0.13257273893E+04  0.13257273893E+04  0.00000000000E+00 0. -1.
         23    2    1    2    0    0 -0.12535340858E+03  0.77697050352E+03 -0.11331787998E+04  0.13826519394E+04  0.90749946555E+02 0.  0.
         13    1    3    3    0    0 -0.36399983324E+01  0.71080207518E+02 -0.64085692834E+02  0.95773803906E+02  0.00000000000E+00 0.  1.
        -13    1    3    3    0    0 -0.12171341025E+03  0.70589029601E+03 -0.10690931070E+04  0.12868781355E+04  0.00000000000E+00 0. -1.
         22    1    1    2    0    0  0.12535340858E+03 -0.77697050352E+03  0.22156940720E+04  0.23513181114E+04  0.00000000000E+00 0.  1.
<mgrwt>
<rscale>  0 0.35736106E+04</rscale>
<asrwt>0</asrwt>
<pdfrwt beam="1">  1        2 0.20395806E+00 0.35736106E+04</pdfrwt>
<pdfrwt beam="2">  1       -2 0.37049887E+00 0.35736106E+04</pdfrwt>
<totfact> 0.15025015E-01</totfact>
</mgrwt>
</event>
<event>
 6    1  0.2047711E-005  0.4344294E+04  0.7818608E-02  0.7938478E-01
         -2   -1    0    0    0  501 -0.00000000000E+00  0.00000000000E+00  0.15697959855E+04  0.15697959855E+04  0.00000000000E+00 0. -1.
          2   -1    0    0  501    0  0.00000000000E+00 -0.00000000000E+00 -0.30056281937E+04  0.30056281937E+04  0.00000000000E+00 0.  1.
         23    2    1    2    0    0 -0.13628569823E+04 -0.14759262139E+04 -0.15857144068E+04  0.25609262228E+04  0.90086599390E+02 0.  0.
         13    1    3    3    0    0 -0.91078671664E+03 -0.10474139255E+04 -0.10999994380E+04  0.17710469046E+04  0.00000000000E+00 0. -1.
        -13    1    3    3    0    0 -0.45207026563E+03 -0.42851228838E+03 -0.48571496880E+03  0.78987931817E+03  0.00000000000E+00 0.  1.
         22    1    1    2    0    0  0.13628569823E+04  0.14759262139E+04  0.14988219854E+03  0.20144979564E+04  0.00000000000E+00 0. -1.
<mgrwt>
<rscale>  0 0.43442942E+04</rscale>
<asrwt>0</asrwt>
<pdfrwt beam="1">  1        2 0.46240433E+00 0.43442942E+04</pdfrwt>
<pdfrwt beam="2">  1       -2 0.24150708E+00 0.43442942E+04</pdfrwt>
<totfact> 0.96019762E-02</totfact>
</mgrwt>
</event>
<event>
 6    1  0.2047711E-005  0.2719125E+04  0.7818608E-02  0.8328826E-01
         -2   -1    0    0    0  501 -0.00000000000E+00  0.00000000000E+00  0.50397019456E+03  0.50397019456E+03  0.00000000000E+00 0.  1.
          2   -1    0    0  501    0  0.00000000000E+00 -0.00000000000E+00 -0.36676982174E+04  0.36676982174E+04  0.00000000000E+00 0. -1.
         23    2    1    2    0    0  0.40595746824E+03 -0.44791363405E+03  0.28207370841E+03  0.67324338623E+03  0.90900993037E+02 0.  0.
         11    1    3    3    0    0  0.10671233072E+03 -0.16490024369E+03  0.60364083444E+02  0.20548341653E+03  0.00000000000E+00 0.  1.
        -11    1    3    3    0    0  0.29924513752E+03 -0.28301339036E+03  0.22170962497E+03  0.46775996970E+03  0.00000000000E+00 0. -1.
         22    1    1    2    0    0 -0.40595746824E+03  0.44791363405E+03 -0.34458017313E+04  0.34984250258E+04  0.00000000000E+00 0. -1.
<mgrwt>
<rscale>  0 0.27191253E+04</rscale>
<asrwt>0</asrwt>
<pdfrwt beam="1">  1        2 0.56426127E+00 0.27191253E+04</pdfrwt>
<pdfrwt beam="2">  1       -2 0.77533876E-01 0.27191253E+04</pdfrwt>
<totfact> 0.80118087E-01</totfact>
</mgrwt>
</event>
<event>
 6    1  0.2047711E-005  0.2899679E+04  0.7818608E-02  0.8272973E-01
          1   -1    0    0  501    0  0.00000000000E+00  0.00000000000E+00  0.88552268759E+03  0.88552268759E+03  0.00000000000E+00 0. -1.
         -1   -1    0    0    0  501 -0.00000000000E+00 -0.00000000000E+00 -0.23737787101E+04  0.23737787101E+04  0.00000000000E+00 0.  1.
         23    2    1    2    0    0 -0.98308745504E+02 -0.89259194481E+03 -0.20222535682E+04  0.22145342618E+04  0.90925866379E+02 0.  0.
         13    1    3    3    0    0  0.11087807683E+01 -0.38063599806E+03 -0.88688673973E+03  0.96511816972E+03  0.00000000000E+00 0. -1.
        -13    1    3    3    0    0 -0.99417526272E+02 -0.51195594675E+03 -0.11353668285E+04  0.12494160921E+04  0.00000000000E+00 0.  1.
         22    1    1    2    0    0  0.98308745504E+02  0.89259194481E+03  0.53399754571E+03  0.10447671359E+04  0.00000000000E+00 0. -1.
<mgrwt>
<rscale>  0 0.28996792E+04</rscale>
<asrwt>0</asrwt>
<pdfrwt beam="1">  1        1 0.13623426E+00 0.28996792E+04</pdfrwt>
<pdfrwt beam="2">  1       -1 0.36519672E+00 0.28996792E+04</pdfrwt>
<totfact> 0.19751205E-01</totfact>
</mgrwt>
</event>
<event>
 6    1  0.2047711E-005  0.1759190E+04  0.7818608E-02  0.8728308E-01
          2   -1    0    0  501    0  0.00000000000E+00  0.00000000000E+00  0.16342100234E+04  0.16342100234E+04  0.00000000000E+00 0. -1.
         -2   -1    0    0    0  501 -0.00000000000E+00 -0.00000000000E+00 -0.47343193474E+03  0.47343193474E+03  0.00000000000E+00 0.  1.
         23    2    1    2    0    0 -0.15963848050E+03  0.84375602663E+03  0.79589114197E+03  0.11746086464E+04  0.94096149660E+02 0.  0.
         13    1    3    3    0    0 -0.82734540094E+02  0.29119252987E+03  0.32952531846E+03  0.44746511494E+03  0.00000000000E+00 0. -1.
        -13    1    3    3    0    0 -0.76903940410E+02  0.55256349676E+03  0.46636582350E+03  0.72714353145E+03  0.00000000000E+00 0.  1.
         22    1    1    2    0    0  0.15963848050E+03 -0.84375602663E+03  0.36488694665E+03  0.93303331171E+03  0.00000000000E+00 0.  1.
<mgrwt>
<rscale>  0 0.17591898E+04</rscale>
<asrwt>0</asrwt>
<pdfrwt beam="1">  1        2 0.25141692E+00 0.17591898E+04</pdfrwt>
<pdfrwt beam="2">  1       -2 0.72835683E-01 0.17591898E+04</pdfrwt>
<totfact> 0.17217819E+01</totfact>
</mgrwt>
</event>
<event>
 6    1  0.2047711E-005  0.3735269E+04  0.7818608E-02  0.8060190E-01
          2   -1    0    0  501    0  0.00000000000E+00  0.00000000000E+00  0.18617941842E+04  0.18617941842E+04  0.00000000000E+00 0. -1.
         -2   -1    0    0    0  501 -0.00000000000E+00 -0.00000000000E+00 -0.18734933969E+04  0.18734933969E+04  0.00000000000E+00 0.  1.
         23    2    1    2    0    0  0.11305613384E+04 -0.56040001438E+03 -0.13812539111E+04  0.18730584899E+04  0.90931971710E+02 0.  0.
         11    1    3    3    0    0  0.86343862195E+03 -0.38938512067E+03 -0.10064112540E+04  0.13820313449E+04  0.00000000000E+00 0.  1.
        -11    1    3    3    0    0  0.26712271649E+03 -0.17101489371E+03 -0.37484265709E+03  0.49102714498E+03  0.00000000000E+00 0. -1.
         22    1    1    2    0    0 -0.11305613384E+04  0.56040001438E+03  0.13695546985E+04  0.18622290912E+04  0.00000000000E+00 0. -1.
<mgrwt>
<rscale>  0 0.37352693E+04</rscale>
<asrwt>0</asrwt>
<pdfrwt beam="1">  1        2 0.28642988E+00 0.37352693E+04</pdfrwt>
<pdfrwt beam="2">  1       -2 0.28822975E+00 0.37352693E+04</pdfrwt>
<totfact> 0.24110234E-01</totfact>
</mgrwt>
</event>
<event>
 6    1  0.2047711E-005  0.3455875E+04  0.7818608E-02  0.8124327E-01
          2   -1    0    0  501    0  0.00000000000E+00  0.00000000000E+00  0.21966109048E+04  0.21966109048E+04  0.00000000000E+00 0. -1.
         -2   -1    0    0    0  501 -0.00000000000E+00 -0.00000000000E+00 -0.13592615972E+04  0.13592615972E+04  0.00000000000E+00 0.  1.
         23    2    1    2    0    0  0.15566410229E+04  0.74543400593E+03  0.47419281901E+03  0.17921588726E+04  0.90396150031E+02 0.  0.
         13    1    3    3    0    0  0.75764345384E+03  0.41292840885E+03  0.23682505275E+03  0.89477347948E+03  0.00000000000E+00 0. -1.
        -13    1    3    3    0    0  0.79899756902E+03  0.33250559708E+03  0.23736776625E+03  0.89738539315E+03  0.00000000000E+00 0.  1.
         22    1    1    2    0    0 -0.15566410229E+04 -0.74543400593E+03  0.36315648865E+03  0.17637136294E+04  0.00000000000E+00 0. -1.
<mgrwt>
<rscale>  0 0.34558755E+04</rscale>
<asrwt>0</asrwt>
<pdfrwt beam="1">  1        2 0.33794014E+00 0.34558755E+04</pdfrwt>
<pdfrwt beam="2">  1       -2 0.20911717E+00 0.34558755E+04</pdfrwt>
<totfact> 0.49624972E-01</totfact>
</mgrwt>
</event>
<event>
 6    1  0.2047711E-005  0.2001751E+04  0.7818608E-02  0.8605802E-01
         -2   -1    0    0    0  501 -0.00000000000E+00  0.00000000000E+00  0.32268671700E+03  0.32268671700E+03  0.00000000000E+00 0.  1.
          2   -1    0    0  501    0  0.00000000000E+00 -0.00000000000E+00 -0.31044103962E+04  0.31044103962E+04  0.00000000000E+00 0. -1.
         23    2    1    2    0    0  0.16686451788E+03 -0.98424591724E+03 -0.13531862357E+04  0.16843111193E+04  0.95953974798E+02 0.  0.
         13    1    3    3    0    0  0.80388058692E+02 -0.22988928885E+03 -0.33622568109E+03  0.41516145502E+03  0.00000000000E+00 0. -1.
        -13    1    3    3    0    0  0.86476459185E+02 -0.75435662839E+03 -0.10169605546E+04  0.12691496643E+04  0.00000000000E+00 0.  1.
         22    1    1    2    0    0 -0.16686451788E+03  0.98424591724E+03 -0.14285374435E+04  0.17427859938E+04  0.00000000000E+00 0. -1.
<mgrwt>
<rscale>  0 0.20017512E+04</rscale>
<asrwt>0</asrwt>
<pdfrwt beam="1">  1        2 0.47760158E+00 0.20017512E+04</pdfrwt>
<pdfrwt beam="2">  1       -2 0.49644112E-01 0.20017512E+04</pdfrwt>
<totfact> 0.53486513E+00</totfact>
</mgrwt>
</event>
<event>
 6    1  0.2047711E-005  0.2640128E+04  0.7818608E-02  0.8354697E-01
          1   -1    0    0  501    0  0.00000000000E+00  0.00000000000E+00  0.21266614370E+04  0.21266614370E+04  0.00000000000E+00 0. -1.
         -1   -1    0    0    0  501 -0.00000000000E+00 -0.00000000000E+00 -0.81939183562E+03  0.81939183562E+03  0.00000000000E+00 0.  1.
         23    2    1    2    0    0  0.12803901379E+04 -0.14889976996E+03  0.34521173620E+03  0.13375989268E+04  0.91813395184E+02 0.  0.
         11    1    3    3    0    0  0.10692474109E+04 -0.11146676412E+03  0.32017427154E+03  0.11217069266E+04  0.00000000000E+00 0.  1.
        -11    1    3    3    0    0  0.21114272699E+03 -0.37433005843E+02  0.25037464653E+02  0.21589200014E+03  0.00000000000E+00 0. -1.
         22    1    1    2    0    0 -0.12803901379E+04  0.14889976996E+03  0.96205786516E+03  0.16084543458E+04  0.00000000000E+00 0.  1.
<mgrwt>
<rscale>  0 0.26401280E+04</rscale>
<asrwt>0</asrwt>
<pdfrwt beam="1">  1        1 0.32717868E+00 0.26401280E+04</pdfrwt>
<pdfrwt beam="2">  1       -1 0.12606028E+00 0.26401280E+04</pdfrwt>
<totfact> 0.11752209E+00</totfact>
</mgrwt>
</event>
<event>
 6    1  0.2047711E-005  0.3044799E+04  0.7818608E-02  0.8231053E-01
          2   -1    0    0  501    0  0.00000000000E+00  0.00000000000E+00  0.27694770509E+04  0.27694770509E+04  0.00000000000E+00 0.  1.
         -2   -1    0    0    0  501 -0.00000000000E+00 -0.00000000000E+00 -0.83687291544E+03  0.83687291544E+03  0.00000000000E+00 0. -1.
         23    2    1    2    0    0  0.40103429357E+03  0.32253421299E+03 -0.72830094768E+03  0.89613361249E+03  0.88183659931E+02 0.  0.
         11    1    3    3    0    0  0.73304930800E+02  0.10455194331E+03 -0.15699980793E+03  0.20237010999E+03  0.00000000000E+00 0.  1.
        -11    1    3    3    0    0  0.32772936277E+03  0.21798226967E+03 -0.57130113975E+03  0.69376350250E+03  0.00000000000E+00 0. -1.
         22    1    1    2    0    0 -0.40103429357E+03 -0.32253421299E+03  0.26609050831E+04  0.27102163538E+04  0.00000000000E+00 0.  1.
<mgrwt>
<rscale>  0 0.30447991E+04</rscale>
<asrwt>0</asrwt>
<pdfrwt beam="1">  1        2 0.42607339E+00 0.30447991E+04</pdfrwt>
<pdfrwt beam="2">  1       -2 0.12874968E+00 0.30447991E+04</pdfrwt>
<totfact> 0.91541733E-01</totfact>
</mgrwt>
</event>
<event>
 6    1  0.2047711E-005  0.8693257E+03  0.7818608E-02  0.9464760E-01
          2   -1    0    0  501    0  0.00000000000E+00  0.00000000000E+00  0.62829252605E+03  0.62829252605E+03  0.00000000000E+00 0. -1.
         -2   -1    0    0    0  501 -0.00000000000E+00 -0.00000000000E+00 -0.30070674072E+03  0.30070674072E+03  0.00000000000E+00 0.  1.
         23    2    1    2    0    0  0.16603910566E+03 -0.56887520754E+02  0.58490801368E+03  0.61751908468E+03  0.91691116552E+02 0.  0.
         11    1    3    3    0    0  0.86229807989E+02 -0.57100817096E+02  0.44097044244E+03  0.45293599349E+03  0.00000000000E+00 0. -1.
        -11    1    3    3    0    0  0.79809297672E+02  0.21329634143E+00  0.14393757124E+03  0.16458309119E+03  0.00000000000E+00 0.  1.
         22    1    1    2    0    0 -0.16603910566E+03  0.56887520754E+02 -0.25732222836E+03  0.31148018209E+03  0.00000000000E+00 0.  1.
<mgrwt>
<rscale>  0 0.86932571E+03</rscale>
<asrwt>0</asrwt>
<pdfrwt beam="1">  1        2 0.96660388E-01 0.86932571E+03</pdfrwt>
<pdfrwt beam="2">  1       -2 0.46262576E-01 0.86932571E+03</pdfrwt>
<totfact> 0.20859672E+02</totfact>
</mgrwt>
</event>
<event>
 6    1  0.2047711E-005  0.1776592E+04  0.7818608E-02  0.8718847E-01
         -2   -1    0    0    0  501 -0.00000000000E+00  0.00000000000E+00  0.41888358489E+03  0.41888358489E+03  0.00000000000E+00 0.  1.
          2   -1    0    0  501    0  0.00000000000E+00 -0.00000000000E+00 -0.18837454399E+04  0.18837454399E+04  0.00000000000E+00 0. -1.
         23    2    1    2    0    0 -0.66419759864E+03  0.58487336561E+03 -0.68556561924E+03  0.11234183028E+04  0.93984896959E+02 0.  0.
         11    1    3    3    0    0 -0.22618949528E+03  0.16162279291E+03 -0.25767145769E+03  0.37904906684E+03  0.00000000000E+00 0. -1.
        -11    1    3    3    0    0 -0.43800810336E+03  0.42325057269E+03 -0.42789416154E+03  0.74436923592E+03  0.00000000000E+00 0.  1.
         22    1    1    2    0    0  0.66419759864E+03 -0.58487336561E+03 -0.77929623577E+03  0.11792107220E+04  0.00000000000E+00 0.  1.
<mgrwt>
<rscale>  0 0.17765923E+04</rscale>
<asrwt>0</asrwt>
<pdfrwt beam="1">  1        2 0.28980699E+00 0.17765923E+04</pdfrwt>
<pdfrwt beam="2">  1       -2 0.64443629E-01 0.17765923E+04</pdfrwt>
<totfact> 0.16306311E+01</totfact>
</mgrwt>
</event>
<event>
 6    1  0.2047711E-005  0.2040550E+04  0.7818608E-02  0.8587893E-01
         -2   -1    0    0    0  501 -0.00000000000E+00  0.00000000000E+00  0.12189938344E+04  0.12189938344E+04  0.00000000000E+00 0. -1.
          2   -1    0    0  501    0  0.00000000000E+00 -0.00000000000E+00 -0.85395107471E+03  0.85395107471E+03  0.00000000000E+00 0.  1.
         23    2    1    2    0    0  0.48352980540E+03  0.83825647322E+03  0.50446212153E+03  0.10952370049E+04  0.92666483680E+02 0.  0.
         13    1    3    3    0    0  0.25670522236E+03  0.43519123717E+03  0.21141997495E+03  0.54771104600E+03  0.00000000000E+00 0.  1.
        -13    1    3    3    0    0  0.22682458304E+03  0.40306523605E+03  0.29304214657E+03  0.54752595888E+03  0.00000000000E+00 0. -1.
         22    1    1    2    0    0 -0.48352980540E+03 -0.83825647322E+03 -0.13941936181E+03  0.97770790427E+03  0.00000000000E+00 0.  1.
<mgrwt>
<rscale>  0 0.20405500E+04</rscale>
<asrwt>0</asrwt>
<pdfrwt beam="1">  1        2 0.13137709E+00 0.20405500E+04</pdfrwt>
<pdfrwt beam="2">  1       -2 0.18753751E+00 0.20405500E+04</pdfrwt>
<totfact> 0.47009925E+00</totfact>
</mgrwt>
</event>
<event>
 6    1  0.2047711E-005  0.2041602E+04  0.7818608E-02  0.8587414E-01
          2   -1    0    0  501    0  0.00000000000E+00  0.00000000000E+00  0.10886057060E+04  0.10886057060E+04  0.00000000000E+00 0. -1.
         -2   -1    0    0    0  501 -0.00000000000E+00 -0.00000000000E+00 -0.95721925459E+03  0.95721925459E+03  0.00000000000E+00 0.  1.
         23    2    1    2    0    0  0.99720831664E+03  0.85611164988E+02 -0.12559240989E+03  0.10124848261E+04  0.87168637813E+02 0.  0.
         11    1    3    3    0    0  0.60652021018E+03  0.90052620282E+02 -0.57205610034E+02  0.61583173156E+03  0.00000000000E+00 0. -1.
        -11    1    3    3    0    0  0.39068810646E+03 -0.44414552944E+01 -0.68386799859E+02  0.39665309459E+03  0.00000000000E+00 0.  1.
         22    1    1    2    0    0 -0.99720831664E+03 -0.85611164988E+02  0.25697886134E+03  0.10333401345E+04  0.00000000000E+00 0.  1.
<mgrwt>
<rscale>  0 0.20416017E+04</rscale>
<asrwt>0</asrwt>
<pdfrwt beam="1">  1        2 0.16747780E+00 0.20416017E+04</pdfrwt>
<pdfrwt beam="2">  1       -2 0.14726450E+00 0.20416017E+04</pdfrwt>
<totfact> 0.64497185E+00</totfact>
</mgrwt>
</event>
<event>
 6    1  0.2047711E-005  0.1705038E+04  0.7818608E-02  0.8758496E-01
          2   -1    0    0  501    0  0.00000000000E+00  0.00000000000E+00  0.67964070455E+03  0.67964070455E+03  0.00000000000E+00 0. -1.
         -2   -1    0    0    0  501 -0.00000000000E+00 -0.00000000000E+00 -0.10693713079E+04  0.10693713079E+04  0.00000000000E+00 0.  1.
         23    2    1    2    0    0  0.37160395197E+03 -0.76256283014E+03 -0.24971350398E+03  0.88924672173E+03  0.93868690306E+02 0.  0.
         11    1    3    3    0    0  0.11041622707E+03 -0.32008243535E+03 -0.12089694917E+03  0.35952827557E+03  0.00000000000E+00 0.  1.
        -11    1    3    3    0    0  0.26118772489E+03 -0.44248039479E+03 -0.12881655481E+03  0.52971844616E+03  0.00000000000E+00 0. -1.
         22    1    1    2    0    0 -0.37160395197E+03  0.76256283014E+03 -0.14001709939E+03  0.85976529073E+03  0.00000000000E+00 0.  1.
<mgrwt>
<rscale>  0 0.17050376E+04</rscale>
<asrwt>0</asrwt>
<pdfrwt beam="1">  1        2 0.10456011E+00 0.17050376E+04</pdfrwt>
<pdfrwt beam="2">  1       -2 0.16451866E+00 0.17050376E+04</pdfrwt>
<totfact> 0.94343959E+00</totfact>
</mgrwt>
</event>
<event>
 6    1  0.2047711E-005  0.3951463E+04  0.7818608E-02  0.8014410E-01
          2   -1    0    0  501    0  0.00000000000E+00  0.00000000000E+00  0.13787084978E+04  0.13787084978E+04  0.00000000000E+00 0.  1.
         -2   -1    0    0    0  501 -0.00000000000E+00 -0.00000000000E+00 -0.28312830821E+04  0.28312830821E+04  0.00000000000E+00 0. -1.
         23    2    1    2    0    0 -0.56693423869E+03  0.74372901442E+03 -0.25796926695E+04  0.27454293736E+04  0.89559468915E+02 0.  0.
         11    1    3    3    0    0 -0.28621915552E+02  0.76320575621E+02 -0.19997872546E+03  0.21595262200E+03  0.00000000000E+00 0. -1.
        -11    1    3    3    0    0 -0.53831232314E+03  0.66740843879E+03 -0.23797139440E+04  0.25294767516E+04  0.00000000000E+00 0.  1.
         22    1    1    2    0    0  0.56693423869E+03 -0.74372901442E+03  0.11271180852E+04  0.14645622062E+04  0.00000000000E+00 0.  1.
<mgrwt>
<rscale>  0 0.39514625E+04</rscale>
<asrwt>0</asrwt>
<pdfrwt beam="1">  1        2 0.21210900E+00 0.39514625E+04</pdfrwt>
<pdfrwt beam="2">  1       -2 0.43558201E+00 0.39514625E+04</pdfrwt>
<totfact> 0.50953092E-02</totfact>
</mgrwt>
</event>
<event>
 6    1  0.2047711E-005  0.2313874E+04  0.7818608E-02  0.8472471E-01
         -2   -1    0    0    0  501 -0.00000000000E+00  0.00000000000E+00  0.10926836252E+04  0.10926836252E+04  0.00000000000E+00 0.  1.
          2   -1    0    0  501    0  0.00000000000E+00 -0.00000000000E+00 -0.12249685136E+04  0.12249685136E+04  0.00000000000E+00 0. -1.
         23    2    1    2    0    0 -0.90898529400E+03 -0.35253461277E+03  0.55416379538E+03  0.11252819307E+04  0.92881610306E+02 0.  0.
         13    1    3    3    0    0 -0.78050024548E+03 -0.30439102203E+03  0.43714445708E+03  0.94494963032E+03  0.00000000000E+00 0.  1.
        -13    1    3    3    0    0 -0.12848504851E+03 -0.48143590741E+02  0.11701933830E+03  0.18033230037E+03  0.00000000000E+00 0. -1.
         22    1    1    2    0    0  0.90898529400E+03  0.35253461277E+03 -0.68644868372E+03  0.11923702081E+04  0.00000000000E+00 0. -1.
<mgrwt>
<rscale>  0 0.23138738E+04</rscale>
<asrwt>0</asrwt>
<pdfrwt beam="1">  1        2 0.18845669E+00 0.23138738E+04</pdfrwt>
<pdfrwt beam="2">  1       -2 0.16810517E+00 0.23138738E+04</pdfrwt>
<totfact> 0.36445720E+00</totfact>
</mgrwt>
</event>
<event>
 6    1  0.2047711E-005  0.2709217E+04  0.7818608E-02  0.8332021E-01
         -1   -1    0    0    0  501 -0.00000000000E+00  0.00000000000E+00  0.82992039252E+03  0.82992039252E+03  0.00000000000E+00 0.  1.
          1   -1    0    0  501    0  0.00000000000E+00 -0.00000000000E+00 -0.22110120647E+04  0.22110120647E+04  0.00000000000E+00 0. -1.
         23    2    1    2    0    0 -0.10238364895E+04  0.66354180859E+03 -0.13481237661E+04  0.18204342918E+04  0.89523366943E+02 0.  0.
         13    1    3    3    0    0 -0.39944100540E+03  0.21392960131E+03 -0.46844127052E+03  0.65173323917E+03  0.00000000000E+00 0. -1.
        -13    1    3    3    0    0 -0.62439548409E+03  0.44961220728E+03 -0.87968249555E+03  0.11687010527E+04  0.00000000000E+00 0.  1.
         22    1    1    2    0    0  0.10238364895E+04 -0.66354180859E+03 -0.32967906138E+02  0.12204981654E+04  0.00000000000E+00 0.  1.
<mgrwt>
<rscale>  0 0.27092169E+04</rscale>
<asrwt>0</asrwt>
<pdfrwt beam="1">  1        1 0.34015570E+00 0.27092169E+04</pdfrwt>
<pdfrwt beam="2">  1       -1 0.12768006E+00 0.27092169E+04</pdfrwt>
<totfact> 0.99112397E-01</totfact>
</mgrwt>
</event>
<event>
 6    1  0.2047711E-005  0.2879487E+04  0.7818608E-02  0.8279007E-01
          2   -1    0    0  501    0  0.00000000000E+00  0.00000000000E+00  0.20404925067E+04  0.20404925067E+04  0.00000000000E+00 0. -1.
         -2   -1    0    0    0  501 -0.00000000000E+00 -0.00000000000E+00 -0.10158632471E+04  0.10158632471E+04  0.00000000000E+00 0.  1.
         23    2    1    2    0    0 -0.76471579479E+03 -0.10611799119E+03 -0.77536516429E+03  0.10977768811E+04  0.88722419881E+02 0.  0.
         13    1    3    3    0    0 -0.15741747621E+03 -0.13032432819E+02 -0.21056703411E+03  0.26322724398E+03  0.00000000000E+00 0. -1.
        -13    1    3    3    0    0 -0.60729831858E+03 -0.93085558376E+02 -0.56479813018E+03  0.83454963710E+03  0.00000000000E+00 0.  1.
         22    1    1    2    0    0  0.76471579479E+03  0.10611799119E+03  0.17999944239E+04  0.19585788728E+04  0.00000000000E+00 0. -1.
<mgrwt>
<rscale>  0 0.28794870E+04</rscale>
<asrwt>0</asrwt>
<pdfrwt beam="1">  1        2 0.31392192E+00 0.28794870E+04</pdfrwt>
<pdfrwt beam="2">  1       -2 0.15628665E+00 0.28794870E+04</pdfrwt>
<totfact> 0.14722855E+00</totfact>
</mgrwt>
</event>
<event>
 6    1  0.2047711E-005  0.2767218E+04  0.7818608E-02  0.8313519E-01
         -2   -1    0    0    0  501 -0.00000000000E+00  0.00000000000E+00  0.54876147597E+03  0.54876147597E+03  0.00000000000E+00 0.  1.
          2   -1    0    0  501    0  0.00000000000E+00 -0.00000000000E+00 -0.34885366387E+04  0.34885366387E+04  0.00000000000E+00 0. -1.
         23    2    1    2    0    0  0.83671962066E+03  0.13278128424E+03 -0.30647128607E+04  0.31809453711E+04  0.90652867169E+02 0.  0.
         13    1    3    3    0    0  0.23338243826E+03  0.57602158914E+01 -0.94247524126E+03  0.97095835284E+03  0.00000000000E+00 0. -1.
        -13    1    3    3    0    0  0.60333718240E+03  0.12702106835E+03 -0.21222376195E+04  0.22099870183E+04  0.00000000000E+00 0.  1.
         22    1    1    2    0    0 -0.83671962066E+03 -0.13278128424E+03  0.12493769798E+03  0.85635274357E+03  0.00000000000E+00 0.  1.
<mgrwt>
<rscale>  0 0.27672185E+04</rscale>
<asrwt>0</asrwt>
<pdfrwt beam="1">  1        2 0.53669795E+00 0.27672185E+04</pdfrwt>
<pdfrwt beam="2">  1       -2 0.84424842E-01 0.27672185E+04</pdfrwt>
<totfact> 0.88410563E-01</totfact>
</mgrwt>
</event>
<event>
 6    1  0.2047711E-005  0.2068329E+04  0.7818608E-02  0.8575325E-01
         -2   -1    0    0    0  501 -0.00000000000E+00  0.00000000000E+00  0.13164278776E+04  0.13164278776E+04  0.00000000000E+00 0.  1.
          2   -1    0    0  501    0  0.00000000000E+00 -0.00000000000E+00 -0.81242262524E+03  0.81242262524E+03  0.00000000000E+00 0. -1.
         23    2    1    2    0    0  0.84082443758E+03  0.54860099944E+03  0.49908932265E+03  0.11248719385E+04  0.91092999597E+02 0.  0.
         13    1    3    3    0    0  0.36543226452E+03  0.28958902057E+03  0.21414811052E+03  0.51309059046E+03  0.00000000000E+00 0.  1.
        -13    1    3    3    0    0  0.47539217306E+03  0.25901197887E+03  0.28494121213E+03  0.61178134802E+03  0.00000000000E+00 0. -1.
         22    1    1    2    0    0 -0.84082443758E+03 -0.54860099944E+03  0.49159297415E+01  0.10039785644E+04  0.00000000000E+00 0. -1.
<mgrwt>
<rscale>  0 0.20683286E+04</rscale>
<asrwt>0</asrwt>
<pdfrwt beam="1">  1        2 0.12498810E+00 0.20683286E+04</pdfrwt>
<pdfrwt beam="2">  1       -2 0.20252736E+00 0.20683286E+04</pdfrwt>
<totfact> 0.39894155E+00</totfact>
</mgrwt>
</event>
<event>
 6    1  0.2047711E-005  0.6291493E+03  0.7818608E-02  0.9846710E-01
         -1   -1    0    0    0  501 -0.00000000000E+00  0.00000000000E+00  0.12983291684E+03  0.12983291684E+03  0.00000000000E+00 0.  1.
          1   -1    0    0  501    0  0.00000000000E+00 -0.00000000000E+00 -0.76218889935E+03  0.76218889935E+03  0.00000000000E+00 0. -1.
         23    2    1    2    0    0 -0.11306047313E+03  0.23835998521E+03 -0.55215905862E+03  0.61628698028E+03  0.73019606430E+02 0.  0.
         11    1    3    3    0    0  0.38370798282E+01  0.33682052078E+02 -0.39599471200E+02  0.52127938124E+02  0.00000000000E+00 0.  1.
        -11    1    3    3    0    0 -0.11689755296E+03  0.20467793313E+03 -0.51255958742E+03  0.56415904216E+03  0.00000000000E+00 0. -1.
         22    1    1    2    0    0  0.11306047313E+03 -0.23835998521E+03 -0.80196923890E+02  0.27573483591E+03  0.00000000000E+00 0.  1.
<mgrwt>
<rscale>  0 0.62914929E+03</rscale>
<asrwt>0</asrwt>
<pdfrwt beam="1">  1        1 0.11725983E+00 0.62914929E+03</pdfrwt>
<pdfrwt beam="2">  1       -1 0.19974295E-01 0.62914929E+03</pdfrwt>
<totfact> 0.49482809E+02</totfact>
</mgrwt>
</event>
<event>
 6    1  0.2047711E-005  0.2032115E+04  0.7818608E-02  0.8591751E-01
          2   -1    0    0  501    0  0.00000000000E+00  0.00000000000E+00  0.21329296280E+04  0.21329296280E+04  0.00000000000E+00 0. -1.
         -2   -1    0    0    0  501 -0.00000000000E+00 -0.00000000000E+00 -0.48401620990E+03  0.48401620990E+03  0.00000000000E+00 0.  1.
         23    2    1    2    0    0  0.47070250079E+03  0.90549786076E+02  0.19769021301E+04  0.20361388964E+04  0.89215837708E+02 0.  0.
         11    1    3    3    0    0  0.38712494894E+03  0.39793705805E+02  0.15373512519E+04  0.15858430366E+04  0.00000000000E+00 0.  1.
        -11    1    3    3    0    0  0.83577551850E+02  0.50756080271E+02  0.43955087817E+03  0.45029585980E+03  0.00000000000E+00 0. -1.
         22    1    1    2    0    0 -0.47070250079E+03 -0.90549786076E+02 -0.32798871201E+03  0.58080694143E+03  0.00000000000E+00 0.  1.
<mgrwt>
<rscale>  0 0.20321147E+04</rscale>
<asrwt>0</asrwt>
<pdfrwt beam="1">  1        2 0.32814301E+00 0.20321147E+04</pdfrwt>
<pdfrwt beam="2">  1       -2 0.74464034E-01 0.20321147E+04</pdfrwt>
<totfact> 0.84662935E+00</totfact>
</mgrwt>
</event>
<event>
 6    1  0.2047711E-005  0.1997594E+04  0.7818608E-02  0.8607746E-01
          2   -1    0    0  501    0  0.00000000000E+00  0.00000000000E+00  0.26460874475E+04  0.26460874475E+04  0.00000000000E+00 0. -1.
         -2   -1    0    0    0  501 -0.00000000000E+00 -0.00000000000E+00 -0.37700763874E+03  0.37700763874E+03  0.00000000000E+00 0.  1.
         23    2    1    2    0    0  0.79918977845E+03 -0.48147048132E+03  0.60674823705E+03  0.11168253308E+04  0.92936913538E+02 0.  0.
         13    1    3    3    0    0  0.40886197395E+03 -0.24165685308E+03  0.36392718389E+03  0.59833865290E+03  0.00000000000E+00 0.  1.
        -13    1    3    3    0    0  0.39032780450E+03 -0.23981362824E+03  0.24282105316E+03  0.51848667786E+03  0.00000000000E+00 0. -1.
         22    1    1    2    0    0 -0.79918977845E+03  0.48147048132E+03  0.16623315717E+04  0.19062697554E+04  0.00000000000E+00 0. -1.
<mgrwt>
<rscale>  0 0.19975937E+04</rscale>
<asrwt>0</asrwt>
<pdfrwt beam="1">  1        2 0.40709036E+00 0.19975937E+04</pdfrwt>
<pdfrwt beam="2">  1       -2 0.58001177E-01 0.19975937E+04</pdfrwt>
<totfact> 0.73968841E+00</totfact>
</mgrwt>
</event>
<event>
 6    1  0.2047711E-005  0.2037304E+04  0.7818608E-02  0.8589376E-01
          2   -1    0    0  501    0  0.00000000000E+00  0.00000000000E+00  0.93659314651E+03  0.93659314651E+03  0.00000000000E+00 0. -1.
         -2   -1    0    0    0  501 -0.00000000000E+00 -0.00000000000E+00 -0.11079000629E+04  0.11079000629E+04  0.00000000000E+00 0.  1.
         23    2    1    2    0    0  0.55873508957E+03 -0.52146415969E+03  0.58679801629E+03  0.96800221591E+03  0.92663951602E+02 0.  0.
         13    1    3    3    0    0  0.34901425139E+03 -0.35724579199E+03  0.33439963937E+03  0.60104793684E+03  0.00000000000E+00 0.  1.
        -13    1    3    3    0    0  0.20972083818E+03 -0.16421836770E+03  0.25239837691E+03  0.36695427907E+03  0.00000000000E+00 0. -1.
         22    1    1    2    0    0 -0.55873508957E+03  0.52146415969E+03 -0.75810493271E+03  0.10764909935E+04  0.00000000000E+00 0.  1.
<mgrwt>
<rscale>  0 0.20373037E+04</rscale>
<asrwt>0</asrwt>
<pdfrwt beam="1">  1        2 0.14409125E+00 0.20373037E+04</pdfrwt>
<pdfrwt beam="2">  1       -2 0.17044616E+00 0.20373037E+04</pdfrwt>
<totfact> 0.54291293E+00</totfact>
</mgrwt>
</event>
<event>
 6    1  0.2047711E-005  0.3698920E+04  0.7818608E-02  0.8068201E-01
         -2   -1    0    0    0  501 -0.00000000000E+00  0.00000000000E+00  0.13235811891E+04  0.13235811891E+04  0.00000000000E+00 0.  1.
          2   -1    0    0  501    0  0.00000000000E+00 -0.00000000000E+00 -0.25842777176E+04  0.25842777176E+04  0.00000000000E+00 0. -1.
         23    2    1    2    0    0  0.16012866005E+03  0.12407695042E+04 -0.20683583225E+04  0.24187424828E+04  0.84017244273E+02 0.  0.
         13    1    3    3    0    0  0.10924882483E+03  0.96445212966E+03 -0.15408778312E+04  0.18211006855E+04  0.00000000000E+00 0.  1.
        -13    1    3    3    0    0  0.50879835212E+02  0.27631737459E+03 -0.52748049132E+03  0.59764179728E+03  0.00000000000E+00 0. -1.
         22    1    1    2    0    0 -0.16012866005E+03 -0.12407695042E+04  0.80766179405E+03  0.14891164239E+04  0.00000000000E+00 0.  1.
<mgrwt>
<rscale>  0 0.36989195E+04</rscale>
<asrwt>0</asrwt>
<pdfrwt beam="1">  1        2 0.39758119E+00 0.36989195E+04</pdfrwt>
<pdfrwt beam="2">  1       -2 0.20362787E+00 0.36989195E+04</pdfrwt>
<totfact> 0.31643132E-01</totfact>
</mgrwt>
</event>
<event>
 6    1  0.2047711E-005  0.2072470E+04  0.7818608E-02  0.8573468E-01
          2   -1    0    0  501    0  0.00000000000E+00  0.00000000000E+00  0.22185810912E+04  0.22185810912E+04  0.00000000000E+00 0. -1.
         -2   -1    0    0    0  501 -0.00000000000E+00 -0.00000000000E+00 -0.48399549329E+03  0.48399549329E+03  0.00000000000E+00 0.  1.
         23    2    1    2    0    0 -0.16593638121E+03  0.10033102540E+04  0.11143570132E+04  0.15114217475E+04  0.91857484957E+02 0.  0.
         11    1    3    3    0    0 -0.10538964939E+03  0.71780534305E+03  0.73456091264E+03  0.10324394525E+04  0.00000000000E+00 0.  1.
        -11    1    3    3    0    0 -0.60546731818E+02  0.28550491094E+03  0.37979610060E+03  0.47898229501E+03  0.00000000000E+00 0. -1.
         22    1    1    2    0    0  0.16593638121E+03 -0.10033102540E+04  0.62022858463E+03  0.11911548369E+04  0.00000000000E+00 0.  1.
<mgrwt>
<rscale>  0 0.20724703E+04</rscale>
<asrwt>0</asrwt>
<pdfrwt beam="1">  1        2 0.34132016E+00 0.20724703E+04</pdfrwt>
<pdfrwt beam="2">  1       -2 0.74460846E-01 0.20724703E+04</pdfrwt>
<totfact> 0.75541664E+00</totfact>
</mgrwt>
</event>
<event>
 6    1  0.2047711E-005  0.1255333E+04  0.7818608E-02  0.9065756E-01
         -2   -1    0    0    0  501 -0.00000000000E+00  0.00000000000E+00  0.26085186022E+03  0.26085186022E+03  0.00000000000E+00 0.  1.
          2   -1    0    0  501    0  0.00000000000E+00 -0.00000000000E+00 -0.15103028845E+04  0.15103028845E+04  0.00000000000E+00 0. -1.
         23    2    1    2    0    0  0.12886463698E+03 -0.49534055446E+03 -0.12331301421E+03  0.53416033191E+03  0.90292863305E+02 0.  0.
         11    1    3    3    0    0  0.11994943459E+03 -0.29179633849E+03 -0.86384621001E+02  0.32710131880E+03  0.00000000000E+00 0. -1.
        -11    1    3    3    0    0  0.89152023891E+01 -0.20354421597E+03 -0.36928393204E+02  0.20705901311E+03  0.00000000000E+00 0.  1.
         22    1    1    2    0    0 -0.12886463698E+03  0.49534055446E+03 -0.11261380101E+04  0.12369944128E+04  0.00000000000E+00 0.  1.
<mgrwt>
<rscale>  0 0.12553331E+04</rscale>
<asrwt>0</asrwt>
<pdfrwt beam="1">  1        2 0.23235429E+00 0.12553331E+04</pdfrwt>
<pdfrwt beam="2">  1       -2 0.40131056E-01 0.12553331E+04</pdfrwt>
<totfact> 0.72328170E+01</totfact>
</mgrwt>
</event>
<event>
 6    1  0.2047711E-005  0.3529731E+04  0.7818608E-02  0.8106780E-01
         -2   -1    0    0    0  501 -0.00000000000E+00  0.00000000000E+00  0.15035820790E+04  0.15035820790E+04  0.00000000000E+00 0.  1.
          2   -1    0    0  501    0  0.00000000000E+00 -0.00000000000E+00 -0.20715530997E+04  0.20715530997E+04  0.00000000000E+00 0. -1.
         23    2    1    2    0    0  0.43499513234E+03 -0.84135694758E+03  0.12226780882E+04  0.15494188832E+04  0.93031660082E+02 0.  0.
         11    1    3    3    0    0  0.19057686046E+03 -0.39956877267E+03  0.49962169420E+03  0.66753020992E+03  0.00000000000E+00 0. -1.
        -11    1    3    3    0    0  0.24441827188E+03 -0.44178817491E+03  0.72305639401E+03  0.88188867326E+03  0.00000000000E+00 0.  1.
         22    1    1    2    0    0 -0.43499513234E+03  0.84135694758E+03 -0.17906491089E+04  0.20257162954E+04  0.00000000000E+00 0. -1.
<mgrwt>
<rscale>  0 0.35297309E+04</rscale>
<asrwt>0</asrwt>
<pdfrwt beam="1">  1        2 0.31870048E+00 0.35297309E+04</pdfrwt>
<pdfrwt beam="2">  1       -2 0.23132032E+00 0.35297309E+04</pdfrwt>
<totfact> 0.41913867E-01</totfact>
</mgrwt>
</event>
<event>
 6    1  0.2047711E-005  0.2478640E+04  0.7818608E-02  0.8410635E-01
         -2   -1    0    0    0  501 -0.00000000000E+00  0.00000000000E+00  0.11506965513E+04  0.11506965513E+04  0.00000000000E+00 0. -1.
          2   -1    0    0  501    0  0.00000000000E+00 -0.00000000000E+00 -0.13347687227E+04  0.13347687227E+04  0.00000000000E+00 0.  1.
         23    2    1    2    0    0 -0.42617760688E+03  0.10503984220E+04  0.40605020111E+03  0.12074947689E+04  0.90568501783E+02 0.  0.
         13    1    3    3    0    0 -0.17393537234E+03  0.32464451083E+03  0.11434889343E+03  0.38564652415E+03  0.00000000000E+00 0.  1.
        -13    1    3    3    0    0 -0.25224223453E+03  0.72575391115E+03  0.29170130768E+03  0.82184824471E+03  0.00000000000E+00 0. -1.
         22    1    1    2    0    0  0.42617760688E+03 -0.10503984220E+04 -0.59012237247E+03  0.12779705051E+04  0.00000000000E+00 0.  1.
<mgrwt>
<rscale>  0 0.24786398E+04</rscale>
<asrwt>0</asrwt>
<pdfrwt beam="1">  1        2 0.20534903E+00 0.24786398E+04</pdfrwt>
<pdfrwt beam="2">  1       -2 0.17703024E+00 0.24786398E+04</pdfrwt>
<totfact> 0.26809325E+00</totfact>
</mgrwt>
</event>
<event>
 6    1  0.2047711E-005  0.3824802E+04  0.7818608E-02  0.8040853E-01
         -2   -1    0    0    0  501 -0.00000000000E+00  0.00000000000E+00  0.18063837690E+04  0.18063837690E+04  0.00000000000E+00 0. -1.
          2   -1    0    0  501    0  0.00000000000E+00 -0.00000000000E+00 -0.20246399594E+04  0.20246399594E+04  0.00000000000E+00 0.  1.
         23    2    1    2    0    0  0.71821536741E+03  0.88728527881E+03  0.14262430546E+04  0.18291530416E+04  0.92320738882E+02 0.  0.
         11    1    3    3    0    0  0.77570699128E+02  0.12791790263E+03  0.22653082136E+03  0.27147083859E+03  0.00000000000E+00 0.  1.
        -11    1    3    3    0    0  0.64064466828E+03  0.75936737618E+03  0.11997122332E+04  0.15576822030E+04  0.00000000000E+00 0. -1.
         22    1    1    2    0    0 -0.71821536741E+03 -0.88728527881E+03 -0.16444992449E+04  0.20018706868E+04  0.00000000000E+00 0.  1.
<mgrwt>
<rscale>  0 0.38248016E+04</rscale>
<asrwt>0</asrwt>
<pdfrwt beam="1">  1        2 0.31148307E+00 0.38248016E+04</pdfrwt>
<pdfrwt beam="2">  1       -2 0.27790520E+00 0.38248016E+04</pdfrwt>
<totfact> 0.22466794E-01</totfact>
</mgrwt>
</event>
<event>
 6    1  0.2714333E-005  0.3268429E+04  0.7818608E-02  0.8170975E-01
          2   -1    0    0  501    0  0.00000000000E+00  0.00000000000E+00  0.15063588805E+04  0.15063588805E+04  0.00000000000E+00 0. -1.
         -2   -1    0    0    0  501 -0.00000000000E+00 -0.00000000000E+00 -0.17729222850E+04  0.17729222850E+04  0.00000000000E+00 0.  1.
         23    2    1    2    0    0  0.17095526649E+03  0.45113674446E+03  0.14317942951E+04  0.15137305598E+04  0.92710511732E+02 0.  0.
         11    1    3    3    0    0  0.13872188176E+03  0.28960699633E+03  0.10477477568E+04  0.10958518763E+04  0.00000000000E+00 0.  1.
        -11    1    3    3    0    0  0.32233384723E+02  0.16152974813E+03  0.38404653829E+03  0.41787868358E+03  0.00000000000E+00 0. -1.
         22    1    1    2    0    0 -0.17095526649E+03 -0.45113674446E+03 -0.16983576996E+04  0.17655506057E+04  0.00000000000E+00 0.  1.
<mgrwt>
<rscale>  0 0.32684291E+04</rscale>
<asrwt>0</asrwt>
<pdfrwt beam="1">  1        2 0.23174752E+00 0.32684291E+04</pdfrwt>
<pdfrwt beam="2">  1       -2 0.27275727E+00 0.32684291E+04</pdfrwt>
<totfact> 0.49148147E-01</totfact>
</mgrwt>
</event>
<event>
 6    1  0.2047711E-005  0.5045005E+04  0.7818608E-02  0.7821602E-01
         -2   -1    0    0    0  501 -0.00000000000E+00  0.00000000000E+00  0.34275661429E+04  0.34275661429E+04  0.00000000000E+00 0.  1.
          2   -1    0    0  501    0  0.00000000000E+00 -0.00000000000E+00 -0.18564245988E+04  0.18564245988E+04  0.00000000000E+00 0. -1.
         23    2    1    2    0    0  0.69410938677E+03  0.82498254408E+03 -0.16016262678E+04  0.19330446624E+04  0.95241410894E+02 0.  0.
         13    1    3    3    0    0  0.56242626581E+03  0.60829229045E+03 -0.12457988124E+04  0.14961141320E+04  0.00000000000E+00 0. -1.
        -13    1    3    3    0    0  0.13168312097E+03  0.21669025363E+03 -0.35582745538E+03  0.43693053037E+03  0.00000000000E+00 0.  1.
         22    1    1    2    0    0 -0.69410938677E+03 -0.82498254408E+03  0.31727678118E+04  0.33509460793E+04  0.00000000000E+00 0.  1.
<mgrwt>
<rscale>  0 0.50450047E+04</rscale>
<asrwt>0</asrwt>
<pdfrwt beam="1">  1        2 0.28560378E+00 0.50450047E+04</pdfrwt>
<pdfrwt beam="2">  1       -2 0.52731787E+00 0.50450047E+04</pdfrwt>
<totfact> 0.66626256E-03</totfact>
</mgrwt>
</event>
<event>
 6    1  0.2047711E-005  0.7016094E+03  0.7818608E-02  0.9714484E-01
         -2   -1    0    0    0  501 -0.00000000000E+00  0.00000000000E+00  0.12570163047E+03  0.12570163047E+03  0.00000000000E+00 0. -1.
          2   -1    0    0  501    0  0.00000000000E+00 -0.00000000000E+00 -0.97901623724E+03  0.97901623724E+03  0.00000000000E+00 0.  1.
         23    2    1    2    0    0 -0.32082734466E+03 -0.12396193424E+03 -0.39088374104E+03  0.52840280475E+03  0.90125905444E+02 0.  0.
         11    1    3    3    0    0 -0.13282817300E+03 -0.13192161691E+02 -0.18712238134E+03  0.22985243586E+03  0.00000000000E+00 0.  1.
        -11    1    3    3    0    0 -0.18799917166E+03 -0.11076977255E+03 -0.20376135970E+03  0.29855036889E+03  0.00000000000E+00 0. -1.
         22    1    1    2    0    0  0.32082734466E+03  0.12396193424E+03 -0.46243086573E+03  0.57631506296E+03  0.00000000000E+00 0. -1.
<mgrwt>
<rscale>  0 0.70160940E+03</rscale>
<asrwt>0</asrwt>
<pdfrwt beam="1">  1        2 0.15061788E+00 0.70160940E+03</pdfrwt>
<pdfrwt beam="2">  1       -2 0.19338713E-01 0.70160940E+03</pdfrwt>
<totfact> 0.59222853E+02</totfact>
</mgrwt>
</event>
<event>
 6    1  0.2047711E-005  0.9908889E+03  0.7818608E-02  0.9318595E-01
         -1   -1    0    0    0  501 -0.00000000000E+00  0.00000000000E+00  0.93614923008E+02  0.93614923008E+02  0.00000000000E+00 0.  1.
          1   -1    0    0  501    0  0.00000000000E+00 -0.00000000000E+00 -0.26220733317E+04  0.26220733317E+04  0.00000000000E+00 0. -1.
         23    2    1    2    0    0  0.73631557580E+02  0.37810746429E+03 -0.21099932095E+04  0.21469176650E+04  0.93793684246E+02 0.  0.
         13    1    3    3    0    0  0.56540432043E+02  0.23384458077E+03 -0.10623903672E+04  0.10892903197E+04  0.00000000000E+00 0.  1.
        -13    1    3    3    0    0  0.17091125536E+02  0.14426288352E+03 -0.10476028424E+04  0.10576273453E+04  0.00000000000E+00 0. -1.
         22    1    1    2    0    0 -0.73631557580E+02 -0.37810746429E+03 -0.41846519921E+03  0.56877058976E+03  0.00000000000E+00 0.  1.
<mgrwt>
<rscale>  0 0.99088888E+03</rscale>
<asrwt>0</asrwt>
<pdfrwt beam="1">  1        1 0.40339588E+00 0.99088888E+03</pdfrwt>
<pdfrwt beam="2">  1       -1 0.14402296E-01 0.99088888E+03</pdfrwt>
<totfact> 0.39877931E+01</totfact>
</mgrwt>
</event>
<event>
 6    1  0.2047711E-005  0.2068051E+04  0.7818608E-02  0.8575449E-01
         -2   -1    0    0    0  501 -0.00000000000E+00  0.00000000000E+00  0.64981331876E+03  0.64981331876E+03  0.00000000000E+00 0.  1.
          2   -1    0    0  501    0  0.00000000000E+00 -0.00000000000E+00 -0.16454095436E+04  0.16454095436E+04  0.00000000000E+00 0. -1.
         23    2    1    2    0    0  0.39529741382E+02  0.38371335355E+03 -0.15608572508E+04  0.16108848132E+04  0.99377995491E+02 0.  0.
         11    1    3    3    0    0  0.31497674891E+02  0.10921308574E+03 -0.63756444580E+03  0.64761718953E+03  0.00000000000E+00 0.  1.
        -11    1    3    3    0    0  0.80320664919E+01  0.27450026781E+03 -0.92329280495E+03  0.96326762367E+03  0.00000000000E+00 0. -1.
         22    1    1    2    0    0 -0.39529741382E+02 -0.38371335355E+03  0.56526102590E+03  0.68433804918E+03  0.00000000000E+00 0.  1.
<mgrwt>
<rscale>  0 0.20680513E+04</rscale>
<asrwt>0</asrwt>
<pdfrwt beam="1">  1        2 0.25313993E+00 0.20680513E+04</pdfrwt>
<pdfrwt beam="2">  1       -2 0.99971280E-01 0.20680513E+04</pdfrwt>
<totfact> 0.80338372E+00</totfact>
</mgrwt>
</event>
<event>
 6    1  0.2047711E-005  0.2615559E+04  0.7818608E-02  0.8362935E-01
         -2   -1    0    0    0  501 -0.00000000000E+00  0.00000000000E+00  0.93121307652E+03  0.93121307652E+03  0.00000000000E+00 0.  1.
          2   -1    0    0  501    0  0.00000000000E+00 -0.00000000000E+00 -0.18366230176E+04  0.18366230176E+04  0.00000000000E+00 0. -1.
         23    2    1    2    0    0 -0.82804251515E+03  0.85201623497E+03  0.12072114950E+03  0.11979535869E+04  0.94515230553E+02 0.  0.
         11    1    3    3    0    0 -0.48913599734E+03  0.52413244593E+03  0.11688186949E+03  0.72638159130E+03  0.00000000000E+00 0. -1.
        -11    1    3    3    0    0 -0.33890651781E+03  0.32788378904E+03  0.38392800095E+01  0.47157199557E+03  0.00000000000E+00 0.  1.
         22    1    1    2    0    0  0.82804251515E+03 -0.85201623497E+03 -0.10261310906E+04  0.15698825073E+04  0.00000000000E+00 0. -1.
<mgrwt>
<rscale>  0 0.26155591E+04</rscale>
<asrwt>0</asrwt>
<pdfrwt beam="1">  1        2 0.28255738E+00 0.26155591E+04</pdfrwt>
<pdfrwt beam="2">  1       -2 0.14326355E+00 0.26155591E+04</pdfrwt>
<totfact> 0.24604397E+00</totfact>
</mgrwt>
</event>
<event>
 6    1  0.2047711E-005  0.8853237E+03  0.7818608E-02  0.9444116E-01
         -2   -1    0    0    0  501 -0.00000000000E+00  0.00000000000E+00  0.94891501706E+02  0.94891501706E+02  0.00000000000E+00 0.  1.
          2   -1    0    0  501    0  0.00000000000E+00 -0.00000000000E+00 -0.20649847141E+04  0.20649847141E+04  0.00000000000E+00 0. -1.
         23    2    1    2    0    0  0.79629262691E+02  0.19385848920E+02 -0.20451223600E+04  0.20487636440E+04  0.90500669027E+02 0.  0.
         11    1    3    3    0    0  0.91256606427E+00 -0.29331777924E+02 -0.44682298701E+03  0.44778562694E+03  0.00000000000E+00 0. -1.
        -11    1    3    3    0    0  0.78716696627E+02  0.48717626844E+02 -0.15982993730E+04  0.16009780171E+04  0.00000000000E+00 0.  1.
         22    1    1    2    0    0 -0.79629262691E+02 -0.19385848920E+02  0.75029147612E+02  0.11111257177E+03  0.00000000000E+00 0.  1.
<mgrwt>
<rscale>  0 0.88532367E+03</rscale>
<asrwt>0</asrwt>
<pdfrwt beam="1">  1        2 0.31768995E+00 0.88532367E+03</pdfrwt>
<pdfrwt beam="2">  1       -2 0.14598693E-01 0.88532367E+03</pdfrwt>
<totfact> 0.22866140E+02</totfact>
</mgrwt>
</event>
<event>
 6    1  0.2047711E-005  0.3410480E+04  0.7818608E-02  0.8135339E-01
         -1   -1    0    0    0  501 -0.00000000000E+00  0.00000000000E+00  0.33511707263E+04  0.33511707263E+04  0.00000000000E+00 0.  1.
          1   -1    0    0  501    0  0.00000000000E+00 -0.00000000000E+00 -0.86770984229E+03  0.86770984229E+03  0.00000000000E+00 0. -1.
         23    2    1    2    0    0 -0.16061574222E+04 -0.68251998197E+02  0.54336162583E+03  0.16992803758E+04  0.88949080294E+02 0.  0.
         11    1    3    3    0    0 -0.67608842678E+03  0.14923129008E+02  0.23351382337E+03  0.71543480926E+03  0.00000000000E+00 0. -1.
        -11    1    3    3    0    0 -0.93006899542E+03 -0.83175127205E+02  0.30984780246E+03  0.98384556650E+03  0.00000000000E+00 0.  1.
         22    1    1    2    0    0  0.16061574222E+04  0.68251998197E+02  0.19400992582E+04  0.25196001928E+04  0.00000000000E+00 0.  1.
<mgrwt>
<rscale>  0 0.34104802E+04</rscale>
<asrwt>0</asrwt>
<pdfrwt beam="1">  1        1 0.13349382E+00 0.34104802E+04</pdfrwt>
<pdfrwt beam="2">  1       -1 0.51556472E+00 0.34104802E+04</pdfrwt>
<totfact> 0.18858755E-02</totfact>
</mgrwt>
</event>
<event>
 6    1  0.2047711E-005  0.3964873E+04  0.7818608E-02  0.8011671E-01
         -2   -1    0    0    0  501 -0.00000000000E+00  0.00000000000E+00  0.23913446758E+04  0.23913446758E+04  0.00000000000E+00 0.  1.
          2   -1    0    0  501    0  0.00000000000E+00 -0.00000000000E+00 -0.16434494354E+04  0.16434494354E+04  0.00000000000E+00 0. -1.
         23    2    1    2    0    0 -0.14902341196E+04 -0.27798031736E+03  0.16725191591E+04  0.22591251727E+04  0.90859345366E+02 0.  0.
         13    1    3    3    0    0 -0.56851247351E+03 -0.88981783826E+02  0.57466181160E+03  0.81324067047E+03  0.00000000000E+00 0. -1.
        -13    1    3    3    0    0 -0.92172164606E+03 -0.18899853354E+03  0.10978573475E+04  0.14458845023E+04  0.00000000000E+00 0.  1.
         22    1    1    2    0    0  0.14902341196E+04  0.27798031736E+03 -0.92462391864E+03  0.17756689384E+04  0.00000000000E+00 0. -1.
<mgrwt>
<rscale>  0 0.39648728E+04</rscale>
<asrwt>0</asrwt>
<pdfrwt beam="1">  1        2 0.25283837E+00 0.39648728E+04</pdfrwt>
<pdfrwt beam="2">  1       -2 0.36789918E+00 0.39648728E+04</pdfrwt>
<totfact> 0.99862826E-02</totfact>
</mgrwt>
</event>
<event>
 6    1  0.2047711E-005  0.7115581E+03  0.7818608E-02  0.9697668E-01
          2   -1    0    0  501    0  0.00000000000E+00  0.00000000000E+00  0.40897587188E+03  0.40897587188E+03  0.00000000000E+00 0. -1.
         -2   -1    0    0    0  501 -0.00000000000E+00 -0.00000000000E+00 -0.30950172654E+03  0.30950172654E+03  0.00000000000E+00 0.  1.
         23    2    1    2    0    0  0.13630899319E+03  0.25022392686E+03 -0.15464867060E+03  0.33667848792E+03  0.90796683393E+02 0.  0.
         13    1    3    3    0    0  0.27572088431E+01  0.71471949374E+02 -0.13900286509E+02  0.72863294689E+02  0.00000000000E+00 0. -1.
        -13    1    3    3    0    0  0.13355178435E+03  0.17875197748E+03 -0.14074838409E+03  0.26381519323E+03  0.00000000000E+00 0.  1.
         22    1    1    2    0    0 -0.13630899319E+03 -0.25022392686E+03  0.25412281594E+03  0.38179911050E+03  0.00000000000E+00 0. -1.
<mgrwt>
<rscale>  0 0.71155812E+03</rscale>
<asrwt>0</asrwt>
<pdfrwt beam="1">  1        2 0.62919365E-01 0.71155812E+03</pdfrwt>
<pdfrwt beam="2">  1       -2 0.47615650E-01 0.71155812E+03</pdfrwt>
<totfact> 0.32698350E+02</totfact>
</mgrwt>
</event>
<event>
 6    1  0.2047711E-005  0.2277264E+04  0.7818608E-02  0.8486940E-01
          1   -1    0    0  501    0  0.00000000000E+00  0.00000000000E+00  0.12629674126E+04  0.12629674126E+04  0.00000000000E+00 0. -1.
         -1   -1    0    0    0  501 -0.00000000000E+00 -0.00000000000E+00 -0.10265372976E+04  0.10265372976E+04  0.00000000000E+00 0.  1.
         23    2    1    2    0    0 -0.26869003669E+03 -0.11025661513E+04  0.52612202655E+02  0.11398806505E+04  0.93345592316E+02 0.  0.
         11    1    3    3    0    0 -0.16912248334E+03 -0.59454666224E+03  0.68750934823E+02  0.62194440185E+03  0.00000000000E+00 0.  1.
        -11    1    3    3    0    0 -0.99567553355E+02 -0.50801948906E+03 -0.16138732168E+02  0.51793624861E+03  0.00000000000E+00 0. -1.
         22    1    1    2    0    0  0.26869003669E+03  0.11025661513E+04  0.18381791233E+03  0.11496240597E+04  0.00000000000E+00 0.  1.
<mgrwt>
<rscale>  0 0.22772643E+04</rscale>
<asrwt>0</asrwt>
<pdfrwt beam="1">  1        1 0.19430268E+00 0.22772643E+04</pdfrwt>
<pdfrwt beam="2">  1       -1 0.15792881E+00 0.22772643E+04</pdfrwt>
<totfact> 0.26396285E+00</totfact>
</mgrwt>
</event>
<event>
 6    1  0.2047711E-005  0.2568762E+04  0.7818608E-02  0.8378890E-01
         -1   -1    0    0    0  501 -0.00000000000E+00  0.00000000000E+00  0.14262125373E+04  0.14262125373E+04  0.00000000000E+00 0.  1.
          1   -1    0    0  501    0  0.00000000000E+00 -0.00000000000E+00 -0.11566545043E+04  0.11566545043E+04  0.00000000000E+00 0. -1.
         23    2    1    2    0    0  0.29661359994E+03 -0.62228032458E+02  0.13882525566E+04  0.14238461648E+04  0.90778766934E+02 0.  0.
         11    1    3    3    0    0  0.20099865174E+03 -0.85447148344E+01  0.10183872697E+04  0.10380684472E+04  0.00000000000E+00 0.  1.
        -11    1    3    3    0    0  0.95614948206E+02 -0.53683317623E+02  0.36986528690E+03  0.38577771756E+03  0.00000000000E+00 0. -1.
         22    1    1    2    0    0 -0.29661359994E+03  0.62228032458E+02 -0.11186945236E+04  0.11590208768E+04  0.00000000000E+00 0. -1.
<mgrwt>
<rscale>  0 0.25687625E+04</rscale>
<asrwt>0</asrwt>
<pdfrwt beam="1">  1        1 0.17794685E+00 0.25687625E+04</pdfrwt>
<pdfrwt beam="2">  1       -1 0.21941731E+00 0.25687625E+04</pdfrwt>
<totfact> 0.11278500E+00</totfact>
</mgrwt>
</event>
<event>
 6    1  0.2047711E-005  0.5449778E+04  0.7818608E-02  0.7762638E-01
         -2   -1    0    0    0  501 -0.00000000000E+00  0.00000000000E+00  0.33984333227E+04  0.33984333227E+04  0.00000000000E+00 0.  1.
          2   -1    0    0  501    0  0.00000000000E+00 -0.00000000000E+00 -0.21848363634E+04  0.21848363634E+04  0.00000000000E+00 0. -1.
         23    2    1    2    0    0  0.17467073686E+04  0.20732355030E+04  0.88193797858E+03  0.28520996508E+04  0.85823876816E+02 0.  0.
         13    1    3    3    0    0  0.18918274018E+02  0.11143487264E+02  0.49382032887E+01  0.22504760651E+02  0.00000000000E+00 0.  1.
        -13    1    3    3    0    0  0.17277890946E+04  0.20620920157E+04  0.87699977529E+03  0.28295948902E+04  0.00000000000E+00 0. -1.
         22    1    1    2    0    0 -0.17467073686E+04 -0.20732355030E+04  0.33165898073E+03  0.27311700353E+04  0.00000000000E+00 0.  1.
<mgrwt>
<rscale>  0 0.54497782E+04</rscale>
<asrwt>0</asrwt>
<pdfrwt beam="1">  1        2 0.33612867E+00 0.54497782E+04</pdfrwt>
<pdfrwt beam="2">  1       -2 0.52283590E+00 0.54497782E+04</pdfrwt>
<totfact> 0.45022145E-03</totfact>
</mgrwt>
</event>
<event>
 6    1  0.2047711E-005  0.3650030E+04  0.7818608E-02  0.8079127E-01
          2   -1    0    0  501    0  0.00000000000E+00  0.00000000000E+00  0.17500705113E+04  0.17500705113E+04  0.00000000000E+00 0. -1.
         -2   -1    0    0    0  501 -0.00000000000E+00 -0.00000000000E+00 -0.19031690189E+04  0.19031690189E+04  0.00000000000E+00 0.  1.
         23    2    1    2    0    0 -0.74964990847E+03 -0.14314599378E+04 -0.92318468280E+03  0.18632436486E+04  0.91402389547E+02 0.  0.
         11    1    3    3    0    0 -0.58610984536E+03 -0.11825938589E+04 -0.73026478619E+03  0.15084228996E+04  0.00000000000E+00 0.  1.
        -11    1    3    3    0    0 -0.16354006311E+03 -0.24886607885E+03 -0.19291989660E+03  0.35482074904E+03  0.00000000000E+00 0. -1.
         22    1    1    2    0    0  0.74964990847E+03  0.14314599378E+04  0.77008617526E+03  0.17899958816E+04  0.00000000000E+00 0. -1.
<mgrwt>
<rscale>  0 0.36500301E+04</rscale>
<asrwt>0</asrwt>
<pdfrwt beam="1">  1        2 0.26924162E+00 0.36500301E+04</pdfrwt>
<pdfrwt beam="2">  1       -2 0.29279523E+00 0.36500301E+04</pdfrwt>
<totfact> 0.26263180E-01</totfact>
</mgrwt>
</event>
<event>
 6    1  0.2047711E-005  0.2596401E+04  0.7818608E-02  0.8369425E-01
         -2   -1    0    0    0  501 -0.00000000000E+00  0.00000000000E+00  0.11506005105E+04  0.11506005105E+04  0.00000000000E+00 0. -1.
          2   -1    0    0  501    0  0.00000000000E+00 -0.00000000000E+00 -0.14647344588E+04  0.14647344588E+04  0.00000000000E+00 0.  1.
         23    2    1    2    0    0 -0.36554283462E+03  0.70711881491E+03 -0.11880137678E+04  0.14332586091E+04  0.95994508625E+02 0.  0.
         11    1    3    3    0    0 -0.22605165188E+02  0.14509762658E+02 -0.61558583028E+02  0.67163873101E+02  0.00000000000E+00 0.  1.
        -11    1    3    3    0    0 -0.34293766943E+03  0.69260905225E+03 -0.11264551848E+04  0.13660947360E+04  0.00000000000E+00 0. -1.
         22    1    1    2    0    0  0.36554283462E+03 -0.70711881491E+03  0.87387981949E+03  0.11820763602E+04  0.00000000000E+00 0. -1.
<mgrwt>
<rscale>  0 0.25964008E+04</rscale>
<asrwt>0</asrwt>
<pdfrwt beam="1">  1        2 0.22534376E+00 0.25964008E+04</pdfrwt>
<pdfrwt beam="2">  1       -2 0.17701546E+00 0.25964008E+04</pdfrwt>
<totfact> 0.22371026E+00</totfact>
</mgrwt>
</event>
<event>
 6    1  0.2047711E-005  0.2596674E+04  0.7818608E-02  0.8369332E-01
          2   -1    0    0  501    0  0.00000000000E+00  0.00000000000E+00  0.14389737170E+04  0.14389737170E+04  0.00000000000E+00 0. -1.
         -2   -1    0    0    0  501 -0.00000000000E+00 -0.00000000000E+00 -0.11714455143E+04  0.11714455143E+04  0.00000000000E+00 0.  1.
         23    2    1    2    0    0 -0.11612466592E+04  0.42930133864E+03  0.52173976727E+03  0.13465296149E+04  0.90200754262E+02 0.  0.
         13    1    3    3    0    0 -0.87202436396E+03  0.28028273560E+03  0.38876915677E+03  0.99505093361E+03  0.00000000000E+00 0.  1.
        -13    1    3    3    0    0 -0.28922229524E+03  0.14901860304E+03  0.13297061050E+03  0.35147868125E+03  0.00000000000E+00 0. -1.
         22    1    1    2    0    0  0.11612466592E+04 -0.42930133864E+03 -0.25421156460E+03  0.12638896164E+04  0.00000000000E+00 0.  1.
<mgrwt>
<rscale>  0 0.25966743E+04</rscale>
<asrwt>0</asrwt>
<pdfrwt beam="1">  1        2 0.22138057E+00 0.25966743E+04</pdfrwt>
<pdfrwt beam="2">  1       -2 0.18022239E+00 0.25966743E+04</pdfrwt>
<totfact> 0.21981014E+00</totfact>
</mgrwt>
</event>
<event>
 6    1  0.2047711E-005  0.2164613E+04  0.7818608E-02  0.8533303E-01
         -2   -1    0    0    0  501 -0.00000000000E+00  0.00000000000E+00  0.11185567769E+04  0.11185567769E+04  0.00000000000E+00 0.  1.
          2   -1    0    0  501    0  0.00000000000E+00 -0.00000000000E+00 -0.10472307416E+04  0.10472307416E+04  0.00000000000E+00 0. -1.
         23    2    1    2    0    0 -0.39716582479E+03 -0.39668529693E+03 -0.88800579164E+03  0.10542941667E+04  0.88780553649E+02 0.  0.
         13    1    3    3    0    0 -0.17945519742E+02 -0.21404940699E+02 -0.91076757796E+02  0.95263786277E+02  0.00000000000E+00 0. -1.
        -13    1    3    3    0    0 -0.37922030505E+03 -0.37528035623E+03 -0.79692903384E+03  0.95903038039E+03  0.00000000000E+00 0.  1.
         22    1    1    2    0    0  0.39716582479E+03  0.39668529693E+03  0.95933182694E+03  0.11114933519E+04  0.00000000000E+00 0.  1.
<mgrwt>
<rscale>  0 0.21646127E+04</rscale>
<asrwt>0</asrwt>
<pdfrwt beam="1">  1        2 0.16111242E+00 0.21646127E+04</pdfrwt>
<pdfrwt beam="2">  1       -2 0.17208566E+00 0.21646127E+04</pdfrwt>
<totfact> 0.44375225E+00</totfact>
</mgrwt>
</event>
<event>
 6    1  0.2047711E-005  0.2250393E+04  0.7818608E-02  0.8497741E-01
         -2   -1    0    0    0  501 -0.00000000000E+00  0.00000000000E+00  0.87640564293E+03  0.87640564293E+03  0.00000000000E+00 0.  1.
          2   -1    0    0  501    0  0.00000000000E+00 -0.00000000000E+00 -0.14446129167E+04  0.14446129167E+04  0.00000000000E+00 0. -1.
         23    2    1    2    0    0  0.68871771322E+03 -0.80567483631E+03  0.99236763659E+02  0.10684509672E+04  0.91079656092E+02 0.  0.
         11    1    3    3    0    0  0.34218431060E+03 -0.45234348729E+03  0.22514537267E+02  0.56763688861E+03  0.00000000000E+00 0.  1.
        -11    1    3    3    0    0  0.34653340262E+03 -0.35333134902E+03  0.76722226392E+02  0.50081407863E+03  0.00000000000E+00 0. -1.
         22    1    1    2    0    0 -0.68871771322E+03  0.80567483631E+03 -0.66744403740E+03  0.12525675924E+04  0.00000000000E+00 0. -1.
<mgrwt>
<rscale>  0 0.22503928E+04</rscale>
<asrwt>0</asrwt>
<pdfrwt beam="1">  1        2 0.22224814E+00 0.22503928E+04</pdfrwt>
<pdfrwt beam="2">  1       -2 0.13483164E+00 0.22503928E+04</pdfrwt>
<totfact> 0.49171432E+00</totfact>
</mgrwt>
</event>
<event>
 6    1  0.2047711E-005  0.3178954E+04  0.7818608E-02  0.8194398E-01
          2   -1    0    0  501    0  0.00000000000E+00  0.00000000000E+00  0.34100364285E+04  0.34100364285E+04  0.00000000000E+00 0. -1.
         -2   -1    0    0    0  501 -0.00000000000E+00 -0.00000000000E+00 -0.74088284023E+03  0.74088284023E+03  0.00000000000E+00 0.  1.
         23    2    1    2    0    0  0.41826096625E+03 -0.58288852908E+03  0.31858161826E+04  0.32668143487E+04  0.89162582580E+02 0.  0.
         11    1    3    3    0    0  0.27717361573E+03 -0.44202013088E+03  0.24055874617E+04  0.24615153961E+04  0.00000000000E+00 0. -1.
        -11    1    3    3    0    0  0.14108735052E+03 -0.14086839819E+03  0.78022872090E+03  0.80529895256E+03  0.00000000000E+00 0.  1.
         22    1    1    2    0    0 -0.41826096625E+03  0.58288852908E+03 -0.51666259436E+03  0.88410492003E+03  0.00000000000E+00 0.  1.
<mgrwt>
<rscale>  0 0.31789542E+04</rscale>
<asrwt>0</asrwt>
<pdfrwt beam="1">  1        2 0.52462098E+00 0.31789542E+04</pdfrwt>
<pdfrwt beam="2">  1       -2 0.11398198E+00 0.31789542E+04</pdfrwt>
<totfact> 0.47646148E-01</totfact>
</mgrwt>
</event>
<event>
 6    1  0.2047711E-005  0.4105113E+04  0.7818608E-02  0.7983671E-01
          2   -1    0    0  501    0  0.00000000000E+00  0.00000000000E+00  0.37217002304E+04  0.37217002304E+04  0.00000000000E+00 0. -1.
         -2   -1    0    0    0  501 -0.00000000000E+00 -0.00000000000E+00 -0.11320064036E+04  0.11320064036E+04  0.00000000000E+00 0.  1.
         23    2    1    2    0    0  0.11650265290E+04 -0.16462477425E+04  0.17401942215E+04  0.26653126973E+04  0.90539510006E+02 0.  0.
         11    1    3    3    0    0  0.11722415258E+03 -0.21675291854E+03  0.20962581389E+03  0.32352173265E+03  0.00000000000E+00 0.  1.
        -11    1    3    3    0    0  0.10478023764E+04 -0.14294948239E+04  0.15305684076E+04  0.23417909647E+04  0.00000000000E+00 0. -1.
         22    1    1    2    0    0 -0.11650265290E+04  0.16462477425E+04  0.84949960532E+03  0.21883939367E+04  0.00000000000E+00 0.  1.
<mgrwt>
<rscale>  0 0.41051131E+04</rscale>
<asrwt>0</asrwt>
<pdfrwt beam="1">  1        2 0.57256926E+00 0.41051131E+04</pdfrwt>
<pdfrwt beam="2">  1       -2 0.17415483E+00 0.41051131E+04</pdfrwt>
<totfact> 0.87409986E-02</totfact>
</mgrwt>
</event>
<event>
 6    1  0.2047711E-005  0.1823199E+04  0.7818608E-02  0.8694059E-01
         -2   -1    0    0    0  501 -0.00000000000E+00  0.00000000000E+00  0.52032273656E+03  0.52032273656E+03  0.00000000000E+00 0.  1.
          2   -1    0    0  501    0  0.00000000000E+00 -0.00000000000E+00 -0.15971117791E+04  0.15971117791E+04  0.00000000000E+00 0. -1.
         23    2    1    2    0    0 -0.67138555605E+03 -0.39667746734E+03 -0.10828661247E+04  0.13375957446E+04  0.91933421724E+02 0.  0.
         11    1    3    3    0    0 -0.38471386073E+03 -0.27417746924E+03 -0.61822670054E+03  0.77806316744E+03  0.00000000000E+00 0.  1.
        -11    1    3    3    0    0 -0.28667169532E+03 -0.12249999809E+03 -0.46463942412E+03  0.55953257714E+03  0.00000000000E+00 0. -1.
         22    1    1    2    0    0  0.67138555605E+03  0.39667746734E+03  0.60770821061E+01  0.77983877109E+03  0.00000000000E+00 0. -1.
<mgrwt>
<rscale>  0 0.18231989E+04</rscale>
<asrwt>0</asrwt>
<pdfrwt beam="1">  1        2 0.24570950E+00 0.18231989E+04</pdfrwt>
<pdfrwt beam="2">  1       -2 0.80049653E-01 0.18231989E+04</pdfrwt>
<totfact> 0.14559349E+01</totfact>
</mgrwt>
</event>
<event>
 6    1  0.2047711E-005  0.1130712E+04  0.7818608E-02  0.9175764E-01
          2   -1    0    0  501    0  0.00000000000E+00  0.00000000000E+00  0.17736360278E+04  0.17736360278E+04  0.00000000000E+00 0. -1.
         -2   -1    0    0    0  501 -0.00000000000E+00 -0.00000000000E+00 -0.18021018599E+03  0.18021018599E+03  0.00000000000E+00 0.  1.
         23    2    1    2    0    0 -0.51025523195E+03  0.20571574909E+03  0.99774491151E+03  0.11429731399E+04  0.90627363657E+02 0.  0.
         13    1    3    3    0    0 -0.26776985271E+03  0.13412933286E+03  0.61826493579E+03  0.68698100613E+03  0.00000000000E+00 0.  1.
        -13    1    3    3    0    0 -0.24248537924E+03  0.71586416235E+02  0.37947997572E+03  0.45599213382E+03  0.00000000000E+00 0. -1.
         22    1    1    2    0    0  0.51025523195E+03 -0.20571574909E+03  0.59568093029E+03  0.81087307384E+03  0.00000000000E+00 0.  1.
<mgrwt>
<rscale>  0 0.11307118E+04</rscale>
<asrwt>0</asrwt>
<pdfrwt beam="1">  1        2 0.27286707E+00 0.11307118E+04</pdfrwt>
<pdfrwt beam="2">  1       -2 0.27724645E-01 0.11307118E+04</pdfrwt>
<totfact> 0.10503143E+02</totfact>
</mgrwt>
</event>
<event>
 6    1  0.2047711E-005  0.4703529E+04  0.7818608E-02  0.7875943E-01
         -1   -1    0    0    0  501 -0.00000000000E+00  0.00000000000E+00  0.43084729296E+04  0.43084729296E+04  0.00000000000E+00 0. -1.
          1   -1    0    0  501    0  0.00000000000E+00 -0.00000000000E+00 -0.12837020548E+04  0.12837020548E+04  0.00000000000E+00 0.  1.
         23    2    1    2    0    0  0.83127808360E+03  0.81792108537E+03  0.39398807026E+04  0.41097971138E+04  0.88058002084E+02 0.  0.
         13    1    3    3    0    0  0.74038079371E+03  0.72032010436E+03  0.35778199989E+04  0.37239522979E+04  0.00000000000E+00 0. -1.
        -13    1    3    3    0    0  0.90897289889E+02  0.97600981002E+02  0.36206070378E+03  0.38584481599E+03  0.00000000000E+00 0.  1.
         22    1    1    2    0    0 -0.83127808360E+03 -0.81792108537E+03 -0.91510982784E+03  0.14823778706E+04  0.00000000000E+00 0.  1.
<mgrwt>
<rscale>  0 0.47035287E+04</rscale>
<asrwt>0</asrwt>
<pdfrwt beam="1">  1        1 0.19749263E+00 0.47035287E+04</pdfrwt>
<pdfrwt beam="2">  1       -1 0.66284198E+00 0.47035287E+04</pdfrwt>
<totfact> 0.18398724E-03</totfact>
</mgrwt>
</event>
<event>
 6    1  0.2047711E-005  0.2757968E+04  0.7818608E-02  0.8316438E-01
         -2   -1    0    0    0  501 -0.00000000000E+00  0.00000000000E+00  0.94139750320E+03  0.94139750320E+03  0.00000000000E+00 0.  1.
          2   -1    0    0  501    0  0.00000000000E+00 -0.00000000000E+00 -0.20199728872E+04  0.20199728872E+04  0.00000000000E+00 0. -1.
         23    2    1    2    0    0  0.51979840549E+03  0.10851658952E+04  0.18014681846E+03  0.12200614042E+04  0.91222537532E+02 0.  0.
         11    1    3    3    0    0  0.33964576095E+03  0.62072064643E+03  0.12963697529E+03  0.71934630687E+03  0.00000000000E+00 0.  1.
        -11    1    3    3    0    0  0.18015264454E+03  0.46444524877E+03  0.50509843165E+02  0.50071509733E+03  0.00000000000E+00 0. -1.
         22    1    1    2    0    0 -0.51979840549E+03 -0.10851658952E+04 -0.12587222025E+04  0.17413089862E+04  0.00000000000E+00 0.  1.
<mgrwt>
<rscale>  0 0.27579684E+04</rscale>
<asrwt>0</asrwt>
<pdfrwt beam="1">  1        2 0.31076505E+00 0.27579684E+04</pdfrwt>
<pdfrwt beam="2">  1       -2 0.14483039E+00 0.27579684E+04</pdfrwt>
<totfact> 0.18690851E+00</totfact>
</mgrwt>
</event>
<event>
 6    1  0.5720814E-005  0.3910252E+04  0.7818608E-02  0.8022900E-01
          2   -1    0    0  501    0  0.00000000000E+00  0.00000000000E+00  0.17697077467E+04  0.17697077467E+04  0.00000000000E+00 0. -1.
         -2   -1    0    0    0  501 -0.00000000000E+00 -0.00000000000E+00 -0.21599715182E+04  0.21599715182E+04  0.00000000000E+00 0.  1.
         23    2    1    2    0    0  0.13228435644E+04 -0.25037112187E+02  0.12498390190E+04  0.18224348280E+04  0.92893358416E+02 0.  0.
         11    1    3    3    0    0  0.62523609356E+03 -0.49642770981E+02  0.55464798660E+03  0.83726875401E+03  0.00000000000E+00 0. -1.
        -11    1    3    3    0    0  0.69760747086E+03  0.24605658794E+02  0.69519103242E+03  0.98516607402E+03  0.00000000000E+00 0.  1.
         22    1    1    2    0    0 -0.13228435644E+04  0.25037112187E+02 -0.16401027906E+04  0.21072444368E+04  0.00000000000E+00 0.  1.
<mgrwt>
<rscale>  0 0.39102523E+04</rscale>
<asrwt>0</asrwt>
<pdfrwt beam="1">  1        2 0.27226273E+00 0.39102523E+04</pdfrwt>
<pdfrwt beam="2">  1       -2 0.33230331E+00 0.39102523E+04</pdfrwt>
<totfact> 0.14312571E-01</totfact>
</mgrwt>
</event>
<event>
 6    1  0.2047711E-005  0.1964798E+04  0.7818608E-02  0.8623258E-01
          2   -1    0    0  501    0  0.00000000000E+00  0.00000000000E+00  0.28386083629E+04  0.28386083629E+04  0.00000000000E+00 0. -1.
         -2   -1    0    0    0  501 -0.00000000000E+00 -0.00000000000E+00 -0.33999327798E+03  0.33999327798E+03  0.00000000000E+00 0.  1.
         23    2    1    2    0    0 -0.56718794797E+03 -0.59428151584E+03  0.21153827599E+04  0.22721030456E+04  0.11285096600E+03 0.  0.
         13    1    3    3    0    0 -0.19853295437E+03 -0.25605738043E+03  0.95480410666E+03  0.10082815074E+04  0.00000000000E+00 0.  1.
        -13    1    3    3    0    0 -0.36865499360E+03 -0.33822413541E+03  0.11605786532E+04  0.12638215382E+04  0.00000000000E+00 0. -1.
         22    1    1    2    0    0  0.56718794797E+03  0.59428151584E+03  0.38323232511E+03  0.90649859537E+03  0.00000000000E+00 0.  1.
<mgrwt>
<rscale>  0 0.19647980E+04</rscale>
<asrwt>0</asrwt>
<pdfrwt beam="1">  1        2 0.43670896E+00 0.19647980E+04</pdfrwt>
<pdfrwt beam="2">  1       -2 0.52306660E-01 0.19647980E+04</pdfrwt>
<totfact> 0.70545858E+00</totfact>
</mgrwt>
</event>
<event>
 6    1  0.2047711E-005  0.1393768E+04  0.7818608E-02  0.8958342E-01
         -2   -1    0    0    0  501 -0.00000000000E+00  0.00000000000E+00  0.75977235921E+03  0.75977235921E+03  0.00000000000E+00 0.  1.
          2   -1    0    0  501    0  0.00000000000E+00 -0.00000000000E+00 -0.63920096138E+03  0.63920096138E+03  0.00000000000E+00 0. -1.
         23    2    1    2    0    0  0.66537083072E+03  0.19395476670E+03  0.28637782494E+02  0.69983915355E+03  0.92832776364E+02 0.  0.
         13    1    3    3    0    0  0.12514982584E+03  0.65766133597E+02 -0.18672642667E+02  0.14260550768E+03  0.00000000000E+00 0. -1.
        -13    1    3    3    0    0  0.54022100488E+03  0.12818863310E+03  0.47310425161E+02  0.55723364588E+03  0.00000000000E+00 0.  1.
         22    1    1    2    0    0 -0.66537083072E+03 -0.19395476670E+03  0.91933615333E+02  0.69913416704E+03  0.00000000000E+00 0.  1.
<mgrwt>
<rscale>  0 0.13937679E+04</rscale>
<asrwt>0</asrwt>
<pdfrwt beam="1">  1        2 0.98338609E-01 0.13937679E+04</pdfrwt>
<pdfrwt beam="2">  1       -2 0.11688806E+00 0.13937679E+04</pdfrwt>
<totfact> 0.25323454E+01</totfact>
</mgrwt>
</event>
<event>
 6    1  0.2047711E-005  0.5104979E+04  0.7818608E-02  0.7812514E-01
         -2   -1    0    0    0  501 -0.00000000000E+00  0.00000000000E+00  0.33256970525E+04  0.33256970525E+04  0.00000000000E+00 0.  1.
          2   -1    0    0  501    0  0.00000000000E+00 -0.00000000000E+00 -0.19590489492E+04  0.19590489492E+04  0.00000000000E+00 0. -1.
         23    2    1    2    0    0  0.46105228310E+03 -0.94815521600E+03  0.30890496944E+04  0.32652820228E+04  0.90945876781E+02 0.  0.
         11    1    3    3    0    0  0.28741588263E+03 -0.68189363174E+03  0.21214888136E+04  0.22468425848E+04  0.00000000000E+00 0. -1.
        -11    1    3    3    0    0  0.17363640047E+03 -0.26626158426E+03  0.96756088071E+03  0.10184394379E+04  0.00000000000E+00 0.  1.
         22    1    1    2    0    0 -0.46105228310E+03  0.94815521600E+03 -0.17224015911E+04  0.20194639790E+04  0.00000000000E+00 0. -1.
<mgrwt>
<rscale>  0 0.51049793E+04</rscale>
<asrwt>0</asrwt>
<pdfrwt beam="1">  1        2 0.30139215E+00 0.51049793E+04</pdfrwt>
<pdfrwt beam="2">  1       -2 0.51164570E+00 0.51049793E+04</pdfrwt>
<totfact> 0.71782316E-03</totfact>
</mgrwt>
</event>
<event>
 6    1  0.2047711E-005  0.3694381E+04  0.7818608E-02  0.8069208E-01
         -1   -1    0    0    0  501 -0.00000000000E+00  0.00000000000E+00  0.25178561929E+04  0.25178561929E+04  0.00000000000E+00 0.  1.
          1   -1    0    0  501    0  0.00000000000E+00 -0.00000000000E+00 -0.13551656944E+04  0.13551656944E+04  0.00000000000E+00 0. -1.
         23    2    1    2    0    0  0.31798575939E+02 -0.17308192132E+04 -0.90544183455E+02  0.17358874820E+04  0.91437426504E+02 0.  0.
         11    1    3    3    0    0  0.42573125079E+01 -0.11796323095E+04 -0.10059518224E+03  0.11839214083E+04  0.00000000000E+00 0. -1.
        -11    1    3    3    0    0  0.27541263431E+02 -0.55118690368E+03  0.10050998781E+02  0.55196607373E+03  0.00000000000E+00 0.  1.
         22    1    1    2    0    0 -0.31798575939E+02  0.17308192132E+04  0.12532346820E+04  0.21371344053E+04  0.00000000000E+00 0. -1.
<mgrwt>
<rscale>  0 0.36943808E+04</rscale>
<asrwt>0</asrwt>
<pdfrwt beam="1">  1        1 0.20848703E+00 0.36943808E+04</pdfrwt>
<pdfrwt beam="2">  1       -1 0.38736249E+00 0.36943808E+04</pdfrwt>
<totfact> 0.57813960E-02</totfact>
</mgrwt>
</event>
<event>
 6    1  0.2047711E-005  0.3873961E+04  0.7818608E-02  0.8030467E-01
          2   -1    0    0  501    0  0.00000000000E+00  0.00000000000E+00  0.20228702537E+04  0.20228702537E+04  0.00000000000E+00 0. -1.
         -2   -1    0    0    0  501 -0.00000000000E+00 -0.00000000000E+00 -0.18547372987E+04  0.18547372987E+04  0.00000000000E+00 0.  1.
         23    2    1    2    0    0  0.17301998974E+04 -0.32810188013E+03 -0.72068819717E+03  0.19049835210E+04  0.91259020820E+02 0.  0.
         13    1    3    3    0    0  0.98972964996E+03 -0.15429911250E+03 -0.44317525883E+03  0.10953434649E+04  0.00000000000E+00 0. -1.
        -13    1    3    3    0    0  0.74047024748E+03 -0.17380276763E+03 -0.27751293834E+03  0.80964005607E+03  0.00000000000E+00 0.  1.
         22    1    1    2    0    0 -0.17301998974E+04  0.32810188013E+03  0.88882115221E+03  0.19726240315E+04  0.00000000000E+00 0. -1.
<mgrwt>
<rscale>  0 0.38739607E+04</rscale>
<asrwt>0</asrwt>
<pdfrwt beam="1">  1        2 0.31121081E+00 0.38739607E+04</pdfrwt>
<pdfrwt beam="2">  1       -2 0.28534420E+00 0.38739607E+04</pdfrwt>
<totfact> 0.20201600E-01</totfact>
</mgrwt>
</event>
<event>
 6    1  0.2047711E-005  0.2168228E+04  0.7818608E-02  0.8531770E-01
          1   -1    0    0  501    0  0.00000000000E+00  0.00000000000E+00  0.83739256095E+03  0.83739256095E+03  0.00000000000E+00 0. -1.
         -1   -1    0    0    0  501 -0.00000000000E+00 -0.00000000000E+00 -0.14035271802E+04  0.14035271802E+04  0.00000000000E+00 0.  1.
         23    2    1    2    0    0 -0.26502135729E+03 -0.10470725988E+04 -0.35258976578E+03  0.11399207622E+04  0.92208753356E+02 0.  0.
         13    1    3    3    0    0 -0.22780268457E+03 -0.76934413765E+03 -0.23529838093E+03  0.83615177647E+03  0.00000000000E+00 0. -1.
        -13    1    3    3    0    0 -0.37218672721E+02 -0.27772846119E+03 -0.11729138485E+03  0.30376898577E+03  0.00000000000E+00 0.  1.
         22    1    1    2    0    0  0.26502135729E+03  0.10470725988E+04 -0.21354485345E+03  0.11009989789E+04  0.00000000000E+00 0. -1.
<mgrwt>
<rscale>  0 0.21682281E+04</rscale>
<asrwt>0</asrwt>
<pdfrwt beam="1">  1        1 0.12882962E+00 0.21682281E+04</pdfrwt>
<pdfrwt beam="2">  1       -1 0.21592726E+00 0.21682281E+04</pdfrwt>
<totfact> 0.21995208E+00</totfact>
</mgrwt>
</event>
<event>
 6    1  0.2047711E-005  0.3050432E+04  0.7818608E-02  0.8229475E-01
          2   -1    0    0  501    0  0.00000000000E+00  0.00000000000E+00  0.21538898242E+04  0.21538898242E+04  0.00000000000E+00 0. -1.
         -2   -1    0    0    0  501 -0.00000000000E+00 -0.00000000000E+00 -0.10800383618E+04  0.10800383618E+04  0.00000000000E+00 0.  1.
         23    2    1    2    0    0 -0.53330092405E+03  0.46110372216E+03 -0.89477563054E+03  0.11428712405E+04  0.92221066441E+02 0.  0.
         13    1    3    3    0    0 -0.21553728874E+03  0.12815943598E+03 -0.31472751403E+03  0.40241094910E+03  0.00000000000E+00 0. -1.
        -13    1    3    3    0    0 -0.31776363531E+03  0.33294428617E+03 -0.58004811651E+03  0.74046029136E+03  0.00000000000E+00 0.  1.
         22    1    1    2    0    0  0.53330092405E+03 -0.46110372216E+03  0.19686270930E+04  0.20910569455E+04  0.00000000000E+00 0. -1.
<mgrwt>
<rscale>  0 0.30504319E+04</rscale>
<asrwt>0</asrwt>
<pdfrwt beam="1">  1        2 0.33136766E+00 0.30504319E+04</pdfrwt>
<pdfrwt beam="2">  1       -2 0.16615975E+00 0.30504319E+04</pdfrwt>
<totfact> 0.10611249E+00</totfact>
</mgrwt>
</event>
<event>
 6    1  0.2047711E-005  0.5636124E+04  0.7818608E-02  0.7737231E-01
         -2   -1    0    0    0  501 -0.00000000000E+00  0.00000000000E+00  0.32157163913E+04  0.32157163913E+04  0.00000000000E+00 0.  1.
          2   -1    0    0  501    0  0.00000000000E+00 -0.00000000000E+00 -0.24695814261E+04  0.24695814261E+04  0.00000000000E+00 0. -1.
         23    2    1    2    0    0  0.60522788495E+03 -0.26520239155E+04 -0.36664400911E+03  0.27462828996E+04  0.90057170003E+02 0.  0.
         13    1    3    3    0    0  0.12005083427E+03 -0.64346896397E+03 -0.11678634726E+03  0.66490868644E+03  0.00000000000E+00 0.  1.
        -13    1    3    3    0    0  0.48517705069E+03 -0.20085549516E+04 -0.24985766185E+03  0.20813742131E+04  0.00000000000E+00 0. -1.
         22    1    1    2    0    0 -0.60522788495E+03  0.26520239155E+04  0.11127789744E+04  0.29390149178E+04  0.00000000000E+00 0.  1.
<mgrwt>
<rscale>  0 0.56361240E+04</rscale>
<asrwt>0</asrwt>
<pdfrwt beam="1">  1        2 0.37993560E+00 0.56361240E+04</pdfrwt>
<pdfrwt beam="2">  1       -2 0.49472560E+00 0.56361240E+04</pdfrwt>
<totfact> 0.45078206E-03</totfact>
</mgrwt>
</event>
<event>
 6    1  0.2047711E-005  0.6130617E+04  0.7818608E-02  0.7674415E-01
          2   -1    0    0  501    0  0.00000000000E+00  0.00000000000E+00  0.46949977054E+04  0.46949977054E+04  0.00000000000E+00 0. -1.
         -2   -1    0    0    0  501 -0.00000000000E+00 -0.00000000000E+00 -0.20013035222E+04  0.20013035222E+04  0.00000000000E+00 0.  1.
         23    2    1    2    0    0  0.11961305830E+04 -0.36177526108E+03  0.44036128198E+04  0.45784175069E+04  0.92148195872E+02 0.  0.
         13    1    3    3    0    0  0.69028926744E+03 -0.20828453879E+03  0.23726508335E+04  0.24797890434E+04  0.00000000000E+00 0. -1.
        -13    1    3    3    0    0  0.50584131554E+03 -0.15349072230E+03  0.20309619862E+04  0.20986284635E+04  0.00000000000E+00 0.  1.
         22    1    1    2    0    0 -0.11961305830E+04  0.36177526108E+03 -0.17099186365E+04  0.21178837207E+04  0.00000000000E+00 0.  1.
<mgrwt>
<rscale>  0 0.61306168E+04</rscale>
<asrwt>0</asrwt>
<pdfrwt beam="1">  1        2 0.72230734E+00 0.61306168E+04</pdfrwt>
<pdfrwt beam="2">  1       -2 0.30789285E+00 0.61306168E+04</pdfrwt>
<totfact> 0.14494209E-03</totfact>
</mgrwt>
</event>
<event>
 6    1  0.2047711E-005  0.1203243E+04  0.7818608E-02  0.9110023E-01
         -2   -1    0    0    0  501 -0.00000000000E+00  0.00000000000E+00  0.24220943911E+03  0.24220943911E+03  0.00000000000E+00 0.  1.
          2   -1    0    0  501    0  0.00000000000E+00 -0.00000000000E+00 -0.14943616279E+04  0.14943616279E+04  0.00000000000E+00 0. -1.
         23    2    1    2    0    0 -0.16305751763E+03  0.29593144390E+03  0.82303735830E+02  0.36000440015E+03  0.93091834482E+02 0.  0.
         13    1    3    3    0    0 -0.22686933313E+02  0.83284968312E+02  0.58115561243E+02  0.10406008528E+03  0.00000000000E+00 0. -1.
        -13    1    3    3    0    0 -0.14037058431E+03  0.21264647559E+03  0.24188174587E+02  0.25594431487E+03  0.00000000000E+00 0.  1.
         22    1    1    2    0    0  0.16305751763E+03 -0.29593144390E+03 -0.13344559246E+04  0.13765666669E+04  0.00000000000E+00 0. -1.
<mgrwt>
<rscale>  0 0.12032431E+04</rscale>
<asrwt>0</asrwt>
<pdfrwt beam="1">  1        2 0.22990180E+00 0.12032431E+04</pdfrwt>
<pdfrwt beam="2">  1       -2 0.37262989E-01 0.12032431E+04</pdfrwt>
<totfact> 0.85608935E+01</totfact>
</mgrwt>
</event>
<event>
 6    1  0.2047711E-005  0.1236390E+04  0.7818608E-02  0.9081587E-01
          2   -1    0    0  501    0  0.00000000000E+00  0.00000000000E+00  0.14725412211E+04  0.14725412211E+04  0.00000000000E+00 0. -1.
         -2   -1    0    0    0  501 -0.00000000000E+00 -0.00000000000E+00 -0.25952758230E+03  0.25952758230E+03  0.00000000000E+00 0.  1.
         23    2    1    2    0    0  0.38074316437E+03 -0.32378419010E+03  0.11052323119E+03  0.52157854823E+03  0.10013609924E+03 0.  0.
         13    1    3    3    0    0  0.13681884959E+03 -0.75090854597E+02 -0.14996666201E+00  0.15607067802E+03  0.00000000000E+00 0. -1.
        -13    1    3    3    0    0  0.24392431477E+03 -0.24869333551E+03  0.11067319785E+03  0.36550787021E+03  0.00000000000E+00 0.  1.
         22    1    1    2    0    0 -0.38074316437E+03  0.32378419010E+03  0.11024904076E+04  0.12104902552E+04  0.00000000000E+00 0. -1.
<mgrwt>
<rscale>  0 0.12363900E+04</rscale>
<asrwt>0</asrwt>
<pdfrwt beam="1">  1        2 0.22654480E+00 0.12363900E+04</pdfrwt>
<pdfrwt beam="2">  1       -2 0.39927321E-01 0.12363900E+04</pdfrwt>
<totfact> 0.76830837E+01</totfact>
</mgrwt>
</event>
<event>
 6    1  0.2047711E-005  0.3062634E+04  0.7818608E-02  0.8226068E-01
          2   -1    0    0  501    0  0.00000000000E+00  0.00000000000E+00  0.19248348255E+04  0.19248348255E+04  0.00000000000E+00 0. -1.
         -2   -1    0    0    0  501 -0.00000000000E+00 -0.00000000000E+00 -0.12182510432E+04  0.12182510432E+04  0.00000000000E+00 0.  1.
         23    2    1    2    0    0 -0.13733125927E+03 -0.37491237105E+03 -0.11621032386E+04  0.12322194832E+04  0.91987807842E+02 0.  0.
         13    1    3    3    0    0 -0.33005948438E+02 -0.17675171530E+02 -0.97472861552E+02  0.10441629691E+03  0.00000000000E+00 0.  1.
        -13    1    3    3    0    0 -0.10432531083E+03 -0.35723719952E+03 -0.10646303771E+04  0.11278031863E+04  0.00000000000E+00 0. -1.
         22    1    1    2    0    0  0.13733125927E+03  0.37491237105E+03  0.18686870210E+04  0.19108663855E+04  0.00000000000E+00 0. -1.
<mgrwt>
<rscale>  0 0.30626342E+04</rscale>
<asrwt>0</asrwt>
<pdfrwt beam="1">  1        2 0.29612844E+00 0.30626342E+04</pdfrwt>
<pdfrwt beam="2">  1       -2 0.18742324E+00 0.30626342E+04</pdfrwt>
<totfact> 0.10107449E+00</totfact>
</mgrwt>
</event>
<event>
 6    1  0.2047711E-005  0.2970298E+04  0.7818608E-02  0.8252264E-01
         -2   -1    0    0    0  501 -0.00000000000E+00  0.00000000000E+00  0.12030649288E+04  0.12030649288E+04  0.00000000000E+00 0.  1.
          2   -1    0    0  501    0  0.00000000000E+00 -0.00000000000E+00 -0.18333735424E+04  0.18333735424E+04  0.00000000000E+00 0. -1.
         23    2    1    2    0    0  0.11947513411E+04 -0.43466034543E+03 -0.10974493406E+04  0.16819714758E+04  0.90953874139E+02 0.  0.
         13    1    3    3    0    0  0.71812289855E+03 -0.29765773499E+03 -0.63250672066E+03  0.10021803113E+04  0.00000000000E+00 0.  1.
        -13    1    3    3    0    0  0.47662844258E+03 -0.13700261044E+03 -0.46494261990E+03  0.67979116451E+03  0.00000000000E+00 0. -1.
         22    1    1    2    0    0 -0.11947513411E+04  0.43466034543E+03  0.46714072690E+03  0.13544669954E+04  0.00000000000E+00 0.  1.
<mgrwt>
<rscale>  0 0.29702979E+04</rscale>
<asrwt>0</asrwt>
<pdfrwt beam="1">  1        2 0.28205747E+00 0.29702979E+04</pdfrwt>
<pdfrwt beam="2">  1       -2 0.18508691E+00 0.29702979E+04</pdfrwt>
<totfact> 0.11873378E+00</totfact>
</mgrwt>
</event>
<event>
 6    1  0.2047711E-005  0.2054306E+04  0.7818608E-02  0.8581644E-01
         -2   -1    0    0    0  501 -0.00000000000E+00  0.00000000000E+00  0.19295421543E+04  0.19295421543E+04  0.00000000000E+00 0.  1.
          2   -1    0    0  501    0  0.00000000000E+00 -0.00000000000E+00 -0.54678412142E+03  0.54678412142E+03  0.00000000000E+00 0. -1.
         23    2    1    2    0    0 -0.11355743950E+03 -0.47434815272E+03 -0.39418095214E+03  0.63366146124E+03  0.90811686294E+02 0.  0.
         11    1    3    3    0    0 -0.59517573860E+02 -0.10470987257E+03 -0.12214599294E+03  0.17154049844E+03  0.00000000000E+00 0. -1.
        -11    1    3    3    0    0 -0.54039865637E+02 -0.36963828015E+03 -0.27203495920E+03  0.46212096280E+03  0.00000000000E+00 0.  1.
         22    1    1    2    0    0  0.11355743950E+03  0.47434815272E+03  0.17769389850E+04  0.18426648145E+04  0.00000000000E+00 0.  1.
<mgrwt>
<rscale>  0 0.20543057E+04</rscale>
<asrwt>0</asrwt>
<pdfrwt beam="1">  1        2 0.84120635E-01 0.20543057E+04</pdfrwt>
<pdfrwt beam="2">  1       -2 0.29685264E+00 0.20543057E+04</pdfrwt>
<totfact> 0.17050750E+00</totfact>
</mgrwt>
</event>
<event>
 6    1  0.2047711E-005  0.1911281E+04  0.7818608E-02  0.8649262E-01
         -2   -1    0    0    0  501 -0.00000000000E+00  0.00000000000E+00  0.24321940291E+03  0.24321940291E+03  0.00000000000E+00 0.  1.
          2   -1    0    0  501    0  0.00000000000E+00 -0.00000000000E+00 -0.37548340974E+04  0.37548340974E+04  0.00000000000E+00 0. -1.
         23    2    1    2    0    0 -0.14701241753E+03  0.16959748894E+03 -0.36981309186E+04  0.37062243362E+04  0.97727067574E+02 0.  0.
         11    1    3    3    0    0  0.10226619691E+02  0.35161469160E+02 -0.43256672683E+03  0.43411390882E+03  0.00000000000E+00 0. -1.
        -11    1    3    3    0    0 -0.15723903723E+03  0.13443601978E+03 -0.32655641918E+04  0.32721104274E+04  0.00000000000E+00 0.  1.
         22    1    1    2    0    0  0.14701241753E+03 -0.16959748894E+03  0.18651622414E+03  0.29182916412E+03  0.00000000000E+00 0.  1.
<mgrwt>
<rscale>  0 0.19112807E+04</rscale>
<asrwt>0</asrwt>
<pdfrwt beam="1">  1        2 0.57766676E+00 0.19112807E+04</pdfrwt>
<pdfrwt beam="2">  1       -2 0.37418371E-01 0.19112807E+04</pdfrwt>
<totfact> 0.33797318E+00</totfact>
</mgrwt>
</event>
<event>
 6    1  0.2047711E-005  0.2613537E+04  0.7818608E-02  0.8363618E-01
         -2   -1    0    0    0  501 -0.00000000000E+00  0.00000000000E+00  0.20940722291E+04  0.20940722291E+04  0.00000000000E+00 0.  1.
          2   -1    0    0  501    0  0.00000000000E+00 -0.00000000000E+00 -0.81546532994E+03  0.81546532994E+03  0.00000000000E+00 0. -1.
         23    2    1    2    0    0 -0.14978681348E+03 -0.12932522231E+04  0.74358273816E+03  0.15019906664E+04  0.90129193793E+02 0.  0.
         11    1    3    3    0    0 -0.86082500406E+02 -0.10468955033E+04  0.59029881786E+03  0.12049286643E+04  0.00000000000E+00 0.  1.
        -11    1    3    3    0    0 -0.63704313077E+02 -0.24635671981E+03  0.15328392031E+03  0.29706200215E+03  0.00000000000E+00 0. -1.
         22    1    1    2    0    0  0.14978681348E+03  0.12932522231E+04  0.53502416101E+03  0.14075468926E+04  0.00000000000E+00 0.  1.
<mgrwt>
<rscale>  0 0.26135365E+04</rscale>
<asrwt>0</asrwt>
<pdfrwt beam="1">  1        2 0.12545621E+00 0.26135365E+04</pdfrwt>
<pdfrwt beam="2">  1       -2 0.32216496E+00 0.26135365E+04</pdfrwt>
<totfact> 0.68887629E-01</totfact>
</mgrwt>
</event>
<event>
 6    1  0.2047711E-005  0.1737211E+04  0.7818608E-02  0.8740421E-01
         -2   -1    0    0    0  501 -0.00000000000E+00  0.00000000000E+00  0.50477276678E+03  0.50477276678E+03  0.00000000000E+00 0.  1.
          2   -1    0    0  501    0  0.00000000000E+00 -0.00000000000E+00 -0.14946839367E+04  0.14946839367E+04  0.00000000000E+00 0. -1.
         23    2    1    2    0    0 -0.77011019500E+03  0.39171228995E+03 -0.42439486294E+03  0.96683047681E+03  0.90232702770E+02 0.  0.
         13    1    3    3    0    0 -0.32597104620E+03  0.12993306052E+03 -0.13796867576E+03  0.37706110734E+03  0.00000000000E+00 0. -1.
        -13    1    3    3    0    0 -0.44413914880E+03  0.26177922943E+03 -0.28642618719E+03  0.58976936947E+03  0.00000000000E+00 0.  1.
         22    1    1    2    0    0  0.77011019500E+03 -0.39171228995E+03 -0.56551630699E+03  0.10326262267E+04  0.00000000000E+00 0. -1.
<mgrwt>
<rscale>  0 0.17372113E+04</rscale>
<asrwt>0</asrwt>
<pdfrwt beam="1">  1        2 0.22995138E+00 0.17372113E+04</pdfrwt>
<pdfrwt beam="2">  1       -2 0.77657349E-01 0.17372113E+04</pdfrwt>
<totfact> 0.17919068E+01</totfact>
</mgrwt>
</event>
<event>
 6    1  0.2047711E-005  0.1102215E+04  0.7818608E-02  0.9203035E-01
          2   -1    0    0  501    0  0.00000000000E+00  0.00000000000E+00  0.71914004306E+03  0.71914004306E+03  0.00000000000E+00 0. -1.
         -2   -1    0    0    0  501 -0.00000000000E+00 -0.00000000000E+00 -0.42233721037E+03  0.42233721037E+03  0.00000000000E+00 0.  1.
         23    2    1    2    0    0 -0.47774314440E+03 -0.16190897048E+03 -0.70484270068E+02  0.51749580931E+03  0.91547002036E+02 0.  0.
         13    1    3    3    0    0 -0.35927715239E+03 -0.16159004725E+03 -0.61163875809E+02  0.39866331071E+03  0.00000000000E+00 0.  1.
        -13    1    3    3    0    0 -0.11846599202E+03 -0.31892323380E+00 -0.93203942592E+01  0.11883249861E+03  0.00000000000E+00 0. -1.
         22    1    1    2    0    0  0.47774314440E+03  0.16190897048E+03  0.36728710275E+03  0.62398144411E+03  0.00000000000E+00 0. -1.
<mgrwt>
<rscale>  0 0.11022152E+04</rscale>
<asrwt>0</asrwt>
<pdfrwt beam="1">  1        2 0.11063693E+00 0.11022152E+04</pdfrwt>
<pdfrwt beam="2">  1       -2 0.64974955E-01 0.11022152E+04</pdfrwt>
<totfact> 0.85915577E+01</totfact>
</mgrwt>
</event>
<event>
 6    1  0.2047711E-005  0.2273894E+04  0.7818608E-02  0.8488286E-01
          1   -1    0    0  501    0  0.00000000000E+00  0.00000000000E+00  0.11640095057E+04  0.11640095057E+04  0.00000000000E+00 0. -1.
         -1   -1    0    0    0  501 -0.00000000000E+00 -0.00000000000E+00 -0.11105133432E+04  0.11105133432E+04  0.00000000000E+00 0.  1.
         23    2    1    2    0    0  0.48911944381E+02 -0.18996983955E+03 -0.10915282549E+04  0.11128164167E+04  0.91899552136E+02 0.  0.
         13    1    3    3    0    0  0.14569380417E+02 -0.14911142240E+03 -0.94637957749E+03  0.95816532385E+03  0.00000000000E+00 0. -1.
        -13    1    3    3    0    0  0.34342563964E+02 -0.40858417154E+02 -0.14514867744E+03  0.15465109284E+03  0.00000000000E+00 0.  1.
         22    1    1    2    0    0 -0.48911944381E+02  0.18996983955E+03  0.11450244175E+04  0.11617064323E+04  0.00000000000E+00 0. -1.
<mgrwt>
<rscale>  0 0.22738937E+04</rscale>
<asrwt>0</asrwt>
<pdfrwt beam="1">  1        1 0.17907839E+00 0.22738937E+04</pdfrwt>
<pdfrwt beam="2">  1       -1 0.17084821E+00 0.22738937E+04</pdfrwt>
<totfact> 0.24958231E+00</totfact>
</mgrwt>
</event>
<event>
 6    1  0.2047711E-005  0.1202659E+04  0.7818608E-02  0.9110532E-01
          2   -1    0    0  501    0  0.00000000000E+00  0.00000000000E+00  0.27482966006E+03  0.27482966006E+03  0.00000000000E+00 0. -1.
         -2   -1    0    0    0  501 -0.00000000000E+00 -0.00000000000E+00 -0.13157141789E+04  0.13157141789E+04  0.00000000000E+00 0.  1.
         23    2    1    2    0    0 -0.38519791076E+02  0.58693313709E+03 -0.38153932039E+03  0.70696567467E+03  0.90851144358E+02 0.  0.
         11    1    3    3    0    0  0.21624792245E+02  0.32603287592E+03 -0.19287071410E+03  0.37942611953E+03  0.00000000000E+00 0.  1.
        -11    1    3    3    0    0 -0.60144583321E+02  0.26090026117E+03 -0.18866860629E+03  0.32753955514E+03  0.00000000000E+00 0. -1.
         22    1    1    2    0    0  0.38519791076E+02 -0.58693313709E+03 -0.65934519849E+03  0.88357816434E+03  0.00000000000E+00 0.  1.
<mgrwt>
<rscale>  0 0.12026592E+04</rscale>
<asrwt>0</asrwt>
<pdfrwt beam="1">  1        2 0.42281487E-01 0.12026592E+04</pdfrwt>
<pdfrwt beam="2">  1       -2 0.20241756E+00 0.12026592E+04</pdfrwt>
<totfact> 0.15309975E+01</totfact>
</mgrwt>
</event>
<event>
 6    1  0.2047711E-005  0.2970647E+04  0.7818608E-02  0.8252163E-01
          2   -1    0    0  501    0  0.00000000000E+00  0.00000000000E+00  0.14906454275E+04  0.14906454275E+04  0.00000000000E+00 0. -1.
         -2   -1    0    0    0  501 -0.00000000000E+00 -0.00000000000E+00 -0.14800200866E+04  0.14800200866E+04  0.00000000000E+00 0.  1.
         23    2    1    2    0    0 -0.63784941876E+03 -0.49563605598E+03 -0.12395878205E+04  0.14821965255E+04  0.88439779798E+02 0.  0.
         11    1    3    3    0    0 -0.25119464754E+03 -0.16473388870E+03 -0.39695917300E+03  0.49780778426E+03  0.00000000000E+00 0. -1.
        -11    1    3    3    0    0 -0.38665477123E+03 -0.33090216728E+03 -0.84262864745E+03  0.98438874126E+03  0.00000000000E+00 0.  1.
         22    1    1    2    0    0  0.63784941876E+03  0.49563605598E+03  0.12502131613E+04  0.14884689885E+04  0.00000000000E+00 0. -1.
<mgrwt>
<rscale>  0 0.29706465E+04</rscale>
<asrwt>0</asrwt>
<pdfrwt beam="1">  1        2 0.22933007E+00 0.29706465E+04</pdfrwt>
<pdfrwt beam="2">  1       -2 0.22769540E+00 0.29706465E+04</pdfrwt>
<totfact> 0.97463330E-01</totfact>
</mgrwt>
</event>
<event>
 6    1  0.2047711E-005  0.1663108E+04  0.7818608E-02  0.8782689E-01
          2   -1    0    0  501    0  0.00000000000E+00  0.00000000000E+00  0.81518520315E+03  0.81518520315E+03  0.00000000000E+00 0. -1.
         -2   -1    0    0    0  501 -0.00000000000E+00 -0.00000000000E+00 -0.84825181926E+03  0.84825181926E+03  0.00000000000E+00 0.  1.
         23    2    1    2    0    0 -0.68183316279E+03 -0.26424715625E+03 -0.40696200620E+03  0.84214487937E+03  0.94164228282E+02 0.  0.
         11    1    3    3    0    0 -0.42870487191E+03 -0.11705925326E+03 -0.25120371077E+03  0.51048412343E+03  0.00000000000E+00 0.  1.
        -11    1    3    3    0    0 -0.25312829088E+03 -0.14718790300E+03 -0.15575829543E+03  0.33166075594E+03  0.00000000000E+00 0. -1.
         22    1    1    2    0    0  0.68183316279E+03  0.26424715625E+03  0.37389539009E+03  0.82129214303E+03  0.00000000000E+00 0. -1.
<mgrwt>
<rscale>  0 0.16631083E+04</rscale>
<asrwt>0</asrwt>
<pdfrwt beam="1">  1        2 0.12541311E+00 0.16631083E+04</pdfrwt>
<pdfrwt beam="2">  1       -2 0.13050028E+00 0.16631083E+04</pdfrwt>
<totfact> 0.13783977E+01</totfact>
</mgrwt>
</event>
<event>
 6    1  0.2047711E-005  0.2490415E+04  0.7818608E-02  0.8406408E-01
         -2   -1    0    0    0  501 -0.00000000000E+00  0.00000000000E+00  0.67782198148E+03  0.67782198148E+03  0.00000000000E+00 0.  1.
          2   -1    0    0  501    0  0.00000000000E+00 -0.00000000000E+00 -0.22875347691E+04  0.22875347691E+04  0.00000000000E+00 0. -1.
         23    2    1    2    0    0  0.98470619995E+01 -0.86241474062E+03  0.26071607924E+03  0.90565767172E+03  0.91579445871E+02 0.  0.
         11    1    3    3    0    0  0.42849576437E+02 -0.45553549646E+03  0.11067708730E+03  0.47074206567E+03  0.00000000000E+00 0.  1.
        -11    1    3    3    0    0 -0.33002514437E+02 -0.40687924415E+03  0.15003899194E+03  0.43491560605E+03  0.00000000000E+00 0. -1.
         22    1    1    2    0    0 -0.98470619995E+01  0.86241474062E+03 -0.18704288669E+04  0.20596990789E+04  0.00000000000E+00 0. -1.
<mgrwt>
<rscale>  0 0.24904147E+04</rscale>
<asrwt>0</asrwt>
<pdfrwt beam="1">  1        2 0.35192843E+00 0.24904147E+04</pdfrwt>
<pdfrwt beam="2">  1       -2 0.10428030E+00 0.24904147E+04</pdfrwt>
<totfact> 0.30733180E+00</totfact>
</mgrwt>
</event>
<event>
 6    1  0.2047711E-005  0.2114059E+04  0.7818608E-02  0.8555076E-01
         -2   -1    0    0    0  501 -0.00000000000E+00  0.00000000000E+00  0.98976294395E+03  0.98976294395E+03  0.00000000000E+00 0.  1.
          2   -1    0    0  501    0  0.00000000000E+00 -0.00000000000E+00 -0.11288674859E+04  0.11288674859E+04  0.00000000000E+00 0. -1.
         23    2    1    2    0    0  0.86862465913E+03  0.42200791192E+03 -0.49549943772E+03  0.10892535320E+04  0.91400700773E+02 0.  0.
         11    1    3    3    0    0  0.63254423344E+03  0.35135933864E+03 -0.37298219881E+03  0.81405240172E+03  0.00000000000E+00 0.  1.
        -11    1    3    3    0    0  0.23608042568E+03  0.70648573275E+02 -0.12251723892E+03  0.27520113032E+03  0.00000000000E+00 0. -1.
         22    1    1    2    0    0 -0.86862465913E+03 -0.42200791192E+03  0.35639489573E+03  0.10293768979E+04  0.00000000000E+00 0.  1.
<mgrwt>
<rscale>  0 0.21140589E+04</rscale>
<asrwt>0</asrwt>
<pdfrwt beam="1">  1        2 0.17367192E+00 0.21140589E+04</pdfrwt>
<pdfrwt beam="2">  1       -2 0.15227122E+00 0.21140589E+04</pdfrwt>
<totfact> 0.55420075E+00</totfact>
</mgrwt>
</event>
<event>
 6    1  0.2047711E-005  0.3905329E+04  0.7818608E-02  0.8023922E-01
          2   -1    0    0  501    0  0.00000000000E+00  0.00000000000E+00  0.98823589877E+03  0.98823589877E+03  0.00000000000E+00 0. -1.
         -2   -1    0    0    0  501 -0.00000000000E+00 -0.00000000000E+00 -0.38582885876E+04  0.38582885876E+04  0.00000000000E+00 0.  1.
         23    2    1    2    0    0  0.63548902972E+03 -0.17396289859E+04 -0.67229130003E+03  0.19724489067E+04  0.91781163932E+02 0.  0.
         13    1    3    3    0    0  0.34381199075E+03 -0.10422342691E+04 -0.36734775192E+03  0.11573259383E+04  0.00000000000E+00 0. -1.
        -13    1    3    3    0    0  0.29167703897E+03 -0.69739471684E+03 -0.30494354811E+03  0.81512296844E+03  0.00000000000E+00 0.  1.
         22    1    1    2    0    0 -0.63548902972E+03  0.17396289859E+04 -0.21977613888E+04  0.28740755797E+04  0.00000000000E+00 0. -1.
<mgrwt>
<rscale>  0 0.39053293E+04</rscale>
<asrwt>0</asrwt>
<pdfrwt beam="1">  1        2 0.15203629E+00 0.39053293E+04</pdfrwt>
<pdfrwt beam="2">  1       -2 0.59358286E+00 0.39053293E+04</pdfrwt>
<totfact> 0.10951269E-02</totfact>
</mgrwt>
</event>
<event>
 6    1  0.2047711E-005  0.1971732E+04  0.7818608E-02  0.8619952E-01
         -2   -1    0    0    0  501 -0.00000000000E+00  0.00000000000E+00  0.46805871731E+03  0.46805871731E+03  0.00000000000E+00 0. -1.
          2   -1    0    0  501    0  0.00000000000E+00 -0.00000000000E+00 -0.20765163902E+04  0.20765163902E+04  0.00000000000E+00 0.  1.
         23    2    1    2    0    0  0.69477296426E+03 -0.67474775074E+03 -0.10290614940E+04  0.14159946137E+04  0.89884306180E+02 0.  0.
         11    1    3    3    0    0  0.19720047295E+03 -0.13969625320E+03 -0.23978178962E+03  0.34043850594E+03  0.00000000000E+00 0. -1.
        -11    1    3    3    0    0  0.49757249131E+03 -0.53505149753E+03 -0.78927970440E+03  0.10755561077E+04  0.00000000000E+00 0.  1.
         22    1    1    2    0    0 -0.69477296426E+03  0.67474775074E+03 -0.57939617889E+03  0.11285804939E+04  0.00000000000E+00 0.  1.
<mgrwt>
<rscale>  0 0.19717318E+04</rscale>
<asrwt>0</asrwt>
<pdfrwt beam="1">  1        2 0.31946407E+00 0.19717318E+04</pdfrwt>
<pdfrwt beam="2">  1       -2 0.72009032E-01 0.19717318E+04</pdfrwt>
<totfact> 0.98518574E+00</totfact>
</mgrwt>
</event>
<event>
 6    1  0.2047711E-005  0.1505652E+04  0.7818608E-02  0.8880703E-01
          2   -1    0    0  501    0  0.00000000000E+00  0.00000000000E+00  0.24278844924E+04  0.24278844924E+04  0.00000000000E+00 0. -1.
         -2   -1    0    0    0  501 -0.00000000000E+00 -0.00000000000E+00 -0.23343252595E+03  0.23343252595E+03  0.00000000000E+00 0.  1.
         23    2    1    2    0    0 -0.46862813667E+03 -0.43112324853E+03  0.18022334614E+04  0.19134434049E+04  0.87980842743E+02 0.  0.
         13    1    3    3    0    0 -0.15217514332E+03 -0.95146384935E+02  0.57121621646E+03  0.59874708747E+03  0.00000000000E+00 0. -1.
        -13    1    3    3    0    0 -0.31645299335E+03 -0.33597686359E+03  0.12310172449E+04  0.13146963175E+04  0.00000000000E+00 0.  1.
         22    1    1    2    0    0  0.46862813667E+03  0.43112324853E+03  0.39221850506E+03  0.74787361339E+03  0.00000000000E+00 0.  1.
<mgrwt>
<rscale>  0 0.15056523E+04</rscale>
<asrwt>0</asrwt>
<pdfrwt beam="1">  1        2 0.37352067E+00 0.15056523E+04</pdfrwt>
<pdfrwt beam="2">  1       -2 0.35912698E-01 0.15056523E+04</pdfrwt>
<totfact> 0.27042987E+01</totfact>
</mgrwt>
</event>
<event>
 6    1  0.2047711E-005  0.1862983E+04  0.7818608E-02  0.8673505E-01
         -2   -1    0    0    0  501 -0.00000000000E+00  0.00000000000E+00  0.34290901244E+03  0.34290901244E+03  0.00000000000E+00 0.  1.
          2   -1    0    0  501    0  0.00000000000E+00 -0.00000000000E+00 -0.25303405238E+04  0.25303405238E+04  0.00000000000E+00 0. -1.
         23    2    1    2    0    0  0.71464640276E+03  0.31261131990E+03 -0.31397548929E+03  0.84389427288E+03  0.71635309796E+02 0.  0.
         11    1    3    3    0    0  0.53948278156E+03  0.20166640786E+03 -0.22788051906E+03  0.61938723157E+03  0.00000000000E+00 0.  1.
        -11    1    3    3    0    0  0.17516362120E+03  0.11094491203E+03 -0.86094970234E+02  0.22450704131E+03  0.00000000000E+00 0. -1.
         22    1    1    2    0    0 -0.71464640276E+03 -0.31261131990E+03 -0.18734560221E+04  0.20293552634E+04  0.00000000000E+00 0. -1.
<mgrwt>
<rscale>  0 0.18629832E+04</rscale>
<asrwt>0</asrwt>
<pdfrwt beam="1">  1        2 0.38928316E+00 0.18629832E+04</pdfrwt>
<pdfrwt beam="2">  1       -2 0.52755232E-01 0.18629832E+04</pdfrwt>
<totfact> 0.10653533E+01</totfact>
</mgrwt>
</event>
<event>
 6    1  0.2865722E-005  0.2508001E+04  0.7818608E-02  0.8400141E-01
         -2   -1    0    0    0  501 -0.00000000000E+00  0.00000000000E+00  0.13488181171E+04  0.13488181171E+04  0.00000000000E+00 0.  1.
          2   -1    0    0  501    0  0.00000000000E+00 -0.00000000000E+00 -0.11658482693E+04  0.11658482693E+04  0.00000000000E+00 0. -1.
         23    2    1    2    0    0  0.24088326061E+03  0.11126161202E+04  0.61501125774E+03  0.12970461024E+04  0.90279390640E+02 0.  0.
         11    1    3    3    0    0  0.33372210115E+02  0.33549532302E+03  0.16482392414E+03  0.37528354899E+03  0.00000000000E+00 0. -1.
        -11    1    3    3    0    0  0.20751105050E+03  0.77712079718E+03  0.45018733360E+03  0.92176255338E+03  0.00000000000E+00 0.  1.
         22    1    1    2    0    0 -0.24088326061E+03 -0.11126161202E+04 -0.43204140997E+03  0.12176202840E+04  0.00000000000E+00 0. -1.
<mgrwt>
<rscale>  0 0.25080010E+04</rscale>
<asrwt>0</asrwt>
<pdfrwt beam="1">  1        2 0.17936127E+00 0.25080010E+04</pdfrwt>
<pdfrwt beam="2">  1       -2 0.20751048E+00 0.25080010E+04</pdfrwt>
<totfact> 0.21029832E+00</totfact>
</mgrwt>
</event>
<event>
 6    1  0.2047711E-005  0.3469380E+04  0.7818608E-02  0.8121085E-01
         -2   -1    0    0    0  501 -0.00000000000E+00  0.00000000000E+00  0.15522993897E+04  0.15522993897E+04  0.00000000000E+00 0.  1.
          2   -1    0    0  501    0  0.00000000000E+00 -0.00000000000E+00 -0.19385113470E+04  0.19385113470E+04  0.00000000000E+00 0. -1.
         23    2    1    2    0    0 -0.15341192460E+04  0.71686818108E+03  0.18015504923E+03  0.17052594392E+04  0.89621778793E+02 0.  0.
         13    1    3    3    0    0 -0.59861843985E+03  0.25191380133E+03  0.10485653545E+03  0.65787498270E+03  0.00000000000E+00 0. -1.
        -13    1    3    3    0    0 -0.93550080616E+03  0.46495437976E+03  0.75298513781E+02  0.10473844565E+04  0.00000000000E+00 0.  1.
         22    1    1    2    0    0  0.15341192460E+04 -0.71686818108E+03 -0.56636700649E+03  0.17855512975E+04  0.00000000000E+00 0.  1.
<mgrwt>
<rscale>  0 0.34693803E+04</rscale>
<asrwt>0</asrwt>
<pdfrwt beam="1">  1        2 0.29823252E+00 0.34693803E+04</pdfrwt>
<pdfrwt beam="2">  1       -2 0.23881529E+00 0.34693803E+04</pdfrwt>
<totfact> 0.44864264E-01</totfact>
</mgrwt>
</event>
<event>
 6    1  0.2047711E-005  0.5478500E+04  0.7818608E-02  0.7758654E-01
          2   -1    0    0  501    0  0.00000000000E+00  0.00000000000E+00  0.22067617675E+04  0.22067617675E+04  0.00000000000E+00 0. -1.
         -2   -1    0    0    0  501 -0.00000000000E+00 -0.00000000000E+00 -0.34002269375E+04  0.34002269375E+04  0.00000000000E+00 0.  1.
         23    2    1    2    0    0  0.37771182050E+03 -0.26224702738E+04 -0.13035933530E+04  0.29551695609E+04  0.11685438648E+03 0.  0.
         13    1    3    3    0    0  0.15004069167E+03 -0.12983322009E+04 -0.59205017467E+03  0.14348178011E+04  0.00000000000E+00 0. -1.
        -13    1    3    3    0    0  0.22767112883E+03 -0.13241380729E+04 -0.71154317836E+03  0.15203517598E+04  0.00000000000E+00 0.  1.
         22    1    1    2    0    0 -0.37771182050E+03  0.26224702738E+04  0.11012818309E+03  0.26518191441E+04  0.00000000000E+00 0. -1.
<mgrwt>
<rscale>  0 0.54785001E+04</rscale>
<asrwt>0</asrwt>
<pdfrwt beam="1">  1        2 0.33950181E+00 0.54785001E+04</pdfrwt>
<pdfrwt beam="2">  1       -2 0.52311184E+00 0.54785001E+04</pdfrwt>
<totfact> 0.43510750E-03</totfact>
</mgrwt>
</event>
<event>
 6    1  0.2047711E-005  0.8476118E+03  0.7818608E-02  0.9493548E-01
          2   -1    0    0  501    0  0.00000000000E+00  0.00000000000E+00  0.52922703228E+03  0.52922703228E+03  0.00000000000E+00 0. -1.
         -2   -1    0    0    0  501 -0.00000000000E+00 -0.00000000000E+00 -0.33938447988E+03  0.33938447988E+03  0.00000000000E+00 0.  1.
         23    2    1    2    0    0  0.17883744868E+03 -0.47748084152E+02  0.48194734095E+03  0.52279664827E+03  0.82343083486E+02 0.  0.
         11    1    3    3    0    0  0.11791476498E+03 -0.70702376774E+02  0.32669005674E+03  0.35444197135E+03  0.00000000000E+00 0.  1.
        -11    1    3    3    0    0  0.60922683696E+02  0.22954292621E+02  0.15525728421E+03  0.16835467691E+03  0.00000000000E+00 0. -1.
         22    1    1    2    0    0 -0.17883744868E+03  0.47748084152E+02 -0.29210478855E+03  0.34581486389E+03  0.00000000000E+00 0.  1.
<mgrwt>
<rscale>  0 0.84761180E+03</rscale>
<asrwt>0</asrwt>
<pdfrwt beam="1">  1        2 0.81419543E-01 0.84761180E+03</pdfrwt>
<pdfrwt beam="2">  1       -2 0.52212997E-01 0.84761180E+03</pdfrwt>
<totfact> 0.20061664E+02</totfact>
</mgrwt>
</event>
<event>
 6    1  0.2047711E-005  0.8746830E+03  0.7818608E-02  0.9457794E-01
          2   -1    0    0  501    0  0.00000000000E+00  0.00000000000E+00  0.16560794658E+04  0.16560794658E+04  0.00000000000E+00 0.  1.
         -2   -1    0    0    0  501 -0.00000000000E+00 -0.00000000000E+00 -0.11549422052E+03  0.11549422052E+03  0.00000000000E+00 0. -1.
         23    2    1    2    0    0  0.40051167374E+03 -0.16228182241E+03  0.82541820616E+03  0.93598474160E+03  0.89483131143E+02 0.  0.
         11    1    3    3    0    0  0.10207949180E+01 -0.66045831249E+01  0.45465760184E+02  0.45954302189E+02  0.00000000000E+00 0. -1.
        -11    1    3    3    0    0  0.39949087882E+03 -0.15567723928E+03  0.77995244597E+03  0.89003043941E+03  0.00000000000E+00 0.  1.
         22    1    1    2    0    0 -0.40051167374E+03  0.16228182241E+03  0.71516703913E+03  0.83558894472E+03  0.00000000000E+00 0. -1.
<mgrwt>
<rscale>  0 0.87468304E+03</rscale>
<asrwt>0</asrwt>
<pdfrwt beam="1">  1        2 0.25478144E+00 0.87468304E+03</pdfrwt>
<pdfrwt beam="2">  1       -2 0.17768343E-01 0.87468304E+03</pdfrwt>
<totfact> 0.27417164E+02</totfact>
</mgrwt>
</event>
<event>
 6    1  0.2047711E-005  0.1583511E+04  0.7818608E-02  0.8830743E-01
          2   -1    0    0  501    0  0.00000000000E+00  0.00000000000E+00  0.21179906864E+04  0.21179906864E+04  0.00000000000E+00 0. -1.
         -2   -1    0    0    0  501 -0.00000000000E+00 -0.00000000000E+00 -0.29597694326E+03  0.29597694326E+03  0.00000000000E+00 0.  1.
         23    2    1    2    0    0 -0.88489638973E+02  0.76281369787E+03  0.63712336001E+03  0.10019901603E+04  0.91339759486E+02 0.  0.
         13    1    3    3    0    0 -0.81805480618E+02  0.68720262352E+03  0.53494841968E+03  0.87470531847E+03  0.00000000000E+00 0. -1.
        -13    1    3    3    0    0 -0.66841583550E+01  0.75611074352E+02  0.10217494033E+03  0.12728484187E+03  0.00000000000E+00 0.  1.
         22    1    1    2    0    0  0.88489638973E+02 -0.76281369787E+03  0.11848903831E+04  0.14119774693E+04  0.00000000000E+00 0. -1.
<mgrwt>
<rscale>  0 0.15835105E+04</rscale>
<asrwt>0</asrwt>
<pdfrwt beam="1">  1        2 0.32584471E+00 0.15835105E+04</pdfrwt>
<pdfrwt beam="2">  1       -2 0.45534916E-01 0.15835105E+04</pdfrwt>
<totfact> 0.25224793E+01</totfact>
</mgrwt>
</event>
<event>
 6    1  0.2047711E-005  0.3104326E+04  0.7818608E-02  0.8214552E-01
         -1   -1    0    0    0  501 -0.00000000000E+00  0.00000000000E+00  0.13391391766E+04  0.13391391766E+04  0.00000000000E+00 0. -1.
          1   -1    0    0  501    0  0.00000000000E+00 -0.00000000000E+00 -0.17990740515E+04  0.17990740515E+04  0.00000000000E+00 0.  1.
         23    2    1    2    0    0 -0.60918361227E+03 -0.18438526276E+03  0.11994170750E+04  0.13609818159E+04  0.92561248570E+02 0.  0.
         13    1    3    3    0    0 -0.29380970807E+03 -0.60095493949E+02  0.64189302550E+03  0.70849295630E+03  0.00000000000E+00 0. -1.
        -13    1    3    3    0    0 -0.31537390419E+03 -0.12428976882E+03  0.55752404952E+03  0.65248885957E+03  0.00000000000E+00 0.  1.
         22    1    1    2    0    0  0.60918361227E+03  0.18438526276E+03 -0.16593519499E+04  0.17772314121E+04  0.00000000000E+00 0.  1.
<mgrwt>
<rscale>  0 0.31043264E+04</rscale>
<asrwt>0</asrwt>
<pdfrwt beam="1">  1        1 0.27678062E+00 0.31043264E+04</pdfrwt>
<pdfrwt beam="2">  1       -1 0.20602141E+00 0.31043264E+04</pdfrwt>
<totfact> 0.47094224E-01</totfact>
</mgrwt>
</event>
<event>
 6    1  0.2047711E-005  0.3224662E+04  0.7818608E-02  0.8182334E-01
         -2   -1    0    0    0  501 -0.00000000000E+00  0.00000000000E+00  0.12490100107E+04  0.12490100107E+04  0.00000000000E+00 0.  1.
          2   -1    0    0  501    0  0.00000000000E+00 -0.00000000000E+00 -0.20813373303E+04  0.20813373303E+04  0.00000000000E+00 0. -1.
         23    2    1    2    0    0  0.35344197014E+02  0.75275136314E+03 -0.18870625792E+04  0.20340640792E+04  0.92345401665E+02 0.  0.
         11    1    3    3    0    0 -0.18700802743E+02  0.23199258157E+03 -0.66578240708E+03  0.70529177757E+03  0.00000000000E+00 0. -1.
        -11    1    3    3    0    0  0.54044999757E+02  0.52075878157E+03 -0.12212801722E+04  0.13287723016E+04  0.00000000000E+00 0.  1.
         22    1    1    2    0    0 -0.35344197014E+02 -0.75275136314E+03  0.10547352597E+04  0.12962832619E+04  0.00000000000E+00 0.  1.
<mgrwt>
<rscale>  0 0.32246619E+04</rscale>
<asrwt>0</asrwt>
<pdfrwt beam="1">  1        2 0.32020574E+00 0.32246619E+04</pdfrwt>
<pdfrwt beam="2">  1       -2 0.19215539E+00 0.32246619E+04</pdfrwt>
<totfact> 0.75836952E-01</totfact>
</mgrwt>
</event>
<event>
 6    1  0.2047711E-005  0.5227308E+03  0.7818608E-02  0.1008010E+00
         -1   -1    0    0    0  501 -0.00000000000E+00  0.00000000000E+00  0.39989323744E+02  0.39989323744E+02  0.00000000000E+00 0.  1.
          1   -1    0    0  501    0  0.00000000000E+00 -0.00000000000E+00 -0.17082529053E+04  0.17082529053E+04  0.00000000000E+00 0. -1.
         23    2    1    2    0    0  0.42695367413E+02  0.23101990731E+03 -0.11769690052E+04  0.12036658316E+04  0.91445627645E+02 0.  0.
         11    1    3    3    0    0  0.65013935576E+02  0.20986591829E+03 -0.10721321774E+04  0.10944121350E+04  0.00000000000E+00 0. -1.
        -11    1    3    3    0    0 -0.22318568164E+02  0.21153989023E+02 -0.10483682789E+03  0.10925369659E+03  0.00000000000E+00 0.  1.
         22    1    1    2    0    0 -0.42695367413E+02 -0.23101990731E+03 -0.49129457635E+03  0.54457639751E+03  0.00000000000E+00 0.  1.
<mgrwt>
<rscale>  0 0.52273082E+03</rscale>
<asrwt>0</asrwt>
<pdfrwt beam="1">  1        1 0.26280821E+00 0.52273082E+03</pdfrwt>
<pdfrwt beam="2">  1       -1 0.61522021E-02 0.52273082E+03</pdfrwt>
<totfact> 0.65757991E+02</totfact>
</mgrwt>
</event>
<event>
 6    1  0.2047711E-005  0.3806025E+04  0.7818608E-02  0.8044863E-01
          2   -1    0    0  501    0  0.00000000000E+00  0.00000000000E+00  0.24098584277E+04  0.24098584277E+04  0.00000000000E+00 0. -1.
         -2   -1    0    0    0  501 -0.00000000000E+00 -0.00000000000E+00 -0.15027676253E+04  0.15027676253E+04  0.00000000000E+00 0.  1.
         23    2    1    2    0    0 -0.14006981301E+04 -0.10034316089E+04  0.12816594978E+04  0.21493529735E+04  0.90757318706E+02 0.  0.
         13    1    3    3    0    0 -0.83797939561E+03 -0.56276070085E+03  0.70949821243E+03  0.12338139192E+04  0.00000000000E+00 0.  1.
        -13    1    3    3    0    0 -0.56271873452E+03 -0.44067090807E+03  0.57216128539E+03  0.91553905427E+03  0.00000000000E+00 0. -1.
         22    1    1    2    0    0  0.14006981301E+04  0.10034316089E+04 -0.37456869541E+03  0.17632730796E+04  0.00000000000E+00 0.  1.
<mgrwt>
<rscale>  0 0.38060253E+04</rscale>
<asrwt>0</asrwt>
<pdfrwt beam="1">  1        2 0.37074745E+00 0.38060253E+04</pdfrwt>
<pdfrwt beam="2">  1       -2 0.23119502E+00 0.38060253E+04</pdfrwt>
<totfact> 0.26428982E-01</totfact>
</mgrwt>
</event>
<event>
 6    1  0.3874150E-005  0.4355165E+04  0.7818608E-02  0.7936496E-01
         -1   -1    0    0    0  501 -0.00000000000E+00  0.00000000000E+00  0.15097122958E+04  0.15097122958E+04  0.00000000000E+00 0.  1.
          1   -1    0    0  501    0  0.00000000000E+00 -0.00000000000E+00 -0.31409067377E+04  0.31409067377E+04  0.00000000000E+00 0. -1.
         23    2    1    2    0    0  0.22457224512E+03 -0.11153282693E+04 -0.27977169945E+04  0.30211514188E+04  0.75800212776E+02 0.  0.
         11    1    3    3    0    0  0.11692409012E+03 -0.47843103555E+03 -0.12948455714E+04  0.13853492528E+04  0.00000000000E+00 0.  1.
        -11    1    3    3    0    0  0.10764815500E+03 -0.63689723374E+03 -0.15028714232E+04  0.16358021660E+04  0.00000000000E+00 0. -1.
         22    1    1    2    0    0 -0.22457224512E+03  0.11153282693E+04  0.11665225526E+04  0.16294676147E+04  0.00000000000E+00 0.  1.
<mgrwt>
<rscale>  0 0.43551650E+04</rscale>
<asrwt>0</asrwt>
<pdfrwt beam="1">  1        1 0.48321641E+00 0.43551650E+04</pdfrwt>
<pdfrwt beam="2">  1       -1 0.23226343E+00 0.43551650E+04</pdfrwt>
<totfact> 0.32608118E-02</totfact>
</mgrwt>
</event>
<event>
 6    1  0.2047711E-005  0.2657057E+04  0.7818608E-02  0.8349074E-01
         -2   -1    0    0    0  501 -0.00000000000E+00  0.00000000000E+00  0.72043749919E+03  0.72043749919E+03  0.00000000000E+00 0.  1.
          2   -1    0    0  501    0  0.00000000000E+00 -0.00000000000E+00 -0.24498835628E+04  0.24498835628E+04  0.00000000000E+00 0. -1.
         23    2    1    2    0    0  0.74794756895E+03  0.10816559896E+04 -0.10775924809E+04  0.17025614294E+04  0.90025665357E+02 0.  0.
         13    1    3    3    0    0  0.59640389675E+03  0.82490023072E+03 -0.87264053133E+03  0.13407682483E+04  0.00000000000E+00 0. -1.
        -13    1    3    3    0    0  0.15154367220E+03  0.25675575885E+03 -0.20495194953E+03  0.36179318112E+03  0.00000000000E+00 0.  1.
         22    1    1    2    0    0 -0.74794756895E+03 -0.10816559896E+04 -0.65185358274E+03  0.14677596326E+04  0.00000000000E+00 0.  1.
<mgrwt>
<rscale>  0 0.26570570E+04</rscale>
<asrwt>0</asrwt>
<pdfrwt beam="1">  1        2 0.37690516E+00 0.26570570E+04</pdfrwt>
<pdfrwt beam="2">  1       -2 0.11083654E+00 0.26570570E+04</pdfrwt>
<totfact> 0.21129442E+00</totfact>
</mgrwt>
</event>
<event>
 6    1  0.2047711E-005  0.2348757E+04  0.7818608E-02  0.8458941E-01
         -2   -1    0    0    0  501 -0.00000000000E+00  0.00000000000E+00  0.84620524770E+03  0.84620524770E+03  0.00000000000E+00 0.  1.
          2   -1    0    0  501    0  0.00000000000E+00 -0.00000000000E+00 -0.16298230179E+04  0.16298230179E+04  0.00000000000E+00 0. -1.
         23    2    1    2    0    0  0.22108736219E+02  0.14504544397E+03 -0.16188432061E+04  0.16280138165E+04  0.90822265278E+02 0.  0.
         13    1    3    3    0    0  0.23641230257E+02  0.13483742657E+03 -0.10273378685E+04  0.10364184172E+04  0.00000000000E+00 0.  1.
        -13    1    3    3    0    0 -0.15324940388E+01  0.10208017395E+02 -0.59150533760E+03  0.59159539938E+03  0.00000000000E+00 0. -1.
         22    1    1    2    0    0 -0.22108736219E+02 -0.14504544397E+03  0.83522543591E+03  0.84801444906E+03  0.00000000000E+00 0.  1.
<mgrwt>
<rscale>  0 0.23487569E+04</rscale>
<asrwt>0</asrwt>
<pdfrwt beam="1">  1        2 0.25074200E+00 0.23487569E+04</pdfrwt>
<pdfrwt beam="2">  1       -2 0.13018542E+00 0.23487569E+04</pdfrwt>
<totfact> 0.41942001E+00</totfact>
</mgrwt>
</event>
<event>
 6    1  0.2047711E-005  0.3845543E+04  0.7818608E-02  0.8036451E-01
         -2   -1    0    0    0  501 -0.00000000000E+00  0.00000000000E+00  0.23677964309E+04  0.23677964309E+04  0.00000000000E+00 0.  1.
          2   -1    0    0  501    0  0.00000000000E+00 -0.00000000000E+00 -0.15613887220E+04  0.15613887220E+04  0.00000000000E+00 0. -1.
         23    2    1    2    0    0 -0.14114974386E+04  0.42138592695E+03  0.16644281209E+04  0.22244593257E+04  0.89482977878E+02 0.  0.
         11    1    3    3    0    0 -0.16393791465E+03  0.73265795874E+02  0.17687949779E+03  0.25205133097E+03  0.00000000000E+00 0.  1.
        -11    1    3    3    0    0 -0.12475595239E+04  0.34812013107E+03  0.14875486231E+04  0.19724079947E+04  0.00000000000E+00 0. -1.
         22    1    1    2    0    0  0.14114974386E+04 -0.42138592695E+03 -0.85802041203E+03  0.17047258272E+04  0.00000000000E+00 0. -1.
<mgrwt>
<rscale>  0 0.38455432E+04</rscale>
<asrwt>0</asrwt>
<pdfrwt beam="1">  1        2 0.24021365E+00 0.38455432E+04</pdfrwt>
<pdfrwt beam="2">  1       -2 0.36427637E+00 0.38455432E+04</pdfrwt>
<totfact> 0.11821715E-01</totfact>
</mgrwt>
</event>
<event>
 6    1  0.2047711E-005  0.4657415E+04  0.7818608E-02  0.7883643E-01
         -2   -1    0    0    0  501 -0.00000000000E+00  0.00000000000E+00  0.21070070968E+04  0.21070070968E+04  0.00000000000E+00 0.  1.
          2   -1    0    0  501    0  0.00000000000E+00 -0.00000000000E+00 -0.25737354886E+04  0.25737354886E+04  0.00000000000E+00 0. -1.
         23    2    1    2    0    0  0.30726497630E+03  0.17711024688E+03 -0.25456718770E+04  0.25717651507E+04  0.88039081279E+02 0.  0.
         11    1    3    3    0    0  0.13292338868E+03  0.27766852288E+02 -0.92292167163E+03  0.93285799418E+03  0.00000000000E+00 0.  1.
        -11    1    3    3    0    0  0.17434158762E+03  0.14934339459E+03 -0.16227502054E+04  0.16389071566E+04  0.00000000000E+00 0. -1.
         22    1    1    2    0    0 -0.30726497630E+03 -0.17711024688E+03  0.20789434852E+04  0.21089774346E+04  0.00000000000E+00 0.  1.
<mgrwt>
<rscale>  0 0.46574151E+04</rscale>
<asrwt>0</asrwt>
<pdfrwt beam="1">  1        2 0.39595930E+00 0.46574151E+04</pdfrwt>
<pdfrwt beam="2">  1       -2 0.32415494E+00 0.46574151E+04</pdfrwt>
<totfact> 0.53235602E-02</totfact>
</mgrwt>
</event>
<event>
 6    1  0.2047711E-005  0.1579504E+04  0.7818608E-02  0.8833240E-01
         -2   -1    0    0    0  501 -0.00000000000E+00  0.00000000000E+00  0.25986598658E+03  0.25986598658E+03  0.00000000000E+00 0.  1.
          2   -1    0    0  501    0  0.00000000000E+00 -0.00000000000E+00 -0.24001136944E+04  0.24001136944E+04  0.00000000000E+00 0. -1.
         23    2    1    2    0    0 -0.76406868337E+03 -0.18393116701E+03 -0.11484494233E+04  0.13945566433E+04  0.90667118548E+02 0.  0.
         13    1    3    3    0    0 -0.48249241328E+03 -0.13060544472E+03 -0.80096901579E+03  0.94414409669E+03  0.00000000000E+00 0.  1.
        -13    1    3    3    0    0 -0.28157627009E+03 -0.53325722295E+02 -0.34748040748E+03  0.45041254658E+03  0.00000000000E+00 0. -1.
         22    1    1    2    0    0  0.76406868337E+03  0.18393116701E+03 -0.99179828455E+03  0.12654230377E+04  0.00000000000E+00 0.  1.
<mgrwt>
<rscale>  0 0.15795036E+04</rscale>
<asrwt>0</asrwt>
<pdfrwt beam="1">  1        2 0.36924825E+00 0.15795036E+04</pdfrwt>
<pdfrwt beam="2">  1       -2 0.39979384E-01 0.15795036E+04</pdfrwt>
<totfact> 0.22639895E+01</totfact>
</mgrwt>
</event>
<event>
 6    1  0.2047711E-005  0.2282518E+04  0.7818608E-02  0.8484846E-01
          1   -1    0    0  501    0  0.00000000000E+00  0.00000000000E+00  0.20200784178E+04  0.20200784178E+04  0.00000000000E+00 0. -1.
         -1   -1    0    0    0  501 -0.00000000000E+00 -0.00000000000E+00 -0.64476308303E+03  0.64476308303E+03  0.00000000000E+00 0.  1.
         23    2    1    2    0    0  0.10789113704E+03  0.11088593453E+04  0.96771026839E+03  0.14785230633E+04  0.91420675660E+02 0.  0.
         11    1    3    3    0    0  0.36723037665E+02  0.75368527327E+03  0.62385908007E+03  0.97907620971E+03  0.00000000000E+00 0. -1.
        -11    1    3    3    0    0  0.71168099373E+02  0.35517407203E+03  0.34385118832E+03  0.49944685355E+03  0.00000000000E+00 0.  1.
         22    1    1    2    0    0 -0.10789113704E+03 -0.11088593453E+04  0.40760506634E+03  0.11863184375E+04  0.00000000000E+00 0.  1.
<mgrwt>
<rscale>  0 0.22825179E+04</rscale>
<asrwt>0</asrwt>
<pdfrwt beam="1">  1        1 0.31078129E+00 0.22825179E+04</pdfrwt>
<pdfrwt beam="2">  1       -1 0.99194321E-01 0.22825179E+04</pdfrwt>
<totfact> 0.25377611E+00</totfact>
</mgrwt>
</event>
<event>
 6    1  0.2295918E-005  0.4207251E+04  0.7818608E-02  0.7963994E-01
          2   -1    0    0  501    0  0.00000000000E+00  0.00000000000E+00  0.31783970285E+04  0.31783970285E+04  0.00000000000E+00 0. -1.
         -2   -1    0    0    0  501 -0.00000000000E+00 -0.00000000000E+00 -0.13922869636E+04  0.13922869636E+04  0.00000000000E+00 0.  1.
         23    2    1    2    0    0 -0.11673390681E+03  0.18959624929E+04  0.18729036976E+04  0.26691494239E+04  0.91048378769E+02 0.  0.
         11    1    3    3    0    0 -0.33987343681E+02  0.10394675008E+04  0.97707100193E+03  0.14269952934E+04  0.00000000000E+00 0.  1.
        -11    1    3    3    0    0 -0.82746563128E+02  0.85649499214E+03  0.89583269563E+03  0.12421541305E+04  0.00000000000E+00 0. -1.
         22    1    1    2    0    0  0.11673390681E+03 -0.18959624929E+04 -0.86793632688E+02  0.19015345682E+04  0.00000000000E+00 0. -1.
<mgrwt>
<rscale>  0 0.42072512E+04</rscale>
<asrwt>0</asrwt>
<pdfrwt beam="1">  1        2 0.48898416E+00 0.42072512E+04</pdfrwt>
<pdfrwt beam="2">  1       -2 0.21419800E+00 0.42072512E+04</pdfrwt>
<totfact> 0.11172670E-01</totfact>
</mgrwt>
</event>
<event>
 6    1  0.2047711E-005  0.5802185E+03  0.7818608E-02  0.9947318E-01
          2   -1    0    0  501    0  0.00000000000E+00  0.00000000000E+00  0.32096517662E+03  0.32096517662E+03  0.00000000000E+00 0. -1.
         -2   -1    0    0    0  501 -0.00000000000E+00 -0.00000000000E+00 -0.26221960969E+03  0.26221960969E+03  0.00000000000E+00 0.  1.
         23    2    1    2    0    0  0.18260094517E+03  0.32466837805E+02 -0.18502915259E+03  0.27687886961E+03  0.89604243178E+02 0.  0.
         13    1    3    3    0    0  0.63385621022E+02 -0.31276099296E+02 -0.67801892233E+02  0.97944004053E+02  0.00000000000E+00 0. -1.
        -13    1    3    3    0    0  0.11921532414E+03  0.63742937101E+02 -0.11722726035E+03  0.17893486555E+03  0.00000000000E+00 0.  1.
         22    1    1    2    0    0 -0.18260094517E+03 -0.32466837805E+02  0.24377471952E+03  0.30630591670E+03  0.00000000000E+00 0. -1.
<mgrwt>
<rscale>  0 0.58021845E+03</rscale>
<asrwt>0</asrwt>
<pdfrwt beam="1">  1        2 0.49379258E-01 0.58021845E+03</pdfrwt>
<pdfrwt beam="2">  1       -2 0.40341478E-01 0.58021845E+03</pdfrwt>
<totfact> 0.59640548E+02</totfact>
</mgrwt>
</event>
<event>
 6    1  0.2047711E-005  0.3090116E+04  0.7818608E-02  0.8218456E-01
          2   -1    0    0  501    0  0.00000000000E+00  0.00000000000E+00  0.44446842828E+04  0.44446842828E+04  0.00000000000E+00 0. -1.
         -2   -1    0    0    0  501 -0.00000000000E+00 -0.00000000000E+00 -0.53709211683E+03  0.53709211683E+03  0.00000000000E+00 0.  1.
         23    2    1    2    0    0 -0.12587561408E+04  0.41292220400E+03  0.32329689181E+04  0.34951398284E+04  0.94565457792E+02 0.  0.
         13    1    3    3    0    0 -0.72177701180E+03  0.27662775473E+03  0.18111484521E+04  0.19691987419E+04  0.00000000000E+00 0. -1.
        -13    1    3    3    0    0 -0.53697912895E+03  0.13629444928E+03  0.14218204660E+04  0.15259410865E+04  0.00000000000E+00 0.  1.
         22    1    1    2    0    0  0.12587561408E+04 -0.41292220400E+03  0.67462324781E+03  0.14866365712E+04  0.00000000000E+00 0.  1.
<mgrwt>
<rscale>  0 0.30901164E+04</rscale>
<asrwt>0</asrwt>
<pdfrwt beam="1">  1        2 0.68379756E+00 0.30901164E+04</pdfrwt>
<pdfrwt beam="2">  1       -2 0.82629559E-01 0.30901164E+04</pdfrwt>
<totfact> 0.15175704E-01</totfact>
</mgrwt>
</event>
<event>
 6    1  0.2047711E-005  0.3629169E+04  0.7818608E-02  0.8083843E-01
          1   -1    0    0  501    0  0.00000000000E+00  0.00000000000E+00  0.15515271964E+04  0.15515271964E+04  0.00000000000E+00 0. -1.
         -1   -1    0    0    0  501 -0.00000000000E+00 -0.00000000000E+00 -0.21222429155E+04  0.21222429155E+04  0.00000000000E+00 0.  1.
         23    2    1    2    0    0 -0.70534954283E+03 -0.15183705612E+04  0.41990927539E+03  0.17284410861E+04  0.90651254160E+02 0.  0.
         11    1    3    3    0    0 -0.67895001132E+02 -0.92358052518E+02  0.31095965926E+02  0.11877163020E+03  0.00000000000E+00 0. -1.
        -11    1    3    3    0    0 -0.63745454170E+03 -0.14260125087E+04  0.38881330946E+03  0.16096694559E+04  0.00000000000E+00 0.  1.
         22    1    1    2    0    0  0.70534954283E+03  0.15183705612E+04 -0.99062499446E+03  0.19453290257E+04  0.00000000000E+00 0.  1.
<mgrwt>
<rscale>  0 0.36291694E+04</rscale>
<asrwt>0</asrwt>
<pdfrwt beam="1">  1        1 0.23869649E+00 0.36291694E+04</pdfrwt>
<pdfrwt beam="2">  1       -1 0.32649891E+00 0.36291694E+04</pdfrwt>
<totfact> 0.10790867E-01</totfact>
</mgrwt>
</event>
<event>
 6    1  0.2047711E-005  0.2968737E+04  0.7818608E-02  0.8252715E-01
          2   -1    0    0  501    0  0.00000000000E+00  0.00000000000E+00  0.20459276082E+04  0.20459276082E+04  0.00000000000E+00 0.  1.
         -2   -1    0    0    0  501 -0.00000000000E+00 -0.00000000000E+00 -0.10769441979E+04  0.10769441979E+04  0.00000000000E+00 0. -1.
         23    2    1    2    0    0  0.17172301712E+03 -0.13625733704E+04  0.10737208366E+04  0.17455320103E+04  0.88941439863E+02 0.  0.
         11    1    3    3    0    0  0.66565185864E+01 -0.31935115983E+03  0.22766861883E+03  0.39225307204E+03  0.00000000000E+00 0. -1.
        -11    1    3    3    0    0  0.16506649853E+03 -0.10432222106E+04  0.84605221780E+03  0.13532789383E+04  0.00000000000E+00 0.  1.
         22    1    1    2    0    0 -0.17172301712E+03  0.13625733704E+04 -0.10473742633E+03  0.13773397957E+04  0.00000000000E+00 0. -1.
<mgrwt>
<rscale>  0 0.29687370E+04</rscale>
<asrwt>0</asrwt>
<pdfrwt beam="1">  1        2 0.31475809E+00 0.29687370E+04</pdfrwt>
<pdfrwt beam="2">  1       -2 0.16568372E+00 0.29687370E+04</pdfrwt>
<totfact> 0.12374340E+00</totfact>
</mgrwt>
</event>
<event>
 6    1  0.2047711E-005  0.6854837E+03  0.7818608E-02  0.9742384E-01
         -2   -1    0    0    0  501 -0.00000000000E+00  0.00000000000E+00  0.43475135200E+03  0.43475135200E+03  0.00000000000E+00 0.  1.
          2   -1    0    0  501    0  0.00000000000E+00 -0.00000000000E+00 -0.27020496060E+03  0.27020496060E+03  0.00000000000E+00 0. -1.
         23    2    1    2    0    0  0.32509965747E+03  0.72281949790E+02  0.47328477828E+02  0.35189186124E+03  0.10331229181E+03 0.  0.
         11    1    3    3    0    0  0.17041478186E+03  0.29791201551E+02 -0.27000412750E+02  0.17509350603E+03  0.00000000000E+00 0. -1.
        -11    1    3    3    0    0  0.15468487562E+03  0.42490748239E+02  0.74328890578E+02  0.17679835521E+03  0.00000000000E+00 0.  1.
         22    1    1    2    0    0 -0.32509965747E+03 -0.72281949790E+02  0.11721791357E+03  0.35306445136E+03  0.00000000000E+00 0.  1.
<mgrwt>
<rscale>  0 0.68548369E+03</rscale>
<asrwt>0</asrwt>
<pdfrwt beam="1">  1        2 0.41569994E-01 0.68548369E+03</pdfrwt>
<pdfrwt beam="2">  1       -2 0.66884824E-01 0.68548369E+03</pdfrwt>
<totfact> 0.25577249E+02</totfact>
</mgrwt>
</event>
<event>
 6    1  0.2047711E-005  0.3812012E+04  0.7818608E-02  0.8043582E-01
         -2   -1    0    0    0  501 -0.00000000000E+00  0.00000000000E+00  0.20435646907E+04  0.20435646907E+04  0.00000000000E+00 0.  1.
          2   -1    0    0  501    0  0.00000000000E+00 -0.00000000000E+00 -0.17777071320E+04  0.17777071320E+04  0.00000000000E+00 0. -1.
         23    2    1    2    0    0  0.74084659526E+03 -0.15293883533E+04 -0.72976023085E+03  0.18517192857E+04  0.91825409212E+02 0.  0.
         13    1    3    3    0    0  0.69634072147E+03 -0.13763450247E+04 -0.66226191974E+03  0.16786324427E+04  0.00000000000E+00 0. -1.
        -13    1    3    3    0    0  0.44505873785E+02 -0.15304332856E+03 -0.67498311104E+02  0.17308684300E+03  0.00000000000E+00 0.  1.
         22    1    1    2    0    0 -0.74084659526E+03  0.15293883533E+04  0.99561778957E+03  0.19695525369E+04  0.00000000000E+00 0.  1.
<mgrwt>
<rscale>  0 0.38120123E+04</rscale>
<asrwt>0</asrwt>
<pdfrwt beam="1">  1        2 0.27349341E+00 0.38120123E+04</pdfrwt>
<pdfrwt beam="2">  1       -2 0.31439457E+00 0.38120123E+04</pdfrwt>
<totfact> 0.18438222E-01</totfact>
</mgrwt>
</event>
<event>
 6    1  0.2047711E-005  0.1885064E+04  0.7818608E-02  0.8662327E-01
         -2   -1    0    0    0  501 -0.00000000000E+00  0.00000000000E+00  0.21219988021E+03  0.21219988021E+03  0.00000000000E+00 0.  1.
          2   -1    0    0  501    0  0.00000000000E+00 -0.00000000000E+00 -0.41864600773E+04  0.41864600773E+04  0.00000000000E+00 0. -1.
         23    2    1    2    0    0  0.18059886042E+03 -0.16163232009E+03 -0.41118333242E+04  0.41199713848E+04  0.90829345429E+02 0.  0.
         11    1    3    3    0    0  0.88411607682E+02 -0.55594862744E+02 -0.11257427190E+04  0.11305768751E+04  0.00000000000E+00 0.  1.
        -11    1    3    3    0    0  0.92187252739E+02 -0.10603745734E+03 -0.29860906052E+04  0.29893945097E+04  0.00000000000E+00 0. -1.
         22    1    1    2    0    0 -0.18059886042E+03  0.16163232009E+03  0.13757312711E+03  0.27868857275E+03  0.00000000000E+00 0.  1.
<mgrwt>
<rscale>  0 0.18850637E+04</rscale>
<asrwt>0</asrwt>
<pdfrwt beam="1">  1        2 0.64407075E+00 0.18850637E+04</pdfrwt>
<pdfrwt beam="2">  1       -2 0.32646137E-01 0.18850637E+04</pdfrwt>
<totfact> 0.19895288E+00</totfact>
</mgrwt>
</event>
<event>
 6    1  0.2047711E-005  0.2438223E+04  0.7818608E-02  0.8425331E-01
          1   -1    0    0  501    0  0.00000000000E+00  0.00000000000E+00  0.98160973083E+03  0.98160973083E+03  0.00000000000E+00 0. -1.
         -1   -1    0    0    0  501 -0.00000000000E+00 -0.00000000000E+00 -0.15140765531E+04  0.15140765531E+04  0.00000000000E+00 0.  1.
         23    2    1    2    0    0  0.10355643755E+04 -0.32529400140E+03 -0.83078298281E+03  0.13699854823E+04  0.91924393623E+02 0.  0.
         11    1    3    3    0    0  0.71528128754E+03 -0.20237021831E+03 -0.52101640933E+03  0.90776600749E+03  0.00000000000E+00 0. -1.
        -11    1    3    3    0    0  0.32028308794E+03 -0.12292378310E+03 -0.30976657349E+03  0.46221947484E+03  0.00000000000E+00 0.  1.
         22    1    1    2    0    0 -0.10355643755E+04  0.32529400140E+03  0.29831616053E+03  0.11257008016E+04  0.00000000000E+00 0. -1.
<mgrwt>
<rscale>  0 0.24382225E+04</rscale>
<asrwt>0</asrwt>
<pdfrwt beam="1">  1        1 0.15101688E+00 0.24382225E+04</pdfrwt>
<pdfrwt beam="2">  1       -1 0.23293485E+00 0.24382225E+04</pdfrwt>
<totfact> 0.12610039E+00</totfact>
</mgrwt>
</event>
<event>
 6    1  0.2047711E-005  0.1790609E+04  0.7818608E-02  0.8711310E-01
         -2   -1    0    0    0  501 -0.00000000000E+00  0.00000000000E+00  0.59540458300E+03  0.59540458300E+03  0.00000000000E+00 0. -1.
          2   -1    0    0  501    0  0.00000000000E+00 -0.00000000000E+00 -0.13462610238E+04  0.13462610238E+04  0.00000000000E+00 0.  1.
         23    2    1    2    0    0  0.72447753740E+03 -0.18432102875E+03  0.15324257386E+03  0.76853433871E+03  0.91212934867E+02 0.  0.
         13    1    3    3    0    0  0.44630411596E+03 -0.12897140727E+03  0.13743268185E+03  0.48446747038E+03  0.00000000000E+00 0.  1.
        -13    1    3    3    0    0  0.27817342144E+03 -0.55349621477E+02  0.15809892009E+02  0.28406686832E+03  0.00000000000E+00 0. -1.
         22    1    1    2    0    0 -0.72447753740E+03  0.18432102875E+03 -0.90409901464E+03  0.11731312681E+04  0.00000000000E+00 0.  1.
<mgrwt>
<rscale>  0 0.17906088E+04</rscale>
<asrwt>0</asrwt>
<pdfrwt beam="1">  1        2 0.20711708E+00 0.17906088E+04</pdfrwt>
<pdfrwt beam="2">  1       -2 0.91600706E-01 0.17906088E+04</pdfrwt>
<totfact> 0.14896358E+01</totfact>
</mgrwt>
</event>
<event>
 6    1  0.2047711E-005  0.1069973E+04  0.7818608E-02  0.9234963E-01
          2   -1    0    0  501    0  0.00000000000E+00  0.00000000000E+00  0.56982447631E+03  0.56982447631E+03  0.00000000000E+00 0. -1.
         -2   -1    0    0    0  501 -0.00000000000E+00 -0.00000000000E+00 -0.50227803800E+03  0.50227803800E+03  0.00000000000E+00 0.  1.
         23    2    1    2    0    0 -0.11853400311E+03 -0.28446775550E+03  0.46718598900E+03  0.56744026658E+03  0.93560109013E+02 0.  0.
         11    1    3    3    0    0 -0.13271598452E+03 -0.23728029550E+03  0.41005710879E+03  0.49199827606E+03  0.00000000000E+00 0. -1.
        -11    1    3    3    0    0  0.14181981413E+02 -0.47187460003E+02  0.57128880218E+02  0.75441990518E+02  0.00000000000E+00 0.  1.
         22    1    1    2    0    0  0.11853400311E+03  0.28446775550E+03 -0.39963955070E+03  0.50466224774E+03  0.00000000000E+00 0.  1.
<mgrwt>
<rscale>  0 0.10699726E+04</rscale>
<asrwt>0</asrwt>
<pdfrwt beam="1">  1        2 0.87665304E-01 0.10699726E+04</pdfrwt>
<pdfrwt beam="2">  1       -2 0.77273545E-01 0.10699726E+04</pdfrwt>
<totfact> 0.78479250E+01</totfact>
</mgrwt>
</event>
<event>
 6    1  0.2047711E-005  0.1385380E+04  0.7818608E-02  0.8964469E-01
          2   -1    0    0  501    0  0.00000000000E+00  0.00000000000E+00  0.15378763032E+04  0.15378763032E+04  0.00000000000E+00 0. -1.
         -2   -1    0    0    0  501 -0.00000000000E+00 -0.00000000000E+00 -0.31200152930E+03  0.31200152930E+03  0.00000000000E+00 0.  1.
         23    2    1    2    0    0  0.61651779425E+03 -0.23880473695E+03  0.34989758129E+03  0.75239984411E+03  0.80964899862E+02 0.  0.
         11    1    3    3    0    0  0.30405989529E+03 -0.89042972403E+02  0.13297114285E+03  0.34360208918E+03  0.00000000000E+00 0. -1.
        -11    1    3    3    0    0  0.31245789896E+03 -0.14976176454E+03  0.21692643844E+03  0.40879775493E+03  0.00000000000E+00 0.  1.
         22    1    1    2    0    0 -0.61651779425E+03  0.23880473695E+03  0.87597719256E+03  0.10974779883E+04  0.00000000000E+00 0. -1.
<mgrwt>
<rscale>  0 0.13853805E+04</rscale>
<asrwt>0</asrwt>
<pdfrwt beam="1">  1        2 0.23659635E+00 0.13853805E+04</pdfrwt>
<pdfrwt beam="2">  1       -2 0.48000236E-01 0.13853805E+04</pdfrwt>
<totfact> 0.48404263E+01</totfact>
</mgrwt>
</event>
<event>
 6    1  0.2047711E-005  0.2962134E+04  0.7818608E-02  0.8254627E-01
          1   -1    0    0  501    0  0.00000000000E+00  0.00000000000E+00  0.25378287393E+04  0.25378287393E+04  0.00000000000E+00 0. -1.
         -1   -1    0    0    0  501 -0.00000000000E+00 -0.00000000000E+00 -0.86434488358E+03  0.86434488358E+03  0.00000000000E+00 0.  1.
         23    2    1    2    0    0 -0.11156351202E+04  0.96985043642E+03  0.91447393085E+03  0.17404433029E+04  0.87342600848E+02 0.  0.
         11    1    3    3    0    0 -0.22550628801E+03  0.23723179580E+03  0.18057704362E+03  0.37381824401E+03  0.00000000000E+00 0. -1.
        -11    1    3    3    0    0 -0.89012883217E+03  0.73261864062E+03  0.73389688723E+03  0.13666250589E+04  0.00000000000E+00 0.  1.
         22    1    1    2    0    0  0.11156351202E+04 -0.96985043642E+03  0.75900992489E+03  0.16617303200E+04  0.00000000000E+00 0. -1.
<mgrwt>
<rscale>  0 0.29621339E+04</rscale>
<asrwt>0</asrwt>
<pdfrwt beam="1">  1        1 0.39043519E+00 0.29621339E+04</pdfrwt>
<pdfrwt beam="2">  1       -1 0.13297614E+00 0.29621339E+04</pdfrwt>
<totfact> 0.52105266E-01</totfact>
</mgrwt>
</event>
<event>
 6    1  0.2047711E-005  0.1443266E+04  0.7818608E-02  0.8923082E-01
          2   -1    0    0  501    0  0.00000000000E+00  0.00000000000E+00  0.11725863397E+04  0.11725863397E+04  0.00000000000E+00 0.  1.
         -2   -1    0    0    0  501 -0.00000000000E+00 -0.00000000000E+00 -0.44410724994E+03  0.44410724994E+03  0.00000000000E+00 0. -1.
         23    2    1    2    0    0  0.15127287122E+03  0.44758617188E+03  0.97252716403E+03  0.10849264176E+04  0.89662611458E+02 0.  0.
         11    1    3    3    0    0  0.11145812633E+03  0.40261529731E+03  0.80474533834E+03  0.90671773510E+03  0.00000000000E+00 0. -1.
        -11    1    3    3    0    0  0.39814744888E+02  0.44970874563E+02  0.16778182569E+03  0.17820868245E+03  0.00000000000E+00 0.  1.
         22    1    1    2    0    0 -0.15127287122E+03 -0.44758617188E+03 -0.24404807422E+03  0.53176717213E+03  0.00000000000E+00 0. -1.
<mgrwt>
<rscale>  0 0.14432659E+04</rscale>
<asrwt>0</asrwt>
<pdfrwt beam="1">  1        2 0.18039790E+00 0.14432659E+04</pdfrwt>
<pdfrwt beam="2">  1       -2 0.68324193E-01 0.14432659E+04</pdfrwt>
<totfact> 0.37412101E+01</totfact>
</mgrwt>
</event>
<event>
 6    1  0.2047711E-005  0.2562579E+04  0.7818608E-02  0.8381024E-01
         -2   -1    0    0    0  501 -0.00000000000E+00  0.00000000000E+00  0.85879305353E+03  0.85879305353E+03  0.00000000000E+00 0. -1.
          2   -1    0    0  501    0  0.00000000000E+00 -0.00000000000E+00 -0.19116399042E+04  0.19116399042E+04  0.00000000000E+00 0.  1.
         23    2    1    2    0    0 -0.11920570397E+04  0.23065445818E+03 -0.96394458196E+03  0.15530155772E+04  0.92015003023E+02 0.  0.
         11    1    3    3    0    0 -0.29735905497E+03  0.25397827869E+02 -0.20653478871E+03  0.36293811619E+03  0.00000000000E+00 0. -1.
        -11    1    3    3    0    0 -0.89469798475E+03  0.20525663031E+03 -0.75740979325E+03  0.11900774610E+04  0.00000000000E+00 0.  1.
         22    1    1    2    0    0  0.11920570397E+04 -0.23065445818E+03 -0.88902268675E+02  0.12174173805E+04  0.00000000000E+00 0. -1.
<mgrwt>
<rscale>  0 0.25625792E+04</rscale>
<asrwt>0</asrwt>
<pdfrwt beam="1">  1        2 0.29409844E+00 0.25625792E+04</pdfrwt>
<pdfrwt beam="2">  1       -2 0.13212201E+00 0.25625792E+04</pdfrwt>
<totfact> 0.27670070E+00</totfact>
</mgrwt>
</event>
<event>
 6    1  0.2047711E-005  0.2264649E+04  0.7818608E-02  0.8491992E-01
         -1   -1    0    0    0  501 -0.00000000000E+00  0.00000000000E+00  0.91755802203E+03  0.91755802203E+03  0.00000000000E+00 0.  1.
          1   -1    0    0  501    0  0.00000000000E+00 -0.00000000000E+00 -0.13973593799E+04  0.13973593799E+04  0.00000000000E+00 0. -1.
         23    2    1    2    0    0  0.21034463902E+02  0.73994725956E+03 -0.11136560920E+04  0.13403732934E+04  0.91685761548E+02 0.  0.
         13    1    3    3    0    0  0.55046414217E+02  0.37549405744E+03 -0.54611128772E+03  0.66502889672E+03  0.00000000000E+00 0. -1.
        -13    1    3    3    0    0 -0.34011950315E+02  0.36445320212E+03 -0.56754480425E+03  0.67534439668E+03  0.00000000000E+00 0.  1.
         22    1    1    2    0    0 -0.21034463902E+02 -0.73994725956E+03  0.63385473408E+03  0.97454410855E+03  0.00000000000E+00 0.  1.
<mgrwt>
<rscale>  0 0.22646486E+04</rscale>
<asrwt>0</asrwt>
<pdfrwt beam="1">  1        1 0.21497836E+00 0.22646486E+04</pdfrwt>
<pdfrwt beam="2">  1       -1 0.14116277E+00 0.22646486E+04</pdfrwt>
<totfact> 0.28694158E+00</totfact>
</mgrwt>
</event>
<event>
 6    1  0.2047711E-005  0.3099236E+04  0.7818608E-02  0.8215948E-01
          2   -1    0    0  501    0  0.00000000000E+00  0.00000000000E+00  0.23557519075E+04  0.23557519075E+04  0.00000000000E+00 0.  1.
         -2   -1    0    0    0  501 -0.00000000000E+00 -0.00000000000E+00 -0.10193414812E+04  0.10193414812E+04  0.00000000000E+00 0. -1.
         23    2    1    2    0    0  0.85409027356E+03  0.88405005468E+03  0.16941061312E+04  0.20948743012E+04  0.86533575365E+02 0.  0.
         11    1    3    3    0    0  0.71235555594E+03  0.68905738071E+03  0.13745335919E+04  0.16945775601E+04  0.00000000000E+00 0. -1.
        -11    1    3    3    0    0  0.14173471762E+03  0.19499267398E+03  0.31957253931E+03  0.40029674114E+03  0.00000000000E+00 0.  1.
         22    1    1    2    0    0 -0.85409027356E+03 -0.88405005468E+03 -0.35769570493E+03  0.12802190875E+04  0.00000000000E+00 0. -1.
<mgrwt>
<rscale>  0 0.30992358E+04</rscale>
<asrwt>0</asrwt>
<pdfrwt beam="1">  1        2 0.36242337E+00 0.30992358E+04</pdfrwt>
<pdfrwt beam="2">  1       -2 0.15682177E+00 0.30992358E+04</pdfrwt>
<totfact> 0.95167255E-01</totfact>
</mgrwt>
</event>
<event>
 6    1  0.2047711E-005  0.2209063E+04  0.7818608E-02  0.8514665E-01
         -2   -1    0    0    0  501 -0.00000000000E+00  0.00000000000E+00  0.11243084680E+04  0.11243084680E+04  0.00000000000E+00 0.  1.
          2   -1    0    0  501    0  0.00000000000E+00 -0.00000000000E+00 -0.10851026514E+04  0.10851026514E+04  0.00000000000E+00 0. -1.
         23    2    1    2    0    0 -0.72640135803E+03 -0.14760918051E+03 -0.79679871629E+03  0.10921148372E+04  0.91538081056E+02 0.  0.
         13    1    3    3    0    0 -0.37099048872E+03 -0.50452393962E+02 -0.45814466395E+03  0.59167213884E+03  0.00000000000E+00 0.  1.
        -13    1    3    3    0    0 -0.35541086931E+03 -0.97156786550E+02 -0.33865405234E+03  0.50044269838E+03  0.00000000000E+00 0. -1.
         22    1    1    2    0    0  0.72640135803E+03  0.14760918051E+03  0.83600453293E+03  0.11172962822E+04  0.00000000000E+00 0.  1.
<mgrwt>
<rscale>  0 0.22090632E+04</rscale>
<asrwt>0</asrwt>
<pdfrwt beam="1">  1        2 0.16693887E+00 0.22090632E+04</pdfrwt>
<pdfrwt beam="2">  1       -2 0.17297053E+00 0.22090632E+04</pdfrwt>
<totfact> 0.41269212E+00</totfact>
</mgrwt>
</event>
<event>
 6    1  0.2047711E-005  0.3309402E+04  0.7818608E-02  0.8160507E-01
          2   -1    0    0  501    0  0.00000000000E+00  0.00000000000E+00  0.26070108425E+04  0.26070108425E+04  0.00000000000E+00 0. -1.
         -2   -1    0    0    0  501 -0.00000000000E+00 -0.00000000000E+00 -0.10502582787E+04  0.10502582787E+04  0.00000000000E+00 0.  1.
         23    2    1    2    0    0  0.10477417087E+04  0.40022362102E+03  0.21215637092E+04  0.24015011231E+04  0.90738290438E+02 0.  0.
         13    1    3    3    0    0  0.82903391927E+03  0.35091986570E+03  0.16613976978E+04  0.18896254395E+04  0.00000000000E+00 0. -1.
        -13    1    3    3    0    0  0.21870778947E+03  0.49303755319E+02  0.46016601136E+03  0.51187568361E+03  0.00000000000E+00 0.  1.
         22    1    1    2    0    0 -0.10477417087E+04 -0.40022362102E+03 -0.56481114536E+03  0.12557679981E+04  0.00000000000E+00 0.  1.
<mgrwt>
<rscale>  0 0.33094016E+04</rscale>
<asrwt>0</asrwt>
<pdfrwt beam="1">  1        2 0.40107859E+00 0.33094016E+04</pdfrwt>
<pdfrwt beam="2">  1       -2 0.16157820E+00 0.33094016E+04</pdfrwt>
<totfact> 0.61678721E-01</totfact>
</mgrwt>
</event>
<event>
 6    1  0.2047711E-005  0.4231585E+04  0.7818608E-02  0.7959391E-01
          2   -1    0    0  501    0  0.00000000000E+00  0.00000000000E+00  0.20556966571E+04  0.20556966571E+04  0.00000000000E+00 0. -1.
         -2   -1    0    0    0  501 -0.00000000000E+00 -0.00000000000E+00 -0.21776453182E+04  0.21776453182E+04  0.00000000000E+00 0.  1.
         23    2    1    2    0    0  0.17264684227E+04  0.10667752427E+04  0.53428964946E+03  0.21004211250E+04  0.87182795641E+02 0.  0.
         13    1    3    3    0    0  0.89603382725E+03  0.55649535045E+03  0.32263865486E+03  0.11030228448E+04  0.00000000000E+00 0.  1.
        -13    1    3    3    0    0  0.83043459548E+03  0.51027989222E+03  0.21165099460E+03  0.99739828017E+03  0.00000000000E+00 0. -1.
         22    1    1    2    0    0 -0.17264684227E+04 -0.10667752427E+04 -0.65623831059E+03  0.21329208502E+04  0.00000000000E+00 0.  1.
<mgrwt>
<rscale>  0 0.42315851E+04</rscale>
<asrwt>0</asrwt>
<pdfrwt beam="1">  1        2 0.31626102E+00 0.42315851E+04</pdfrwt>
<pdfrwt beam="2">  1       -2 0.33502236E+00 0.42315851E+04</pdfrwt>
<totfact> 0.93027231E-02</totfact>
</mgrwt>
</event>
<event>
 6    1  0.2047711E-005  0.1879052E+04  0.7818608E-02  0.8665354E-01
          2   -1    0    0  501    0  0.00000000000E+00  0.00000000000E+00  0.94607911040E+03  0.94607911040E+03  0.00000000000E+00 0. -1.
         -2   -1    0    0    0  501 -0.00000000000E+00 -0.00000000000E+00 -0.93301860061E+03  0.93301860061E+03  0.00000000000E+00 0.  1.
         23    2    1    2    0    0  0.31174394663E+03  0.86930931340E+03 -0.15305129400E+03  0.94076083016E+03  0.93398449408E+02 0.  0.
         11    1    3    3    0    0  0.21200429939E+03  0.45346037139E+03 -0.85009957785E+02  0.50773893322E+03  0.00000000000E+00 0.  1.
        -11    1    3    3    0    0  0.99739647238E+02  0.41584894201E+03 -0.68041336210E+02  0.43302189694E+03  0.00000000000E+00 0. -1.
         22    1    1    2    0    0 -0.31174394663E+03 -0.86930931340E+03  0.16611180379E+03  0.93833688086E+03  0.00000000000E+00 0.  1.
<mgrwt>
<rscale>  0 0.18790523E+04</rscale>
<asrwt>0</asrwt>
<pdfrwt beam="1">  1        2 0.14555063E+00 0.18790523E+04</pdfrwt>
<pdfrwt beam="2">  1       -2 0.14354132E+00 0.18790523E+04</pdfrwt>
<totfact> 0.86204525E+00</totfact>
</mgrwt>
</event>
<event>
 6    1  0.2047711E-005  0.2899593E+04  0.7818608E-02  0.8272999E-01
          2   -1    0    0  501    0  0.00000000000E+00  0.00000000000E+00  0.71208548418E+03  0.71208548418E+03  0.00000000000E+00 0. -1.
         -2   -1    0    0    0  501 -0.00000000000E+00 -0.00000000000E+00 -0.29517653440E+04  0.29517653440E+04  0.00000000000E+00 0.  1.
         23    2    1    2    0    0  0.59631365478E+03  0.10884452953E+04 -0.20644837496E+04  0.24104567112E+04  0.88911576544E+02 0.  0.
         13    1    3    3    0    0  0.20156530300E+03  0.34485317900E+03 -0.74364599237E+03  0.84413366739E+03  0.00000000000E+00 0. -1.
        -13    1    3    3    0    0  0.39474835178E+03  0.74359211625E+03 -0.13208377572E+04  0.15663230438E+04  0.00000000000E+00 0.  1.
         22    1    1    2    0    0 -0.59631365478E+03 -0.10884452953E+04 -0.17519611030E+03  0.12533941171E+04  0.00000000000E+00 0. -1.
<mgrwt>
<rscale>  0 0.28995926E+04</rscale>
<asrwt>0</asrwt>
<pdfrwt beam="1">  1        2 0.10955161E+00 0.28995926E+04</pdfrwt>
<pdfrwt beam="2">  1       -2 0.45411776E+00 0.28995926E+04</pdfrwt>
<totfact> 0.11262614E-01</totfact>
</mgrwt>
</event>
<event>
 6    1  0.2047711E-005  0.1728316E+04  0.7818608E-02  0.8745378E-01
          1   -1    0    0  501    0  0.00000000000E+00  0.00000000000E+00  0.45182219187E+03  0.45182219187E+03  0.00000000000E+00 0. -1.
         -1   -1    0    0    0  501 -0.00000000000E+00 -0.00000000000E+00 -0.16527937621E+04  0.16527937621E+04  0.00000000000E+00 0.  1.
         23    2    1    2    0    0  0.41690023171E+03  0.46653256981E+03  0.11810249302E+03  0.64467937102E+03  0.10101906087E+03 0.  0.
         13    1    3    3    0    0  0.14379219979E+03  0.14512010510E+03  0.86086938311E+02  0.22169123251E+03  0.00000000000E+00 0. -1.
        -13    1    3    3    0    0  0.27310803192E+03  0.32141246471E+03  0.32015554705E+02  0.42298813850E+03  0.00000000000E+00 0.  1.
         22    1    1    2    0    0 -0.41690023171E+03 -0.46653256981E+03 -0.13190740633E+04  0.14599365830E+04  0.00000000000E+00 0.  1.
<mgrwt>
<rscale>  0 0.17283158E+04</rscale>
<asrwt>0</asrwt>
<pdfrwt beam="1">  1        1 0.69511105E-01 0.17283158E+04</pdfrwt>
<pdfrwt beam="2">  1       -1 0.25427597E+00 0.17283158E+04</pdfrwt>
<totfact> 0.31615394E+00</totfact>
</mgrwt>
</event>
<event>
 6    1  0.2047711E-005  0.3700184E+04  0.7818608E-02  0.8067921E-01
         -1   -1    0    0    0  501 -0.00000000000E+00  0.00000000000E+00  0.18002197377E+04  0.18002197377E+04  0.00000000000E+00 0.  1.
          1   -1    0    0  501    0  0.00000000000E+00 -0.00000000000E+00 -0.19013456725E+04  0.19013456725E+04  0.00000000000E+00 0. -1.
         23    2    1    2    0    0  0.65101867477E+03  0.15152856233E+04  0.78570755798E+03  0.18290298354E+04  0.89988538376E+02 0.  0.
         13    1    3    3    0    0  0.21712243739E+03  0.45369822779E+03  0.19994505425E+03  0.54125988161E+03  0.00000000000E+00 0. -1.
        -13    1    3    3    0    0  0.43389623738E+03  0.10615873955E+04  0.58576250373E+03  0.12877699538E+04  0.00000000000E+00 0.  1.
         22    1    1    2    0    0 -0.65101867477E+03 -0.15152856233E+04 -0.88683349274E+03  0.18725355748E+04  0.00000000000E+00 0. -1.
<mgrwt>
<rscale>  0 0.37001838E+04</rscale>
<asrwt>0</asrwt>
<pdfrwt beam="1">  1        1 0.29251472E+00 0.37001838E+04</pdfrwt>
<pdfrwt beam="2">  1       -1 0.27695688E+00 0.37001838E+04</pdfrwt>
<totfact> 0.12991675E-01</totfact>
</mgrwt>
</event>
<event>
 6    1  0.2047711E-005  0.6990938E+03  0.7818608E-02  0.9718783E-01
         -2   -1    0    0    0  501 -0.00000000000E+00  0.00000000000E+00  0.12734235776E+03  0.12734235776E+03  0.00000000000E+00 0.  1.
          2   -1    0    0  501    0  0.00000000000E+00 -0.00000000000E+00 -0.95948472183E+03  0.95948472183E+03  0.00000000000E+00 0. -1.
         23    2    1    2    0    0 -0.10765317262E+03 -0.18869292776E+03 -0.98853259752E+01  0.23635611403E+03  0.92586534695E+02 0.  0.
         11    1    3    3    0    0 -0.32173373444E+02 -0.92680271540E+02  0.37953517920E+02  0.10519138850E+03  0.00000000000E+00 0. -1.
        -11    1    3    3    0    0 -0.75479799181E+02 -0.96012656218E+02 -0.47838843895E+02  0.13116472553E+03  0.00000000000E+00 0.  1.
         22    1    1    2    0    0  0.10765317262E+03  0.18869292776E+03 -0.82225703810E+03  0.85047096556E+03  0.00000000000E+00 0. -1.
<mgrwt>
<rscale>  0 0.69909383E+03</rscale>
<asrwt>0</asrwt>
<pdfrwt beam="1">  1        2 0.14761304E+00 0.69909383E+03</pdfrwt>
<pdfrwt beam="2">  1       -2 0.19591131E-01 0.69909383E+03</pdfrwt>
<totfact> 0.59612842E+02</totfact>
</mgrwt>
</event>
<event>
 6    1  0.2047711E-005  0.2018794E+04  0.7818608E-02  0.8597884E-01
          1   -1    0    0  501    0  0.00000000000E+00  0.00000000000E+00  0.14216495450E+04  0.14216495450E+04  0.00000000000E+00 0. -1.
         -1   -1    0    0    0  501 -0.00000000000E+00 -0.00000000000E+00 -0.71669012736E+03  0.71669012736E+03  0.00000000000E+00 0.  1.
         23    2    1    2    0    0 -0.25145319879E+03 -0.37451865213E+03 -0.60069263357E+03  0.75695623147E+03  0.93049257736E+02 0.  0.
         13    1    3    3    0    0 -0.20005708524E+03 -0.23045796309E+03 -0.36216185672E+03  0.47359784688E+03  0.00000000000E+00 0.  1.
        -13    1    3    3    0    0 -0.51396113551E+02 -0.14406068904E+03 -0.23853077685E+03  0.28335838459E+03  0.00000000000E+00 0. -1.
         22    1    1    2    0    0  0.25145319879E+03  0.37451865213E+03  0.13056520512E+04  0.13813834409E+04  0.00000000000E+00 0. -1.
<mgrwt>
<rscale>  0 0.20187939E+04</rscale>
<asrwt>0</asrwt>
<pdfrwt beam="1">  1        1 0.21871531E+00 0.20187939E+04</pdfrwt>
<pdfrwt beam="2">  1       -1 0.11026002E+00 0.20187939E+04</pdfrwt>
<totfact> 0.52144136E+00</totfact>
</mgrwt>
</event>
<event>
 6    1  0.2047711E-005  0.1508938E+04  0.7818608E-02  0.8878531E-01
          2   -1    0    0  501    0  0.00000000000E+00  0.00000000000E+00  0.13246777792E+04  0.13246777792E+04  0.00000000000E+00 0. -1.
         -2   -1    0    0    0  501 -0.00000000000E+00 -0.00000000000E+00 -0.42970704464E+03  0.42970704464E+03  0.00000000000E+00 0.  1.
         23    2    1    2    0    0 -0.64895050845E+03 -0.11091609807E+03  0.87061460467E+03  0.10955734970E+04  0.94193175522E+02 0.  0.
         13    1    3    3    0    0 -0.23712980240E+03 -0.74695136391E+02  0.37860889774E+03  0.45293995632E+03  0.00000000000E+00 0. -1.
        -13    1    3    3    0    0 -0.41182070605E+03 -0.36220961677E+02  0.49200570693E+03  0.64263354071E+03  0.00000000000E+00 0.  1.
         22    1    1    2    0    0  0.64895050845E+03  0.11091609807E+03  0.24356129865E+02  0.65881132677E+03  0.00000000000E+00 0.  1.
<mgrwt>
<rscale>  0 0.15089379E+04</rscale>
<asrwt>0</asrwt>
<pdfrwt beam="1">  1        2 0.20379658E+00 0.15089379E+04</pdfrwt>
<pdfrwt beam="2">  1       -2 0.66108776E-01 0.15089379E+04</pdfrwt>
<totfact> 0.32504690E+01</totfact>
</mgrwt>
</event>
<event>
 6    1  0.2047711E-005  0.3026986E+04  0.7818608E-02  0.8236067E-01
          2   -1    0    0  501    0  0.00000000000E+00  0.00000000000E+00  0.20619800099E+04  0.20619800099E+04  0.00000000000E+00 0. -1.
         -2   -1    0    0    0  501 -0.00000000000E+00 -0.00000000000E+00 -0.11109032656E+04  0.11109032656E+04  0.00000000000E+00 0.  1.
         23    2    1    2    0    0  0.12332133851E+04  0.59692725222E+03 -0.19469563044E+03  0.13868452770E+04  0.91082579346E+02 0.  0.
         13    1    3    3    0    0  0.43756932889E+03  0.21185697658E+03 -0.25185213277E+02  0.48681063164E+03  0.00000000000E+00 0.  1.
        -13    1    3    3    0    0  0.79564405616E+03  0.38507027564E+03 -0.16951041716E+03  0.90003464534E+03  0.00000000000E+00 0. -1.
         22    1    1    2    0    0 -0.12332133851E+04 -0.59692725222E+03  0.11457723747E+04  0.17860379985E+04  0.00000000000E+00 0. -1.
<mgrwt>
<rscale>  0 0.30269855E+04</rscale>
<asrwt>0</asrwt>
<pdfrwt beam="1">  1        2 0.31722769E+00 0.30269855E+04</pdfrwt>
<pdfrwt beam="2">  1       -2 0.17090819E+00 0.30269855E+04</pdfrwt>
<totfact> 0.11067588E+00</totfact>
</mgrwt>
</event>
<event>
 6    1  0.2047711E-005  0.2420793E+04  0.7818608E-02  0.8431760E-01
         -2   -1    0    0    0  501 -0.00000000000E+00  0.00000000000E+00  0.14576874546E+04  0.14576874546E+04  0.00000000000E+00 0.  1.
          2   -1    0    0  501    0  0.00000000000E+00 -0.00000000000E+00 -0.10050578367E+04  0.10050578367E+04  0.00000000000E+00 0. -1.
         23    2    1    2    0    0  0.57444276842E+03  0.14027906940E+03  0.12989743082E+04  0.14302909115E+04  0.93461898888E+02 0.  0.
         11    1    3    3    0    0  0.46428407798E+03  0.10216890745E+03  0.11198595765E+04  0.12165868904E+04  0.00000000000E+00 0. -1.
        -11    1    3    3    0    0  0.11015869045E+03  0.38110161951E+02  0.17911473172E+03  0.21370402112E+03  0.00000000000E+00 0.  1.
         22    1    1    2    0    0 -0.57444276842E+03 -0.14027906940E+03 -0.84634469033E+03  0.10324543798E+04  0.00000000000E+00 0. -1.
<mgrwt>
<rscale>  0 0.24207934E+04</rscale>
<asrwt>0</asrwt>
<pdfrwt beam="1">  1        2 0.15462428E+00 0.24207934E+04</pdfrwt>
<pdfrwt beam="2">  1       -2 0.22425961E+00 0.24207934E+04</pdfrwt>
<totfact> 0.20844694E+00</totfact>
</mgrwt>
</event>
<event>
 6    1  0.2047711E-005  0.4544352E+04  0.7818608E-02  0.7902918E-01
          1   -1    0    0  501    0  0.00000000000E+00  0.00000000000E+00  0.23586422178E+04  0.23586422178E+04  0.00000000000E+00 0. -1.
         -1   -1    0    0    0  501 -0.00000000000E+00 -0.00000000000E+00 -0.21888799579E+04  0.21888799579E+04  0.00000000000E+00 0.  1.
         23    2    1    2    0    0  0.21325211947E+04  0.25588427709E+02  0.86675082448E+03  0.23038433946E+04  0.90199676337E+02 0.  0.
         13    1    3    3    0    0  0.42448719961E+03 -0.18353647947E+02  0.20240252560E+03  0.47063045098E+03  0.00000000000E+00 0. -1.
        -13    1    3    3    0    0  0.17080339951E+04  0.43942075656E+02  0.66434829888E+03  0.18332129436E+04  0.00000000000E+00 0.  1.
         22    1    1    2    0    0 -0.21325211947E+04 -0.25588427709E+02 -0.69698856452E+03  0.22436787811E+04  0.00000000000E+00 0.  1.
<mgrwt>
<rscale>  0 0.45443524E+04</rscale>
<asrwt>0</asrwt>
<pdfrwt beam="1">  1        1 0.36286803E+00 0.45443524E+04</pdfrwt>
<pdfrwt beam="2">  1       -1 0.33675076E+00 0.45443524E+04</pdfrwt>
<totfact> 0.24142723E-02</totfact>
</mgrwt>
</event>
<event>
 6    1  0.2047711E-005  0.3074150E+03  0.7818608E-02  0.1081592E+00
          2   -1    0    0  501    0  0.00000000000E+00  0.00000000000E+00  0.17159335233E+03  0.17159335233E+03  0.00000000000E+00 0. -1.
         -2   -1    0    0    0  501 -0.00000000000E+00 -0.00000000000E+00 -0.13768597372E+03  0.13768597372E+03  0.00000000000E+00 0.  1.
         23    2    1    2    0    0 -0.11417500924E+03 -0.73692017288E+02  0.50633588234E+02  0.17236251833E+03  0.93159171955E+02 0.  0.
         13    1    3    3    0    0 -0.70203784131E+02  0.23062727635E+01 -0.14841630316E+01  0.70257333712E+02  0.00000000000E+00 0.  1.
        -13    1    3    3    0    0 -0.43971225113E+02 -0.75998290052E+02  0.52117751266E+02  0.10210518462E+03  0.00000000000E+00 0. -1.
         22    1    1    2    0    0  0.11417500924E+03  0.73692017288E+02 -0.16726209624E+02  0.13691680772E+03  0.00000000000E+00 0.  1.
<mgrwt>
<rscale>  0 0.30741501E+03</rscale>
<asrwt>0</asrwt>
<pdfrwt beam="1">  1        2 0.26398977E-01 0.30741501E+03</pdfrwt>
<pdfrwt beam="2">  1       -2 0.21182458E-01 0.30741501E+03</pdfrwt>
<totfact> 0.38457222E+03</totfact>
</mgrwt>
</event>
<event>
 6    1  0.2047711E-005  0.3090971E+04  0.7818608E-02  0.8218220E-01
          1   -1    0    0  501    0  0.00000000000E+00  0.00000000000E+00  0.22596903209E+04  0.22596903209E+04  0.00000000000E+00 0. -1.
         -1   -1    0    0    0  501 -0.00000000000E+00 -0.00000000000E+00 -0.10570144301E+04  0.10570144301E+04  0.00000000000E+00 0.  1.
         23    2    1    2    0    0 -0.36646511036E+03  0.12625749994E+04 -0.26715642584E+03  0.13447008602E+04  0.91954017344E+02 0.  0.
         11    1    3    3    0    0 -0.23019387732E+03  0.88304362974E+03 -0.15023434251E+03  0.92483816468E+03  0.00000000000E+00 0. -1.
        -11    1    3    3    0    0 -0.13627123304E+03  0.37953136968E+03 -0.11692208334E+03  0.41986269553E+03  0.00000000000E+00 0.  1.
         22    1    1    2    0    0  0.36646511036E+03 -0.12625749994E+04  0.14698323167E+04  0.19720038908E+04  0.00000000000E+00 0. -1.
<mgrwt>
<rscale>  0 0.30909709E+04</rscale>
<asrwt>0</asrwt>
<pdfrwt beam="1">  1        1 0.34764466E+00 0.30909709E+04</pdfrwt>
<pdfrwt beam="2">  1       -1 0.16261761E+00 0.30909709E+04</pdfrwt>
<totfact> 0.46759680E-01</totfact>
</mgrwt>
</event>
<event>
 6    1  0.2047711E-005  0.4612589E+04  0.7818608E-02  0.7891217E-01
         -2   -1    0    0    0  501 -0.00000000000E+00  0.00000000000E+00  0.19537537828E+04  0.19537537828E+04  0.00000000000E+00 0.  1.
          2   -1    0    0  501    0  0.00000000000E+00 -0.00000000000E+00 -0.27224481985E+04  0.27224481985E+04  0.00000000000E+00 0. -1.
         23    2    1    2    0    0 -0.10368582396E+03  0.20755341508E+04  0.62695684385E+03  0.21729170995E+04  0.99504150248E+02 0.  0.
         13    1    3    3    0    0 -0.69692603934E+02  0.54502766792E+03  0.15396152401E+03  0.57062804761E+03  0.00000000000E+00 0. -1.
        -13    1    3    3    0    0 -0.33993220029E+02  0.15305064829E+04  0.47299531983E+03  0.16022890519E+04  0.00000000000E+00 0.  1.
         22    1    1    2    0    0  0.10368582396E+03 -0.20755341508E+04 -0.13956512596E+04  0.25032848818E+04  0.00000000000E+00 0.  1.
<mgrwt>
<rscale>  0 0.46125886E+04</rscale>
<asrwt>0</asrwt>
<pdfrwt beam="1">  1        2 0.41883819E+00 0.46125886E+04</pdfrwt>
<pdfrwt beam="2">  1       -2 0.30057750E+00 0.46125886E+04</pdfrwt>
<totfact> 0.60941210E-02</totfact>
</mgrwt>
</event>
<event>
 6    1  0.2047711E-005  0.1049940E+04  0.7818608E-02  0.9255406E-01
         -2   -1    0    0    0  501 -0.00000000000E+00  0.00000000000E+00  0.89486744170E+03  0.89486744170E+03  0.00000000000E+00 0.  1.
          2   -1    0    0  501    0  0.00000000000E+00 -0.00000000000E+00 -0.30797158476E+03  0.30797158476E+03  0.00000000000E+00 0. -1.
         23    2    1    2    0    0 -0.36134508935E+03  0.37081966811E+03  0.22950507970E+03  0.57370814380E+03  0.91602144062E+02 0.  0.
         11    1    3    3    0    0 -0.69257217096E+02  0.80173154012E+02  0.88963869311E+02  0.13834329325E+03  0.00000000000E+00 0.  1.
        -11    1    3    3    0    0 -0.29208787226E+03  0.29064651410E+03  0.14054121038E+03  0.43536485055E+03  0.00000000000E+00 0. -1.
         22    1    1    2    0    0  0.36134508935E+03 -0.37081966811E+03  0.35739077725E+03  0.62913088266E+03  0.00000000000E+00 0.  1.
<mgrwt>
<rscale>  0 0.10499405E+04</rscale>
<asrwt>0</asrwt>
<pdfrwt beam="1">  1        2 0.47380244E-01 0.10499405E+04</pdfrwt>
<pdfrwt beam="2">  1       -2 0.13767191E+00 0.10499405E+04</pdfrwt>
<totfact> 0.39791525E+01</totfact>
</mgrwt>
</event>
<event>
 6    1  0.2047711E-005  0.9112673E+03  0.7818608E-02  0.9411605E-01
         -2   -1    0    0    0  501 -0.00000000000E+00  0.00000000000E+00  0.34403179920E+03  0.34403179920E+03  0.00000000000E+00 0.  1.
          2   -1    0    0  501    0  0.00000000000E+00 -0.00000000000E+00 -0.60343847393E+03  0.60343847393E+03  0.00000000000E+00 0. -1.
         23    2    1    2    0    0  0.94047517929E+02 -0.32841655054E+03  0.17590834221E+03  0.39411547712E+03  0.87640733369E+02 0.  0.
         13    1    3    3    0    0  0.10499251635E+03 -0.26890975134E+03  0.12319104249E+03  0.31386607941E+03  0.00000000000E+00 0. -1.
        -13    1    3    3    0    0 -0.10944998424E+02 -0.59506799197E+02  0.52717299727E+02  0.80249397703E+02  0.00000000000E+00 0.  1.
         22    1    1    2    0    0 -0.94047517929E+02  0.32841655054E+03 -0.43531501694E+03  0.55335479601E+03  0.00000000000E+00 0. -1.
<mgrwt>
<rscale>  0 0.91126730E+03</rscale>
<asrwt>0</asrwt>
<pdfrwt beam="1">  1        2 0.92836688E-01 0.91126730E+03</pdfrwt>
<pdfrwt beam="2">  1       -2 0.52927969E-01 0.91126730E+03</pdfrwt>
<totfact> 0.16632357E+02</totfact>
</mgrwt>
</event>
<event>
 6    1  0.2047711E-005  0.1353961E+04  0.7818608E-02  0.8987835E-01
          2   -1    0    0  501    0  0.00000000000E+00  0.00000000000E+00  0.26690981402E+04  0.26690981402E+04  0.00000000000E+00 0. -1.
         -2   -1    0    0    0  501 -0.00000000000E+00 -0.00000000000E+00 -0.17170702101E+03  0.17170702101E+03  0.00000000000E+00 0.  1.
         23    2    1    2    0    0 -0.59909006383E+03  0.30317369464E+03  0.13753766956E+04  0.15332350635E+04  0.91244240533E+02 0.  0.
         13    1    3    3    0    0 -0.41725711885E+03  0.25334690433E+03  0.95550319438E+03  0.10729746090E+04  0.00000000000E+00 0.  1.
        -13    1    3    3    0    0 -0.18183294498E+03  0.49826790305E+02  0.41987350120E+03  0.46026045444E+03  0.00000000000E+00 0. -1.
         22    1    1    2    0    0  0.59909006383E+03 -0.30317369464E+03  0.11220144236E+04  0.13075700978E+04  0.00000000000E+00 0.  1.
<mgrwt>
<rscale>  0 0.13539614E+04</rscale>
<asrwt>0</asrwt>
<pdfrwt beam="1">  1        2 0.41063045E+00 0.13539614E+04</pdfrwt>
<pdfrwt beam="2">  1       -2 0.26416467E-01 0.13539614E+04</pdfrwt>
<totfact> 0.35306372E+01</totfact>
</mgrwt>
</event>
<event>
 6    1  0.2047711E-005  0.2264943E+04  0.7818608E-02  0.8491873E-01
         -1   -1    0    0    0  501 -0.00000000000E+00  0.00000000000E+00  0.98015417004E+03  0.98015417004E+03  0.00000000000E+00 0.  1.
          1   -1    0    0  501    0  0.00000000000E+00 -0.00000000000E+00 -0.13084596026E+04  0.13084596026E+04  0.00000000000E+00 0. -1.
         23    2    1    2    0    0 -0.92201954144E+03  0.31587648710E+03  0.41487401689E+03  0.10629655017E+04  0.88753693094E+02 0.  0.
         11    1    3    3    0    0 -0.75872179290E+03  0.22454612804E+03  0.32500971472E+03  0.85540109732E+03  0.00000000000E+00 0. -1.
        -11    1    3    3    0    0 -0.16329774854E+03  0.91330359062E+02  0.89864302173E+02  0.20756440439E+03  0.00000000000E+00 0.  1.
         22    1    1    2    0    0  0.92201954144E+03 -0.31587648710E+03 -0.74317944941E+03  0.12256482709E+04  0.00000000000E+00 0. -1.
<mgrwt>
<rscale>  0 0.22649434E+04</rscale>
<asrwt>0</asrwt>
<pdfrwt beam="1">  1        1 0.20130147E+00 0.22649434E+04</pdfrwt>
<pdfrwt beam="2">  1       -1 0.15079295E+00 0.22649434E+04</pdfrwt>
<totfact> 0.27820071E+00</totfact>
</mgrwt>
</event>
<event>
 6    1  0.2047711E-005  0.1607120E+04  0.7818608E-02  0.8816186E-01
         -2   -1    0    0    0  501 -0.00000000000E+00  0.00000000000E+00  0.56352660539E+03  0.56352660539E+03  0.00000000000E+00 0.  1.
          2   -1    0    0  501    0  0.00000000000E+00 -0.00000000000E+00 -0.11458358847E+04  0.11458358847E+04  0.00000000000E+00 0. -1.
         23    2    1    2    0    0 -0.75303142692E+03 -0.21587542507E+03 -0.11263558689E+03  0.79598857628E+03  0.85161664204E+02 0.  0.
         13    1    3    3    0    0 -0.46641892672E+03 -0.10985426775E+03 -0.33696654999E+02  0.48036448651E+03  0.00000000000E+00 0.  1.
        -13    1    3    3    0    0 -0.28661250021E+03 -0.10602115732E+03 -0.78938931895E+02  0.31562408977E+03  0.00000000000E+00 0. -1.
         22    1    1    2    0    0  0.75303142692E+03  0.21587542507E+03 -0.46967369244E+03  0.91337391383E+03  0.00000000000E+00 0.  1.
<mgrwt>
<rscale>  0 0.16071204E+04</rscale>
<asrwt>0</asrwt>
<pdfrwt beam="1">  1        2 0.17628244E+00 0.16071204E+04</pdfrwt>
<pdfrwt beam="2">  1       -2 0.86696402E-01 0.16071204E+04</pdfrwt>
<totfact> 0.22545174E+01</totfact>
</mgrwt>
</event>
<event>
 6    1  0.2047711E-005  0.3454724E+04  0.7818608E-02  0.8124604E-01
         -2   -1    0    0    0  501 -0.00000000000E+00  0.00000000000E+00  0.18193861225E+04  0.18193861225E+04  0.00000000000E+00 0.  1.
          2   -1    0    0  501    0  0.00000000000E+00 -0.00000000000E+00 -0.16399922105E+04  0.16399922105E+04  0.00000000000E+00 0. -1.
         23    2    1    2    0    0  0.80722684579E+03  0.13904177713E+03  0.16112892523E+04  0.18097504774E+04  0.89420018161E+02 0.  0.
         13    1    3    3    0    0  0.33664117925E+03  0.53403269776E+02  0.57571184450E+03  0.66904657588E+03  0.00000000000E+00 0. -1.
        -13    1    3    3    0    0  0.47058566654E+03  0.85638507354E+02  0.10355774078E+04  0.11407039015E+04  0.00000000000E+00 0.  1.
         22    1    1    2    0    0 -0.80722684579E+03 -0.13904177713E+03 -0.14318953403E+04  0.16496278556E+04  0.00000000000E+00 0. -1.
<mgrwt>
<rscale>  0 0.34547238E+04</rscale>
<asrwt>0</asrwt>
<pdfrwt beam="1">  1        2 0.25230649E+00 0.34547238E+04</pdfrwt>
<pdfrwt beam="2">  1       -2 0.27990556E+00 0.34547238E+04</pdfrwt>
<totfact> 0.36837298E-01</totfact>
</mgrwt>
</event>
<event>
 6    1  0.2231337E-005  0.4446465E+04  0.7818608E-02  0.7920077E-01
          2   -1    0    0  501    0  0.00000000000E+00  0.00000000000E+00  0.33823607070E+04  0.33823607070E+04  0.00000000000E+00 0. -1.
         -2   -1    0    0    0  501 -0.00000000000E+00 -0.00000000000E+00 -0.14613349788E+04  0.14613349788E+04  0.00000000000E+00 0.  1.
         23    2    1    2    0    0 -0.14046495849E+04 -0.74463633934E+01 -0.91506140950E+03  0.16788124088E+04  0.89318620590E+02 0.  0.
         13    1    3    3    0    0 -0.60594393657E+03  0.30494074129E+02 -0.42905261160E+03  0.74309090046E+03  0.00000000000E+00 0. -1.
        -13    1    3    3    0    0 -0.79870564834E+03 -0.37940437523E+02 -0.48600879790E+03  0.93572150832E+03  0.00000000000E+00 0.  1.
         22    1    1    2    0    0  0.14046495849E+04  0.74463633934E+01  0.28360871377E+04  0.31648832771E+04  0.00000000000E+00 0. -1.
<mgrwt>
<rscale>  0 0.44464647E+04</rscale>
<asrwt>0</asrwt>
<pdfrwt beam="1">  1        2 0.52036318E+00 0.44464647E+04</pdfrwt>
<pdfrwt beam="2">  1       -2 0.22482077E+00 0.44464647E+04</pdfrwt>
<totfact> 0.68627017E-02</totfact>
</mgrwt>
</event>
<event>
 6    1  0.2047711E-005  0.2803956E+04  0.7818608E-02  0.8302041E-01
         -2   -1    0    0    0  501 -0.00000000000E+00  0.00000000000E+00  0.17669262314E+04  0.17669262314E+04  0.00000000000E+00 0.  1.
          2   -1    0    0  501    0  0.00000000000E+00 -0.00000000000E+00 -0.11124076941E+04  0.11124076941E+04  0.00000000000E+00 0. -1.
         23    2    1    2    0    0  0.26756676015E+03 -0.13567114838E+04  0.55523037414E+03  0.14929298861E+04  0.91109027929E+02 0.  0.
         11    1    3    3    0    0  0.18696441598E+03 -0.71589345100E+03  0.30395080560E+03  0.79990325556E+03  0.00000000000E+00 0.  1.
        -11    1    3    3    0    0  0.80602344171E+02 -0.64081803277E+03  0.25127956854E+03  0.69302663050E+03  0.00000000000E+00 0. -1.
         22    1    1    2    0    0 -0.26756676015E+03  0.13567114838E+04  0.99288163159E+02  0.13864040395E+04  0.00000000000E+00 0. -1.
<mgrwt>
<rscale>  0 0.28039560E+04</rscale>
<asrwt>0</asrwt>
<pdfrwt beam="1">  1        2 0.17113964E+00 0.28039560E+04</pdfrwt>
<pdfrwt beam="2">  1       -2 0.27183481E+00 0.28039560E+04</pdfrwt>
<totfact> 0.87945373E-01</totfact>
</mgrwt>
</event>
<event>
 6    1  0.2047711E-005  0.2245616E+04  0.7818608E-02  0.8499678E-01
         -2   -1    0    0    0  501 -0.00000000000E+00  0.00000000000E+00  0.11920591686E+04  0.11920591686E+04  0.00000000000E+00 0.  1.
          2   -1    0    0  501    0  0.00000000000E+00 -0.00000000000E+00 -0.10575798374E+04  0.10575798374E+04  0.00000000000E+00 0. -1.
         23    2    1    2    0    0  0.70845333497E+03  0.86758538872E+03  0.11117739057E+03  0.11293026659E+04  0.91397835967E+02 0.  0.
         13    1    3    3    0    0  0.49462746733E+03  0.66393974976E+03  0.65683441667E+02  0.83053394709E+03  0.00000000000E+00 0. -1.
        -13    1    3    3    0    0  0.21382586764E+03  0.20364563896E+03  0.45493948907E+02  0.29876871879E+03  0.00000000000E+00 0.  1.
         22    1    1    2    0    0 -0.70845333497E+03 -0.86758538872E+03  0.23301940558E+02  0.11203363401E+04  0.00000000000E+00 0.  1.
<mgrwt>
<rscale>  0 0.22456159E+04</rscale>
<asrwt>0</asrwt>
<pdfrwt beam="1">  1        2 0.16270459E+00 0.22456159E+04</pdfrwt>
<pdfrwt beam="2">  1       -2 0.18339372E+00 0.22456159E+04</pdfrwt>
<totfact> 0.36224785E+00</totfact>
</mgrwt>
</event>
<event>
 6    1  0.2047711E-005  0.1788057E+04  0.7818608E-02  0.8712677E-01
          2   -1    0    0  501    0  0.00000000000E+00  0.00000000000E+00  0.34169978931E+03  0.34169978931E+03  0.00000000000E+00 0. -1.
         -2   -1    0    0    0  501 -0.00000000000E+00 -0.00000000000E+00 -0.23391492235E+04  0.23391492235E+04  0.00000000000E+00 0.  1.
         23    2    1    2    0    0 -0.25625636915E+02  0.31267057073E+03 -0.22527729468E+04  0.22763621092E+04  0.91754799369E+02 0.  0.
         13    1    3    3    0    0  0.27647367351E+02  0.20134337383E+03 -0.13615231613E+04  0.13766077327E+04  0.00000000000E+00 0.  1.
        -13    1    3    3    0    0 -0.53273004266E+02  0.11132719690E+03 -0.89124978555E+03  0.89975437648E+03  0.00000000000E+00 0. -1.
         22    1    1    2    0    0  0.25625636915E+02 -0.31267057073E+03  0.25532351265E+03  0.40448690359E+03  0.00000000000E+00 0. -1.
<mgrwt>
<rscale>  0 0.17880568E+04</rscale>
<asrwt>0</asrwt>
<pdfrwt beam="1">  1        2 0.52569198E-01 0.17880568E+04</pdfrwt>
<pdfrwt beam="2">  1       -2 0.35986912E+00 0.17880568E+04</pdfrwt>
<totfact> 0.12136363E+00</totfact>
</mgrwt>
</event>
<event>
 6    1  0.2047711E-005  0.1610136E+04  0.7818608E-02  0.8814345E-01
         -2   -1    0    0    0  501 -0.00000000000E+00  0.00000000000E+00  0.74540490030E+03  0.74540490030E+03  0.00000000000E+00 0.  1.
          2   -1    0    0  501    0  0.00000000000E+00 -0.00000000000E+00 -0.86950712507E+03  0.86950712507E+03  0.00000000000E+00 0. -1.
         23    2    1    2    0    0  0.74245823801E+02 -0.77956470789E+03 -0.23774022626E+03  0.82361740796E+03  0.92691118080E+02 0.  0.
         13    1    3    3    0    0  0.53250717776E+02 -0.37466607794E+03 -0.15961927620E+03  0.41071720470E+03  0.00000000000E+00 0.  1.
        -13    1    3    3    0    0  0.20995106025E+02 -0.40489862995E+03 -0.78120950060E+02  0.41290020326E+03  0.00000000000E+00 0. -1.
         22    1    1    2    0    0 -0.74245823801E+02  0.77956470789E+03  0.11363800149E+03  0.79129461740E+03  0.00000000000E+00 0.  1.
<mgrwt>
<rscale>  0 0.16101365E+04</rscale>
<asrwt>0</asrwt>
<pdfrwt beam="1">  1        2 0.13377033E+00 0.16101365E+04</pdfrwt>
<pdfrwt beam="2">  1       -2 0.11467768E+00 0.16101365E+04</pdfrwt>
<totfact> 0.17501886E+01</totfact>
</mgrwt>
</event>
<event>
 6    1  0.2047711E-005  0.2197489E+04  0.7818608E-02  0.8519474E-01
         -2   -1    0    0    0  501 -0.00000000000E+00  0.00000000000E+00  0.96040946966E+03  0.96040946966E+03  0.00000000000E+00 0.  1.
          2   -1    0    0  501    0  0.00000000000E+00 -0.00000000000E+00 -0.12570052915E+04  0.12570052915E+04  0.00000000000E+00 0. -1.
         23    2    1    2    0    0 -0.86399667949E+03 -0.34648969004E+03 -0.73442511134E+03  0.11887069046E+04  0.84252557646E+02 0.  0.
         13    1    3    3    0    0 -0.40891855171E+03 -0.14094214669E+03 -0.29504597569E+03  0.52357539898E+03  0.00000000000E+00 0. -1.
        -13    1    3    3    0    0 -0.45507812778E+03 -0.20554754335E+03 -0.43937913565E+03  0.66513150565E+03  0.00000000000E+00 0.  1.
         22    1    1    2    0    0  0.86399667949E+03  0.34648969004E+03  0.43782928946E+03  0.10287078566E+04  0.00000000000E+00 0.  1.
<mgrwt>
<rscale>  0 0.21974893E+04</rscale>
<asrwt>0</asrwt>
<pdfrwt beam="1">  1        2 0.19338543E+00 0.21974893E+04</pdfrwt>
<pdfrwt beam="2">  1       -2 0.14775530E+00 0.21974893E+04</pdfrwt>
<totfact> 0.49951891E+00</totfact>
</mgrwt>
</event>
<event>
 6    1  0.2047711E-005  0.1583366E+04  0.7818608E-02  0.8830832E-01
         -2   -1    0    0    0  501 -0.00000000000E+00  0.00000000000E+00  0.14738445101E+04  0.14738445101E+04  0.00000000000E+00 0.  1.
          2   -1    0    0  501    0  0.00000000000E+00 -0.00000000000E+00 -0.42525676545E+03  0.42525676545E+03  0.00000000000E+00 0. -1.
         23    2    1    2    0    0 -0.26457387554E+03 -0.74322458614E+03  0.54355935633E+03  0.96238584700E+03  0.91365330399E+02 0.  0.
         13    1    3    3    0    0 -0.19371052112E+03 -0.54899485633E+03  0.35065675981E+03  0.67961701088E+03  0.00000000000E+00 0. -1.
        -13    1    3    3    0    0 -0.70863354426E+02 -0.19422972980E+03  0.19290259652E+03  0.28276883613E+03  0.00000000000E+00 0.  1.
         22    1    1    2    0    0  0.26457387554E+03  0.74322458614E+03  0.50502838831E+03  0.93671542854E+03  0.00000000000E+00 0.  1.
<mgrwt>
<rscale>  0 0.15833665E+04</rscale>
<asrwt>0</asrwt>
<pdfrwt beam="1">  1        2 0.65424119E-01 0.15833665E+04</pdfrwt>
<pdfrwt beam="2">  1       -2 0.22674531E+00 0.15833665E+04</pdfrwt>
<totfact> 0.63798491E+00</totfact>
</mgrwt>
</event>
<event>
 6    1  0.2047711E-005  0.1005415E+04  0.7818608E-02  0.9302626E-01
          2   -1    0    0  501    0  0.00000000000E+00  0.00000000000E+00  0.64204039224E+03  0.64204039224E+03  0.00000000000E+00 0. -1.
         -2   -1    0    0    0  501 -0.00000000000E+00 -0.00000000000E+00 -0.39361185044E+03  0.39361185044E+03  0.00000000000E+00 0.  1.
         23    2    1    2    0    0  0.36673371886E+03  0.21025305435E+03 -0.14680010036E+03  0.45694191186E+03  0.92442814416E+02 0.  0.
         13    1    3    3    0    0  0.28968835796E+03  0.17791125903E+03 -0.78213561989E+02  0.34883967966E+03  0.00000000000E+00 0. -1.
        -13    1    3    3    0    0  0.77045360894E+02  0.32341795322E+02 -0.68586538371E+02  0.10810223220E+03  0.00000000000E+00 0.  1.
         22    1    1    2    0    0 -0.36673371886E+03 -0.21025305435E+03  0.39522864216E+03  0.57871033082E+03  0.00000000000E+00 0. -1.
<mgrwt>
<rscale>  0 0.10054148E+04</rscale>
<asrwt>0</asrwt>
<pdfrwt beam="1">  1        2 0.98775445E-01 0.10054148E+04</pdfrwt>
<pdfrwt beam="2">  1       -2 0.60555669E-01 0.10054148E+04</pdfrwt>
<totfact> 0.11580000E+02</totfact>
</mgrwt>
</event>
<event>
 6    1  0.2047711E-005  0.1709089E+04  0.7818608E-02  0.8756197E-01
          2   -1    0    0  501    0  0.00000000000E+00  0.00000000000E+00  0.38695569142E+04  0.38695569142E+04  0.00000000000E+00 0.  1.
         -2   -1    0    0    0  501 -0.00000000000E+00 -0.00000000000E+00 -0.18871578845E+03  0.18871578845E+03  0.00000000000E+00 0. -1.
         23    2    1    2    0    0  0.29537463916E+03 -0.51384615034E+03  0.39183640443E+03  0.71629183788E+03  0.90852548075E+02 0.  0.
         11    1    3    3    0    0  0.84599305876E+02 -0.19701504453E+03  0.18491523628E+03  0.28313532972E+03  0.00000000000E+00 0. -1.
        -11    1    3    3    0    0  0.21077533329E+03 -0.31683110582E+03  0.20692116814E+03  0.43315650816E+03  0.00000000000E+00 0.  1.
         22    1    1    2    0    0 -0.29537463916E+03  0.51384615034E+03  0.32890047213E+04  0.33419808648E+04  0.00000000000E+00 0.  1.
<mgrwt>
<rscale>  0 0.17090892E+04</rscale>
<asrwt>0</asrwt>
<pdfrwt beam="1">  1        2 0.59531639E+00 0.17090892E+04</pdfrwt>
<pdfrwt beam="2">  1       -2 0.29033201E-01 0.17090892E+04</pdfrwt>
<totfact> 0.45678815E+00</totfact>
</mgrwt>
</event>
<event>
 6    1  0.2047711E-005  0.2894795E+04  0.7818608E-02  0.8274428E-01
          2   -1    0    0  501    0  0.00000000000E+00  0.00000000000E+00  0.15308820378E+04  0.15308820378E+04  0.00000000000E+00 0. -1.
         -2   -1    0    0    0  501 -0.00000000000E+00 -0.00000000000E+00 -0.13684657518E+04  0.13684657518E+04  0.00000000000E+00 0.  1.
         23    2    1    2    0    0 -0.77319525919E+01  0.60281401277E+03  0.13976565846E+04  0.15248431106E+04  0.90873905057E+02 0.  0.
         13    1    3    3    0    0  0.10735468841E+02  0.55554763485E+03  0.12302103777E+04  0.13498762900E+04  0.00000000000E+00 0.  1.
        -13    1    3    3    0    0 -0.18467421433E+02  0.47266377920E+02  0.16744620688E+03  0.17496682066E+03  0.00000000000E+00 0. -1.
         22    1    1    2    0    0  0.77319525919E+01 -0.60281401277E+03 -0.12352402986E+04  0.13745046789E+04  0.00000000000E+00 0.  1.
<mgrwt>
<rscale>  0 0.28947951E+04</rscale>
<asrwt>0</asrwt>
<pdfrwt beam="1">  1        2 0.23552031E+00 0.28947951E+04</pdfrwt>
<pdfrwt beam="2">  1       -2 0.21053319E+00 0.28947951E+04</pdfrwt>
<totfact> 0.11963004E+00</totfact>
</mgrwt>
</event>
<event>
 6    1  0.2047711E-005  0.1327727E+04  0.7818608E-02  0.9007862E-01
         -2   -1    0    0    0  501 -0.00000000000E+00  0.00000000000E+00  0.27978744873E+03  0.27978744873E+03  0.00000000000E+00 0.  1.
          2   -1    0    0  501    0  0.00000000000E+00 -0.00000000000E+00 -0.15751769723E+04  0.15751769723E+04  0.00000000000E+00 0. -1.
         23    2    1    2    0    0 -0.44406840161E+03  0.48867364908E+03 -0.61910679359E+03  0.90978876990E+03  0.91780735230E+02 0.  0.
         11    1    3    3    0    0 -0.15313185788E+03  0.22188004408E+03 -0.28883358801E+03  0.39510120402E+03  0.00000000000E+00 0.  1.
        -11    1    3    3    0    0 -0.29093654373E+03  0.26679360501E+03 -0.33027320558E+03  0.51468756589E+03  0.00000000000E+00 0. -1.
         22    1    1    2    0    0  0.44406840161E+03 -0.48867364908E+03 -0.67628273000E+03  0.94517565114E+03  0.00000000000E+00 0.  1.
<mgrwt>
<rscale>  0 0.13277270E+04</rscale>
<asrwt>0</asrwt>
<pdfrwt beam="1">  1        2 0.24233492E+00 0.13277270E+04</pdfrwt>
<pdfrwt beam="2">  1       -2 0.43044222E-01 0.13277270E+04</pdfrwt>
<totfact> 0.57628885E+01</totfact>
</mgrwt>
</event>
<event>
 6    1  0.2047711E-005  0.2489702E+04  0.7818608E-02  0.8406663E-01
         -2   -1    0    0    0  501 -0.00000000000E+00  0.00000000000E+00  0.82648691700E+03  0.82648691700E+03  0.00000000000E+00 0.  1.
          2   -1    0    0  501    0  0.00000000000E+00 -0.00000000000E+00 -0.18749898930E+04  0.18749898930E+04  0.00000000000E+00 0. -1.
         23    2    1    2    0    0  0.87031361366E+03 -0.82381919637E+03 -0.88385764284E+03  0.14918355656E+04  0.90802904458E+02 0.  0.
         13    1    3    3    0    0  0.39673839698E+03 -0.37859978444E+03 -0.46076406642E+03  0.71626997517E+03  0.00000000000E+00 0. -1.
        -13    1    3    3    0    0  0.47357521668E+03 -0.44521941193E+03 -0.42309357642E+03  0.77556559040E+03  0.00000000000E+00 0.  1.
         22    1    1    2    0    0 -0.87031361366E+03  0.82381919637E+03 -0.16464533311E+03  0.12096412444E+04  0.00000000000E+00 0. -1.
<mgrwt>
<rscale>  0 0.24897025E+04</rscale>
<asrwt>0</asrwt>
<pdfrwt beam="1">  1        2 0.28845998E+00 0.24897025E+04</pdfrwt>
<pdfrwt beam="2">  1       -2 0.12715183E+00 0.24897025E+04</pdfrwt>
<totfact> 0.32147217E+00</totfact>
</mgrwt>
</event>
<event>
 6    1  0.2047711E-005  0.2061273E+04  0.7818608E-02  0.8578498E-01
         -2   -1    0    0    0  501 -0.00000000000E+00  0.00000000000E+00  0.32810375801E+04  0.32810375801E+04  0.00000000000E+00 0.  1.
          2   -1    0    0  501    0  0.00000000000E+00 -0.00000000000E+00 -0.32374248218E+03  0.32374248218E+03  0.00000000000E+00 0. -1.
         23    2    1    2    0    0 -0.10090517721E+04 -0.88921994450E+02  0.17945874277E+04  0.20627094652E+04  0.90187042315E+02 0.  0.
         11    1    3    3    0    0 -0.52488214108E+03 -0.89789950034E+02  0.91524606276E+03  0.10588856655E+04  0.00000000000E+00 0. -1.
        -11    1    3    3    0    0 -0.48416963097E+03  0.86795558349E+00  0.87934136494E+03  0.10038237998E+04  0.00000000000E+00 0.  1.
         22    1    1    2    0    0  0.10090517721E+04  0.88921994450E+02  0.11627076702E+04  0.15420705970E+04  0.00000000000E+00 0.  1.
<mgrwt>
<rscale>  0 0.20612727E+04</rscale>
<asrwt>0</asrwt>
<pdfrwt beam="1">  1        2 0.49806538E-01 0.20612727E+04</pdfrwt>
<pdfrwt beam="2">  1       -2 0.50477499E+00 0.20612727E+04</pdfrwt>
<totfact> 0.14309258E-01</totfact>
</mgrwt>
</event>
<event>
 6    1  0.2047711E-005  0.2040976E+04  0.7818608E-02  0.8587699E-01
          2   -1    0    0  501    0  0.00000000000E+00  0.00000000000E+00  0.19910525795E+04  0.19910525795E+04  0.00000000000E+00 0.  1.
         -2   -1    0    0    0  501 -0.00000000000E+00 -0.00000000000E+00 -0.52303800439E+03  0.52303800439E+03  0.00000000000E+00 0. -1.
         23    2    1    2    0    0  0.59093679593E+03 -0.81093924388E+03  0.51541260267E+03  0.11305157677E+04  0.74746210661E+02 0.  0.
         13    1    3    3    0    0  0.41940307876E+03 -0.62036396959E+03  0.40515254433E+03  0.85140999607E+03  0.00000000000E+00 0.  1.
        -13    1    3    3    0    0  0.17153371717E+03 -0.19057527429E+03  0.11026005834E+03  0.27910577164E+03  0.00000000000E+00 0. -1.
         22    1    1    2    0    0 -0.59093679593E+03  0.81093924388E+03  0.95260197241E+03  0.13835748162E+04  0.00000000000E+00 0.  1.
<mgrwt>
<rscale>  0 0.20409764E+04</rscale>
<asrwt>0</asrwt>
<pdfrwt beam="1">  1        2 0.30631578E+00 0.20409764E+04</pdfrwt>
<pdfrwt beam="2">  1       -2 0.80467387E-01 0.20409764E+04</pdfrwt>
<totfact> 0.85369510E+00</totfact>
</mgrwt>
</event>
<event>
 6    1  0.2047711E-005  0.1888714E+04  0.7818608E-02  0.8660494E-01
          2   -1    0    0  501    0  0.00000000000E+00  0.00000000000E+00  0.21469487791E+04  0.21469487791E+04  0.00000000000E+00 0. -1.
         -2   -1    0    0    0  501 -0.00000000000E+00 -0.00000000000E+00 -0.41538512939E+03  0.41538512939E+03  0.00000000000E+00 0.  1.
         23    2    1    2    0    0 -0.24394162386E+03  0.78041551799E+03  0.15040239998E+04  0.17136112277E+04  0.76284671500E+02 0.  0.
         13    1    3    3    0    0 -0.11643168249E+03  0.28342592745E+03  0.61659898260E+03  0.68853532835E+03  0.00000000000E+00 0.  1.
        -13    1    3    3    0    0 -0.12750994137E+03  0.49698959055E+03  0.88742501723E+03  0.10250758994E+04  0.00000000000E+00 0. -1.
         22    1    1    2    0    0  0.24394162386E+03 -0.78041551799E+03  0.22753964985E+03  0.84872268076E+03  0.00000000000E+00 0. -1.
<mgrwt>
<rscale>  0 0.18887145E+04</rscale>
<asrwt>0</asrwt>
<pdfrwt beam="1">  1        2 0.33029981E+00 0.18887145E+04</pdfrwt>
<pdfrwt beam="2">  1       -2 0.63905405E-01 0.18887145E+04</pdfrwt>
<totfact> 0.11740146E+01</totfact>
</mgrwt>
</event>
<event>
 6    1  0.2047711E-005  0.2718661E+04  0.7818608E-02  0.8328975E-01
          1   -1    0    0  501    0  0.00000000000E+00  0.00000000000E+00  0.28289186404E+04  0.28289186404E+04  0.00000000000E+00 0. -1.
         -1   -1    0    0    0  501 -0.00000000000E+00 -0.00000000000E+00 -0.65317507605E+03  0.65317507605E+03  0.00000000000E+00 0.  1.
         23    2    1    2    0    0 -0.61292411714E+03  0.11233815951E+04  0.16696177488E+04  0.21059303821E+04  0.98270877194E+02 0.  0.
         11    1    3    3    0    0 -0.23096495728E+03  0.32858214572E+03  0.52896884196E+03  0.66416795597E+03  0.00000000000E+00 0. -1.
        -11    1    3    3    0    0 -0.38195915986E+03  0.79479944943E+03  0.11406489068E+04  0.14417624261E+04  0.00000000000E+00 0.  1.
         22    1    1    2    0    0  0.61292411714E+03 -0.11233815951E+04  0.50612581551E+03  0.13761633344E+04  0.00000000000E+00 0.  1.
<mgrwt>
<rscale>  0 0.27186608E+04</rscale>
<asrwt>0</asrwt>
<pdfrwt beam="1">  1        1 0.43521825E+00 0.27186608E+04</pdfrwt>
<pdfrwt beam="2">  1       -1 0.10048847E+00 0.27186608E+04</pdfrwt>
<totfact> 0.65260273E-01</totfact>
</mgrwt>
</event>
<event>
 6    1  0.2047711E-005  0.3488335E+04  0.7818608E-02  0.8116560E-01
         -2   -1    0    0    0  501 -0.00000000000E+00  0.00000000000E+00  0.22366975950E+04  0.22366975950E+04  0.00000000000E+00 0.  1.
          2   -1    0    0  501    0  0.00000000000E+00 -0.00000000000E+00 -0.13600944995E+04  0.13600944995E+04  0.00000000000E+00 0. -1.
         23    2    1    2    0    0 -0.21895433183E+02  0.43462869052E+03 -0.13017238779E+04  0.13754209163E+04  0.88972658146E+02 0.  0.
         11    1    3    3    0    0  0.11940966087E+02  0.91530050619E+02 -0.38771702666E+03  0.39855342126E+03  0.00000000000E+00 0. -1.
        -11    1    3    3    0    0 -0.33836399270E+02  0.34309863990E+03 -0.91400685127E+03  0.97686749500E+03  0.00000000000E+00 0.  1.
         22    1    1    2    0    0  0.21895433183E+02 -0.43462869052E+03  0.21783269734E+04  0.22213711783E+04  0.00000000000E+00 0.  1.
<mgrwt>
<rscale>  0 0.34883349E+04</rscale>
<asrwt>0</asrwt>
<pdfrwt beam="1">  1        2 0.20924531E+00 0.34883349E+04</pdfrwt>
<pdfrwt beam="2">  1       -2 0.34410732E+00 0.34883349E+04</pdfrwt>
<totfact> 0.21254394E-01</totfact>
</mgrwt>
</event>
<event>
 6    1  0.2047711E-005  0.2110812E+04  0.7818608E-02  0.8556496E-01
          2   -1    0    0  501    0  0.00000000000E+00  0.00000000000E+00  0.37811435274E+04  0.37811435274E+04  0.00000000000E+00 0. -1.
         -2   -1    0    0    0  501 -0.00000000000E+00 -0.00000000000E+00 -0.29458848218E+03  0.29458848218E+03  0.00000000000E+00 0.  1.
         23    2    1    2    0    0 -0.85698026331E+03  0.60921948762E+03  0.18693174138E+04  0.21467371645E+04  0.92570536344E+02 0.  0.
         11    1    3    3    0    0 -0.27950333782E+03  0.25139878105E+03  0.64386762080E+03  0.74557962424E+03  0.00000000000E+00 0.  1.
        -11    1    3    3    0    0 -0.57747692549E+03  0.35782070657E+03  0.12254497930E+04  0.14011575403E+04  0.00000000000E+00 0. -1.
         22    1    1    2    0    0  0.85698026331E+03 -0.60921948762E+03  0.16172376314E+04  0.19289948451E+04  0.00000000000E+00 0.  1.
<mgrwt>
<rscale>  0 0.21108115E+04</rscale>
<asrwt>0</asrwt>
<pdfrwt beam="1">  1        2 0.58171435E+00 0.21108115E+04</pdfrwt>
<pdfrwt beam="2">  1       -2 0.45321308E-01 0.21108115E+04</pdfrwt>
<totfact> 0.21719362E+00</totfact>
</mgrwt>
</event>
<event>
 6    1  0.2047711E-005  0.3605240E+04  0.7818608E-02  0.8089292E-01
          2   -1    0    0  501    0  0.00000000000E+00  0.00000000000E+00  0.30600011232E+04  0.30600011232E+04  0.00000000000E+00 0. -1.
         -2   -1    0    0    0  501 -0.00000000000E+00 -0.00000000000E+00 -0.10619077649E+04  0.10619077649E+04  0.00000000000E+00 0.  1.
         23    2    1    2    0    0  0.52058641328E+03 -0.14628487491E+04 -0.44390458227E+02  0.15562361074E+04  0.94676463399E+02 0.  0.
         13    1    3    3    0    0  0.24659404902E+02 -0.12914382696E+03  0.13265689499E+02  0.13214459054E+03  0.00000000000E+00 0. -1.
        -13    1    3    3    0    0  0.49592700837E+03 -0.13337049222E+04 -0.57656147726E+02  0.14240915169E+04  0.00000000000E+00 0.  1.
         22    1    1    2    0    0 -0.52058641328E+03  0.14628487491E+04  0.20424838165E+04  0.25656727806E+04  0.00000000000E+00 0. -1.
<mgrwt>
<rscale>  0 0.36052400E+04</rscale>
<asrwt>0</asrwt>
<pdfrwt beam="1">  1        2 0.47076940E+00 0.36052400E+04</pdfrwt>
<pdfrwt beam="2">  1       -2 0.16337043E+00 0.36052400E+04</pdfrwt>
<totfact> 0.30907705E-01</totfact>
</mgrwt>
</event>
<event>
 6    1  0.2047711E-005  0.3654215E+04  0.7818608E-02  0.8078185E-01
          2   -1    0    0  501    0  0.00000000000E+00  0.00000000000E+00  0.34287900094E+04  0.34287900094E+04  0.00000000000E+00 0. -1.
         -2   -1    0    0    0  501 -0.00000000000E+00 -0.00000000000E+00 -0.97361514765E+03  0.97361514765E+03  0.00000000000E+00 0.  1.
         23    2    1    2    0    0 -0.70131922807E+03 -0.11500016588E+04 -0.25685082725E+03  0.13742975281E+04  0.91481547033E+02 0.  0.
         11    1    3    3    0    0 -0.46741769100E+03 -0.68921429424E+03 -0.17777964329E+03  0.85152876805E+03  0.00000000000E+00 0.  1.
        -11    1    3    3    0    0 -0.23390153707E+03 -0.46078736452E+03 -0.79071183958E+02  0.52276876004E+03  0.00000000000E+00 0. -1.
         22    1    1    2    0    0  0.70131922807E+03  0.11500016588E+04  0.27120256890E+04  0.30281076290E+04  0.00000000000E+00 0. -1.
<mgrwt>
<rscale>  0 0.36542150E+04</rscale>
<asrwt>0</asrwt>
<pdfrwt beam="1">  1        2 0.52750615E+00 0.36542150E+04</pdfrwt>
<pdfrwt beam="2">  1       -2 0.14978695E+00 0.36542150E+04</pdfrwt>
<totfact> 0.22198112E-01</totfact>
</mgrwt>
</event>
<event>
 6    1  0.2047711E-005  0.2314615E+04  0.7818608E-02  0.8472181E-01
          2   -1    0    0  501    0  0.00000000000E+00  0.00000000000E+00  0.23024739162E+04  0.23024739162E+04  0.00000000000E+00 0. -1.
         -2   -1    0    0    0  501 -0.00000000000E+00 -0.00000000000E+00 -0.58170494451E+03  0.58170494451E+03  0.00000000000E+00 0.  1.
         23    2    1    2    0    0 -0.99857957924E+03 -0.49050379647E+03  0.47356110101E+03  0.12128672132E+04  0.95034783505E+02 0.  0.
         11    1    3    3    0    0 -0.19180212925E+03 -0.84387424347E+02  0.12947427858E+03  0.24631866146E+03  0.00000000000E+00 0. -1.
        -11    1    3    3    0    0 -0.80677744999E+03 -0.40611637213E+03  0.34408682244E+03  0.96654855175E+03  0.00000000000E+00 0.  1.
         22    1    1    2    0    0  0.99857957924E+03  0.49050379647E+03  0.12472078707E+04  0.16713116475E+04  0.00000000000E+00 0. -1.
<mgrwt>
<rscale>  0 0.23146148E+04</rscale>
<asrwt>0</asrwt>
<pdfrwt beam="1">  1        2 0.35422675E+00 0.23146148E+04</pdfrwt>
<pdfrwt beam="2">  1       -2 0.89493070E-01 0.23146148E+04</pdfrwt>
<totfact> 0.43807206E+00</totfact>
</mgrwt>
</event>
